[Molden Format]
[Atoms] AU
  N     1    7    -4.5082829200   -0.1342819900   -0.4228200100        
  C     2    6    -1.7496705200   -0.0824342700   -0.1838819400        
  C     3    6    -0.3491890900    0.2202010900   -2.3813599000        
  C     4    6    -0.4819141000   -0.3194027500    2.1144844200        
  C     5    6     2.2679837200    0.2851297300   -2.2867536700        
  C     6    6     2.1285900100   -0.2535069600    2.1993448600        
  C     7    6     3.5096699900    0.0491470500   -0.0030301700        
  H     8    1    -5.1320741200   -2.0132111100    0.6830024400        
  H     9    1    -5.2312650200    1.3935123600    1.0889586400        
  H    10    1    -1.3260875200    0.4019365300   -4.1451509600        
  H    11    1    -1.5448115400   -0.5543420500    3.8263524900        
  H    12    1     3.3318141500    0.5199799700   -3.9976458500        
  H    13    1     3.0845146800   -0.4378414600    3.9798216900        
  H    14    1     5.5368142800    0.0998677000    0.0666404700        
[5D]
[7F]
[GTO]
  1  0
   s    12 1.00
  0.114200D+05  0.172695D-04
  0.171200D+04  0.134411D-03
  0.389300D+03  0.694561D-03
  0.110000D+03  0.278531D-02
  0.355700D+02  0.863457D-02
  0.125400D+02  0.199805D-01
  0.464400D+01  0.262908D-01
  0.129300D+01 -0.243845D-01
  0.511800D+00 -0.924934D-01
  0.178700D+00 -0.339683D+00
  0.246240D-01  0.345111D+00
  0.112530D-01  0.752750D+00
   s    10 1.00
  0.114200D+05  0.523000D-03
  0.171200D+04  0.404500D-02
  0.389300D+03  0.207750D-01
  0.110000D+03  0.807269D-01
  0.355700D+02  0.233074D+00
  0.125400D+02  0.433501D+00
  0.464400D+01  0.347472D+00
  0.129300D+01  0.412620D-01
  0.511800D+00 -0.850799D-02
  0.178700D+00  0.238400D-02
   s    10 1.00
  0.114200D+05 -0.115000D-03
  0.171200D+04 -0.895000D-03
  0.389300D+03 -0.462400D-02
  0.110000D+03 -0.185280D-01
  0.355700D+02 -0.573390D-01
  0.125400D+02 -0.132076D+00
  0.464400D+01 -0.172510D+00
  0.129300D+01  0.151814D+00
  0.511800D+00  0.599944D+00
  0.178700D+00  0.387462D+00
   s     1 1.00
  0.129300D+01  0.100000D+01
   s     1 1.00
  0.178700D+00  0.100000D+01
   p     5 1.00
  0.266300D+02  0.146700D-01
  0.594800D+01  0.917640D-01
  0.174200D+01  0.298683D+00
  0.555000D+00  0.498487D+00
  0.172500D+00  0.337023D+00
   p     1 1.00
  0.174200D+01  0.100000D+01
   p     1 1.00
  0.555000D+00  0.100000D+01
   d     1 1.00
  0.165400D+01  0.100000D+01
   d     1 1.00
  0.469000D+00  0.100000D+01
   f     1 1.00
  0.109300D+01  0.100000D+01
  
  2  0
   s    10 1.00
  0.823600D+04  0.531000D-03
  0.123500D+04  0.410800D-02
  0.280800D+03  0.210870D-01
  0.792700D+02  0.818530D-01
  0.255900D+02  0.234817D+00
  0.899700D+01  0.434401D+00
  0.331900D+01  0.346129D+00
  0.905900D+00  0.393780D-01
  0.364300D+00 -0.898300D-02
  0.128500D+00  0.238500D-02
   s    10 1.00
  0.823600D+04 -0.113000D-03
  0.123500D+04 -0.878000D-03
  0.280800D+03 -0.454000D-02
  0.792700D+02 -0.181330D-01
  0.255900D+02 -0.557600D-01
  0.899700D+01 -0.126895D+00
  0.331900D+01 -0.170352D+00
  0.905900D+00  0.140382D+00
  0.364300D+00  0.598684D+00
  0.128500D+00  0.395389D+00
   s     1 1.00
  0.905900D+00  0.100000D+01
   s     1 1.00
  0.364300D+00  0.100000D+01
   p     5 1.00
  0.187100D+02  0.140310D-01
  0.413300D+01  0.868660D-01
  0.120000D+01  0.290216D+00
  0.382700D+00  0.501008D+00
  0.120900D+00  0.343406D+00
   p     1 1.00
  0.382700D+00  0.100000D+01
   p     1 1.00
  0.120900D+00  0.100000D+01
   d     1 1.00
  0.109700D+01  0.100000D+01
   d     1 1.00
  0.318000D+00  0.100000D+01
   f     1 1.00
  0.761000D+00  0.100000D+01
  
  3  0
   s    10 1.00
  0.823600D+04  0.531000D-03
  0.123500D+04  0.410800D-02
  0.280800D+03  0.210870D-01
  0.792700D+02  0.818530D-01
  0.255900D+02  0.234817D+00
  0.899700D+01  0.434401D+00
  0.331900D+01  0.346129D+00
  0.905900D+00  0.393780D-01
  0.364300D+00 -0.898300D-02
  0.128500D+00  0.238500D-02
   s    10 1.00
  0.823600D+04 -0.113000D-03
  0.123500D+04 -0.878000D-03
  0.280800D+03 -0.454000D-02
  0.792700D+02 -0.181330D-01
  0.255900D+02 -0.557600D-01
  0.899700D+01 -0.126895D+00
  0.331900D+01 -0.170352D+00
  0.905900D+00  0.140382D+00
  0.364300D+00  0.598684D+00
  0.128500D+00  0.395389D+00
   s     1 1.00
  0.905900D+00  0.100000D+01
   s     1 1.00
  0.364300D+00  0.100000D+01
   p     5 1.00
  0.187100D+02  0.140310D-01
  0.413300D+01  0.868660D-01
  0.120000D+01  0.290216D+00
  0.382700D+00  0.501008D+00
  0.120900D+00  0.343406D+00
   p     1 1.00
  0.382700D+00  0.100000D+01
   p     1 1.00
  0.120900D+00  0.100000D+01
   d     1 1.00
  0.109700D+01  0.100000D+01
   d     1 1.00
  0.318000D+00  0.100000D+01
   f     1 1.00
  0.761000D+00  0.100000D+01
  
  4  0
   s    10 1.00
  0.823600D+04  0.531000D-03
  0.123500D+04  0.410800D-02
  0.280800D+03  0.210870D-01
  0.792700D+02  0.818530D-01
  0.255900D+02  0.234817D+00
  0.899700D+01  0.434401D+00
  0.331900D+01  0.346129D+00
  0.905900D+00  0.393780D-01
  0.364300D+00 -0.898300D-02
  0.128500D+00  0.238500D-02
   s    10 1.00
  0.823600D+04 -0.113000D-03
  0.123500D+04 -0.878000D-03
  0.280800D+03 -0.454000D-02
  0.792700D+02 -0.181330D-01
  0.255900D+02 -0.557600D-01
  0.899700D+01 -0.126895D+00
  0.331900D+01 -0.170352D+00
  0.905900D+00  0.140382D+00
  0.364300D+00  0.598684D+00
  0.128500D+00  0.395389D+00
   s     1 1.00
  0.905900D+00  0.100000D+01
   s     1 1.00
  0.364300D+00  0.100000D+01
   p     5 1.00
  0.187100D+02  0.140310D-01
  0.413300D+01  0.868660D-01
  0.120000D+01  0.290216D+00
  0.382700D+00  0.501008D+00
  0.120900D+00  0.343406D+00
   p     1 1.00
  0.382700D+00  0.100000D+01
   p     1 1.00
  0.120900D+00  0.100000D+01
   d     1 1.00
  0.109700D+01  0.100000D+01
   d     1 1.00
  0.318000D+00  0.100000D+01
   f     1 1.00
  0.761000D+00  0.100000D+01
  
  5  0
   s    10 1.00
  0.823600D+04  0.531000D-03
  0.123500D+04  0.410800D-02
  0.280800D+03  0.210870D-01
  0.792700D+02  0.818530D-01
  0.255900D+02  0.234817D+00
  0.899700D+01  0.434401D+00
  0.331900D+01  0.346129D+00
  0.905900D+00  0.393780D-01
  0.364300D+00 -0.898300D-02
  0.128500D+00  0.238500D-02
   s    10 1.00
  0.823600D+04 -0.113000D-03
  0.123500D+04 -0.878000D-03
  0.280800D+03 -0.454000D-02
  0.792700D+02 -0.181330D-01
  0.255900D+02 -0.557600D-01
  0.899700D+01 -0.126895D+00
  0.331900D+01 -0.170352D+00
  0.905900D+00  0.140382D+00
  0.364300D+00  0.598684D+00
  0.128500D+00  0.395389D+00
   s     1 1.00
  0.905900D+00  0.100000D+01
   s     1 1.00
  0.364300D+00  0.100000D+01
   p     5 1.00
  0.187100D+02  0.140310D-01
  0.413300D+01  0.868660D-01
  0.120000D+01  0.290216D+00
  0.382700D+00  0.501008D+00
  0.120900D+00  0.343406D+00
   p     1 1.00
  0.382700D+00  0.100000D+01
   p     1 1.00
  0.120900D+00  0.100000D+01
   d     1 1.00
  0.109700D+01  0.100000D+01
   d     1 1.00
  0.318000D+00  0.100000D+01
   f     1 1.00
  0.761000D+00  0.100000D+01
  
  6  0
   s    10 1.00
  0.823600D+04  0.531000D-03
  0.123500D+04  0.410800D-02
  0.280800D+03  0.210870D-01
  0.792700D+02  0.818530D-01
  0.255900D+02  0.234817D+00
  0.899700D+01  0.434401D+00
  0.331900D+01  0.346129D+00
  0.905900D+00  0.393780D-01
  0.364300D+00 -0.898300D-02
  0.128500D+00  0.238500D-02
   s    10 1.00
  0.823600D+04 -0.113000D-03
  0.123500D+04 -0.878000D-03
  0.280800D+03 -0.454000D-02
  0.792700D+02 -0.181330D-01
  0.255900D+02 -0.557600D-01
  0.899700D+01 -0.126895D+00
  0.331900D+01 -0.170352D+00
  0.905900D+00  0.140382D+00
  0.364300D+00  0.598684D+00
  0.128500D+00  0.395389D+00
   s     1 1.00
  0.905900D+00  0.100000D+01
   s     1 1.00
  0.364300D+00  0.100000D+01
   p     5 1.00
  0.187100D+02  0.140310D-01
  0.413300D+01  0.868660D-01
  0.120000D+01  0.290216D+00
  0.382700D+00  0.501008D+00
  0.120900D+00  0.343406D+00
   p     1 1.00
  0.382700D+00  0.100000D+01
   p     1 1.00
  0.120900D+00  0.100000D+01
   d     1 1.00
  0.109700D+01  0.100000D+01
   d     1 1.00
  0.318000D+00  0.100000D+01
   f     1 1.00
  0.761000D+00  0.100000D+01
  
  7  0
   s    10 1.00
  0.823600D+04  0.531000D-03
  0.123500D+04  0.410800D-02
  0.280800D+03  0.210870D-01
  0.792700D+02  0.818530D-01
  0.255900D+02  0.234817D+00
  0.899700D+01  0.434401D+00
  0.331900D+01  0.346129D+00
  0.905900D+00  0.393780D-01
  0.364300D+00 -0.898300D-02
  0.128500D+00  0.238500D-02
   s    10 1.00
  0.823600D+04 -0.113000D-03
  0.123500D+04 -0.878000D-03
  0.280800D+03 -0.454000D-02
  0.792700D+02 -0.181330D-01
  0.255900D+02 -0.557600D-01
  0.899700D+01 -0.126895D+00
  0.331900D+01 -0.170352D+00
  0.905900D+00  0.140382D+00
  0.364300D+00  0.598684D+00
  0.128500D+00  0.395389D+00
   s     1 1.00
  0.905900D+00  0.100000D+01
   s     1 1.00
  0.364300D+00  0.100000D+01
   p     5 1.00
  0.187100D+02  0.140310D-01
  0.413300D+01  0.868660D-01
  0.120000D+01  0.290216D+00
  0.382700D+00  0.501008D+00
  0.120900D+00  0.343406D+00
   p     1 1.00
  0.382700D+00  0.100000D+01
   p     1 1.00
  0.120900D+00  0.100000D+01
   d     1 1.00
  0.109700D+01  0.100000D+01
   d     1 1.00
  0.318000D+00  0.100000D+01
   f     1 1.00
  0.761000D+00  0.100000D+01
  
  8  0
   s     4 1.00
  0.130100D+02  0.196850D-01
  0.196200D+01  0.137977D+00
  0.444600D+00  0.478148D+00
  0.122000D+00  0.501240D+00
   s     1 1.00
  0.122000D+00  0.100000D+01
   p     1 1.00
  0.727000D+00  0.100000D+01
  
  9  0
   s     4 1.00
  0.130100D+02  0.196850D-01
  0.196200D+01  0.137977D+00
  0.444600D+00  0.478148D+00
  0.122000D+00  0.501240D+00
   s     1 1.00
  0.122000D+00  0.100000D+01
   p     1 1.00
  0.727000D+00  0.100000D+01
  
 10  0
   s     4 1.00
  0.130100D+02  0.196850D-01
  0.196200D+01  0.137977D+00
  0.444600D+00  0.478148D+00
  0.122000D+00  0.501240D+00
   s     1 1.00
  0.122000D+00  0.100000D+01
   p     1 1.00
  0.727000D+00  0.100000D+01
  
 11  0
   s     4 1.00
  0.130100D+02  0.196850D-01
  0.196200D+01  0.137977D+00
  0.444600D+00  0.478148D+00
  0.122000D+00  0.501240D+00
   s     1 1.00
  0.122000D+00  0.100000D+01
   p     1 1.00
  0.727000D+00  0.100000D+01
  
 12  0
   s     4 1.00
  0.130100D+02  0.196850D-01
  0.196200D+01  0.137977D+00
  0.444600D+00  0.478148D+00
  0.122000D+00  0.501240D+00
   s     1 1.00
  0.122000D+00  0.100000D+01
   p     1 1.00
  0.727000D+00  0.100000D+01
  
 13  0
   s     4 1.00
  0.130100D+02  0.196850D-01
  0.196200D+01  0.137977D+00
  0.444600D+00  0.478148D+00
  0.122000D+00  0.501240D+00
   s     1 1.00
  0.122000D+00  0.100000D+01
   p     1 1.00
  0.727000D+00  0.100000D+01
  
 14  0
   s     4 1.00
  0.130100D+02  0.196850D-01
  0.196200D+01  0.137977D+00
  0.444600D+00  0.478148D+00
  0.122000D+00  0.501240D+00
   s     1 1.00
  0.122000D+00  0.100000D+01
   p     1 1.00
  0.727000D+00  0.100000D+01
  
[MO]
 Sym= __1_a__
 Ene=  0.000000000000000E+000
 Spin= Alpha
 Occup=    2.00000000000000     
                     1 -4.876520991245250E-004
                     2  0.998033342776275     
                     3 -3.287103642112410E-002
                     4  1.532921190405630E-003
                     5  4.368274821491800E-003
                     6  1.275800305800530E-002
                     7 -2.594896124849030E-003
                     8  2.489325816326650E-002
                     9 -1.439174974825580E-003
                    10  1.731244660422050E-004
                    11 -1.804481015091660E-003
                    12 -3.721201141252090E-003
                    13  5.824012499445350E-004
                    14 -5.796659292037070E-003
                    15  1.336500619555494E-004
                    16  5.621741695030030E-005
                    17 -3.299209214324690E-005
                    18  5.527881760499140E-005
                    19 -3.368403204944600E-006
                    20  5.748412386780428E-004
                    21  8.336655257036670E-004
                    22 -1.164145661847760E-004
                    23  1.736925602040078E-004
                    24 -8.889938751135621E-005
                    25  4.173900471201681E-005
                    26 -5.105923276694466E-005
                    27  6.918296522438356E-007
                    28  5.217873804654900E-005
                    29  1.792293478825290E-005
                    30  3.372373140012437E-005
                    31 -1.073168060582478E-005
                    32 -3.993839491916310E-004
                    33  5.601587220428330E-004
                    34  2.375379749010260E-004
                    35  1.850657504296000E-004
                    36  1.335526370051800E-003
                    37  1.852683888158440E-004
                    38 -1.228424642125600E-003
                    39 -6.011046123300410E-004
                    40 -8.682731308800650E-005
                    41  5.817665411792670E-004
                    42  2.921602753902630E-003
                    43  2.905895674055690E-004
                    44 -1.724726945477420E-003
                    45  5.668121639271217E-005
                    46 -3.379610602349000E-004
                    47 -1.398879397759300E-005
                    48 -6.608950841965860E-005
                    49  3.650350752340030E-005
                    50  8.996655163641747E-005
                    51  8.644352958364231E-005
                    52 -5.872207273386840E-006
                    53 -8.568563980204940E-005
                    54 -1.528368824401210E-005
                    55  1.098518833165620E-004
                    56 -6.404426729970013E-006
                    57  8.806796321546703E-006
                    58  1.235530716610814E-004
                    59 -1.194111302081910E-006
                    60 -6.588593923211148E-005
                    61 -1.224405349039614E-005
                    62 -8.299128349882270E-004
                    63  3.228662354641120E-004
                    64 -1.663898371959530E-004
                    65  3.066146363312220E-003
                    66 -3.867898707530270E-003
                    67 -2.368648619996530E-004
                    68  1.042655091279860E-003
                    69  6.952696824329620E-004
                    70 -5.346773701961040E-005
                    71  6.185741255867250E-004
                    72  1.492062000560180E-003
                    73  3.248008631021880E-004
                    74 -2.361111044219530E-003
                    75  1.232820809222398E-004
                    76 -8.785254180892850E-005
                    77 -3.072223757868820E-005
                    78  1.881859624428354E-005
                    79  1.168113049694500E-005
                    80  2.065420144773981E-004
                    81 -2.703976295411000E-004
                    82 -4.657788140823400E-005
                    83 -3.936264295466940E-005
                    84  3.011656523506350E-005
                    85 -3.002245469171321E-005
                    86 -1.741380438492516E-004
                    87 -1.445341905892923E-005
                    88  1.888164944769830E-007
                    89  2.255334168511220E-005
                    90 -7.293376836015372E-005
                    91  6.077978766835473E-006
                    92  4.514804060367120E-005
                    93 -7.321957813687740E-004
                    94  3.099348094073080E-004
                    95 -1.266069809210550E-003
                    96 -2.819087641526660E-004
                    97 -1.347875479604050E-004
                    98  1.062232889176620E-003
                    99  7.975212197547900E-005
                   100 -3.121680427056870E-005
                   101  2.814578718807380E-004
                   102 -1.521264831279130E-003
                   103  1.973873152493640E-005
                   104 -5.373417190562599E-004
                   105 -4.330592412054783E-005
                   106 -1.650730953920850E-005
                   107  3.908158904878840E-006
                   108  3.852193228697960E-005
                   109  4.200284253315810E-006
                   110 -3.026888506233763E-005
                   111  2.810752386020020E-004
                   112  2.991943106809940E-005
                   113 -1.252235537860930E-004
                   114 -4.092425781744390E-005
                   115 -3.378922688201524E-005
                   116  2.376105254903851E-005
                   117 -6.643222701289303E-006
                   118 -1.453910296639312E-005
                   119 -3.203248869262050E-006
                   120  1.464548440478033E-005
                   121  8.079508162610098E-007
                   122 -2.913621343957060E-004
                   123 -2.041118288347860E-003
                   124  1.612872200232550E-004
                   125  6.006724743277130E-004
                   126  1.909242861270790E-003
                   127  7.849297582512670E-005
                   128 -1.921969248666910E-004
                   129  4.292781222100800E-004
                   130 -2.753850433516850E-005
                   131  3.359835658252210E-004
                   132  1.076435055394240E-003
                   133 -8.184107470997669E-005
                   134  9.498133437233000E-004
                   135  7.458820168849206E-005
                   136 -2.821455510889270E-005
                   137 -8.136804307351830E-006
                   138 -6.875502598569900E-005
                   139 -6.138183493100990E-007
                   140  2.271887715786247E-004
                   141  1.207208390402200E-004
                   142 -4.049635771459340E-006
                   143 -3.295272621901220E-004
                   144 -3.358939203206650E-005
                   145 -1.117227196211912E-005
                   146 -4.336707199443963E-005
                   147 -7.441075383962417E-006
                   148  1.448127114068792E-005
                   149 -4.235388320613910E-006
                   150 -9.034953542609098E-005
                   151  5.766669500449286E-006
                   152 -1.180574364994100E-004
                   153 -2.576304376420690E-004
                   154 -6.690307078102070E-005
                   155  6.858528177256491E-004
                   156  4.399441862912070E-004
                   157 -6.292489882846790E-007
                   158  1.127742504859110E-004
                   159 -3.544195927519290E-004
                   160 -1.193101321754370E-005
                   161  1.352687625102110E-005
                   162 -4.476609072203090E-004
                   163 -1.334477762089360E-004
                   164  1.010492163443900E-003
                   165 -2.742801913057936E-006
                   166 -1.371946987265060E-005
                   167 -1.820269050158570E-006
                   168  1.637999334084966E-005
                   169  2.597107985328340E-006
                   170 -6.414520870361075E-005
                   171  6.492435281835789E-005
                   172  2.344071208840440E-005
                   173 -6.661001661786400E-005
                   174 -1.170607291196590E-005
                   175 -3.509484246690219E-006
                   176 -1.701654819228188E-005
                   177 -6.200138238863890E-007
                   178 -4.952620920592660E-006
                   179  3.080481517168460E-006
                   180  8.046531317109919E-007
                   181  6.277999592334282E-007
                   182 -1.171973191382360E-004
                   183 -1.622476538465670E-004
                   184  2.366287992615030E-005
                   185  2.386916538564880E-004
                   186 -2.493093763573360E-004
                   187  5.128769797722020E-006
                   188 -1.039562640728250E-004
                   189  1.415330487374740E-004
                   190 -4.325550670690090E-005
                   191  3.975785858528750E-004
                   192 -4.772066513796360E-004
                   193 -1.417230009900040E-004
                   194  1.072715680559660E-003
                   195  3.018485748413625E-005
                   196 -1.209996058656330E-005
                   197 -4.744385369352240E-006
                   198 -1.600444899987908E-005
                   199  5.267730692737070E-007
                   200 -2.595721314649309E-005
                   201 -2.469143665579000E-004
                   202 -2.009917796212180E-006
                   203  3.926267732265220E-007
                   204  2.947799051549060E-005
                   205  8.021407747453821E-007
                   206  3.396110401965021E-006
                   207 -2.415720195842671E-006
                   208  1.406523338471224E-005
                   209 -5.049062891202910E-007
                   210 -4.808446055439497E-006
                   211 -1.659115676475146E-006
                   212 -1.068597710402070E-003
                   213  1.464465170253780E-003
                   214  1.562383260076500E-004
                   215 -2.114639992789230E-005
                   216  2.024685686998440E-004
                   217 -1.068597636136640E-003
                   218  1.464465046338580E-003
                   219  1.561483183841530E-004
                   220 -1.805555745070530E-005
                   221  2.028369018527310E-004
                   222  1.634968522889620E-003
                   223 -1.858077448390910E-003
                   224 -1.961582783614550E-005
                   225 -1.795250301662060E-005
                   226  1.458618246375660E-004
                   227  6.249625748064090E-004
                   228  6.270036327952301E-005
                   229 -2.655916648038850E-005
                   230  1.250099047635360E-005
                   231 -1.113950271370770E-004
                   232  9.047089917641820E-004
                   233 -3.264288082369300E-006
                   234  9.160359446433180E-007
                   235 -6.105509349956990E-006
                   236  5.146067498042930E-005
                   237  1.458870143873820E-004
                   238 -6.122631288008840E-004
                   239 -2.715279507003950E-005
                   240  1.167915180760150E-006
                   241 -1.643604742240000E-005
                   242 -3.795119922217730E-004
                   243  2.409874430206520E-004
                   244  3.583795073739110E-005
                   245  1.600278200816130E-006
                   246 -4.672950082329410E-006
 Sym= __2_a__
 Ene=  0.000000000000000E+000
 Spin= Alpha
 Occup=    2.00000000000000     
                     1 -3.558436431074650E-005
                     2  1.151806461177470E-005
                     3 -4.175042197142550E-004
                     4 -2.310782038525180E-005
                     5  9.242304809743910E-004
                     6  1.595838431193340E-003
                     7 -8.396607044783299E-005
                     8  1.094556865290720E-003
                     9 -1.507422507672880E-004
                    10  8.883405895045289E-006
                    11 -1.113805076982390E-004
                    12  1.377192326705800E-004
                    13  2.146183914029980E-005
                    14 -1.464545334653900E-004
                    15 -4.634401650451673E-005
                    16  2.903454657031800E-005
                    17  4.158219423210250E-006
                    18  5.297598365270740E-005
                    19 -3.896684731326430E-007
                    20  4.934128757658830E-005
                    21 -5.201813155970010E-005
                    22 -2.381421649659480E-005
                    23  9.848676787904620E-005
                    24  1.202646368886690E-005
                    25 -2.495343017548021E-005
                    26  1.244203167776931E-004
                    27  8.757970402141961E-006
                    28 -6.389090235573660E-005
                    29 -1.196395056960580E-005
                    30  1.057220747183537E-004
                    31  2.566132845492041E-007
                    32   1.00083167085150     
                    33  8.555777142307191E-003
                    34  2.843583283711040E-003
                    35 -8.433710112879520E-003
                    36 -1.325254507640160E-003
                    37 -4.502225303273680E-005
                    38  5.400787068871710E-005
                    39  7.363782036335500E-004
                    40  6.993279437946900E-005
                    41 -4.069388700762590E-004
                    42  2.441988785578960E-003
                    43  2.467104675217150E-005
                    44  3.896376728643550E-004
                    45  3.190643760403706E-004
                    46 -1.247688887375550E-005
                    47 -1.047255650388200E-004
                    48  3.100977619453600E-004
                    49  1.992478388313630E-005
                    50 -1.013712321821556E-003
                    51 -3.833691170339970E-004
                    52  2.142117650030110E-004
                    53 -1.111057875412218E-004
                    54  3.850288063176010E-005
                    55 -2.661874313110352E-005
                    56  2.539283549396082E-004
                    57  5.924662557272497E-006
                    58 -3.120255597059760E-005
                    59 -4.007683422088610E-005
                    60  6.996976753151899E-005
                    61 -1.224421841152579E-006
                    62  1.686388082891660E-002
                    63 -1.358519883667640E-003
                    64 -2.889580773965030E-004
                    65  2.749648353252160E-003
                    66 -4.112583701254160E-004
                    67 -6.643846544017420E-005
                    68  4.570553892846080E-004
                    69  2.503275979147720E-005
                    70 -3.347641718613090E-005
                    71  2.870457230109650E-004
                    72  2.043921184605810E-004
                    73  2.182642046523240E-004
                    74 -1.781700890463280E-003
                    75  1.515156667227677E-005
                    76  2.369548694658540E-005
                    77  3.378364261979470E-006
                    78 -4.823685009451780E-005
                    79 -5.649115285454810E-006
                    80 -5.608447547185421E-004
                    81 -3.797980480762240E-004
                    82  7.787851895842009E-006
                    83  8.114864512432880E-004
                    84  9.256491438788450E-005
                    85  3.478705646106064E-005
                    86  1.072208944609760E-004
                    87  1.978868464078331E-005
                    88 -2.970390180158780E-005
                    89 -2.631075678330950E-005
                    90 -2.619778418908507E-005
                    91  7.025365822414670E-006
                    92  1.862612522198910E-002
                    93 -1.751670510786590E-003
                    94 -3.391414346828990E-004
                    95  3.393247186372290E-003
                    96 -2.488381592290340E-004
                    97  2.882565655654000E-005
                    98 -3.027013876929910E-004
                    99 -1.211351558111230E-004
                   100  9.330106033046720E-005
                   101 -8.125671114478560E-004
                   102  3.439411543064500E-004
                   103 -1.646655029238760E-004
                   104  1.465888122034950E-003
                   105  6.361430237226595E-006
                   106 -2.319111376340040E-006
                   107  1.209094136689430E-006
                   108 -2.155825777584660E-005
                   109 -9.840621632736599E-007
                   110 -1.426070972451412E-004
                   111  5.334917922248090E-004
                   112 -2.808429536260250E-005
                   113  6.104967728387220E-004
                   114 -2.794871078817490E-005
                   115 -4.373433039976613E-005
                   116  8.202165409690787E-005
                   117 -1.404591856319889E-005
                   118  1.735927427789362E-005
                   119 -1.874681975783720E-005
                   120 -2.809093933112058E-005
                   121 -7.661177394728054E-008
                   122 -3.113299480199390E-005
                   123 -7.438624056813460E-004
                   124  2.445893731237040E-004
                   125 -4.282564735664030E-004
                   126 -3.330878385761490E-005
                   127  5.894729764989420E-006
                   128 -5.760881532145190E-005
                   129  6.266550875476650E-004
                   130  1.120713734060150E-005
                   131  5.907428004631260E-005
                   132  2.765555065395740E-004
                   133 -4.355826072974540E-005
                   134  4.331118386125840E-004
                   135  2.702621828473691E-006
                   136  3.505480624371060E-005
                   137  5.413855120611930E-006
                   138 -4.071167951837500E-005
                   139 -6.572376447635800E-006
                   140  1.868463794673422E-004
                   141 -2.968968263139830E-004
                   142 -2.135713464568220E-005
                   143 -2.201414784891160E-004
                   144  2.265409157292410E-005
                   145 -7.998273646079453E-006
                   146  1.156950446023843E-005
                   147 -1.849606198643026E-006
                   148 -8.933394690818821E-007
                   149 -5.141733311440140E-006
                   150 -1.938899420916577E-005
                   151  1.852020250570133E-006
                   152  4.625066716214700E-005
                   153 -7.578264436955230E-004
                   154  2.284649816162260E-004
                   155 -1.288804338914960E-004
                   156 -9.641965693801650E-005
                   157 -7.650035061872481E-006
                   158  4.064017779843440E-005
                   159  4.740859277803740E-004
                   160  1.497690699839080E-005