[Molden Format]
[Atoms] AU
  N     1    7     0.0000000000   -4.2907334100    0.0000000000        
  C     2    6     0.0000000000   -1.7772236300    0.0000000000        
  C     3    6    -2.3389203600   -0.4111016300    0.0000000000        
  C     4    6     2.3389203600   -0.4111016300    0.0000000000        
  C     5    6    -2.2998668500    2.1639215300    0.0000000000        
  C     6    6     2.2998668500    2.1639215300    0.0000000000        
  C     7    6     0.0000000000    3.4755251800    0.0000000000        
  H     8    1    -2.5732809600   -5.8782318000    0.0000000000        
  H     9    1     1.9299607200   -5.4813572000    0.0000000000        
  H    10    1    -4.0745407300   -1.4447408500    0.0000000000        
  H    11    1     4.0745407300   -1.4447408500    0.0000000000        
  H    12    1    -4.0420632100    3.1963889500    0.0000000000        
  H    13    1     4.0420632100    3.1963889500    0.0000000000        
  H    14    1     0.0000000000    5.5020335600    0.0000000000        
[5D]
[7F]
[GTO]
  1  0
   s    12 1.00
  0.114200D+05  0.172695D-04
  0.171200D+04  0.134411D-03
  0.389300D+03  0.694561D-03
  0.110000D+03  0.278531D-02
  0.355700D+02  0.863457D-02
  0.125400D+02  0.199805D-01
  0.464400D+01  0.262908D-01
  0.129300D+01 -0.243845D-01
  0.511800D+00 -0.924934D-01
  0.178700D+00 -0.339683D+00
  0.246240D-01  0.345111D+00
  0.112530D-01  0.752750D+00
   s    10 1.00
  0.114200D+05  0.523000D-03
  0.171200D+04  0.404500D-02
  0.389300D+03  0.207750D-01
  0.110000D+03  0.807269D-01
  0.355700D+02  0.233074D+00
  0.125400D+02  0.433501D+00
  0.464400D+01  0.347472D+00
  0.129300D+01  0.412620D-01
  0.511800D+00 -0.850799D-02
  0.178700D+00  0.238400D-02
   s    10 1.00
  0.114200D+05 -0.115000D-03
  0.171200D+04 -0.895000D-03
  0.389300D+03 -0.462400D-02
  0.110000D+03 -0.185280D-01
  0.355700D+02 -0.573390D-01
  0.125400D+02 -0.132076D+00
  0.464400D+01 -0.172510D+00
  0.129300D+01  0.151814D+00
  0.511800D+00  0.599944D+00
  0.178700D+00  0.387462D+00
   s     1 1.00
  0.129300D+01  0.100000D+01
   s     1 1.00
  0.178700D+00  0.100000D+01
   p     5 1.00
  0.266300D+02  0.146700D-01
  0.594800D+01  0.917640D-01
  0.174200D+01  0.298683D+00
  0.555000D+00  0.498487D+00
  0.172500D+00  0.337023D+00
   p     1 1.00
  0.174200D+01  0.100000D+01
   p     1 1.00
  0.555000D+00  0.100000D+01
   d     1 1.00
  0.165400D+01  0.100000D+01
   d     1 1.00
  0.469000D+00  0.100000D+01
   f     1 1.00
  0.109300D+01  0.100000D+01
  
  2  0
   s    10 1.00
  0.823600D+04  0.531000D-03
  0.123500D+04  0.410800D-02
  0.280800D+03  0.210870D-01
  0.792700D+02  0.818530D-01
  0.255900D+02  0.234817D+00
  0.899700D+01  0.434401D+00
  0.331900D+01  0.346129D+00
  0.905900D+00  0.393780D-01
  0.364300D+00 -0.898300D-02
  0.128500D+00  0.238500D-02
   s    10 1.00
  0.823600D+04 -0.113000D-03
  0.123500D+04 -0.878000D-03
  0.280800D+03 -0.454000D-02
  0.792700D+02 -0.181330D-01
  0.255900D+02 -0.557600D-01
  0.899700D+01 -0.126895D+00
  0.331900D+01 -0.170352D+00
  0.905900D+00  0.140382D+00
  0.364300D+00  0.598684D+00
  0.128500D+00  0.395389D+00
   s     1 1.00
  0.905900D+00  0.100000D+01
   s     1 1.00
  0.364300D+00  0.100000D+01
   p     5 1.00
  0.187100D+02  0.140310D-01
  0.413300D+01  0.868660D-01
  0.120000D+01  0.290216D+00
  0.382700D+00  0.501008D+00
  0.120900D+00  0.343406D+00
   p     1 1.00
  0.382700D+00  0.100000D+01
   p     1 1.00
  0.120900D+00  0.100000D+01
   d     1 1.00
  0.109700D+01  0.100000D+01
   d     1 1.00
  0.318000D+00  0.100000D+01
   f     1 1.00
  0.761000D+00  0.100000D+01
  
  3  0
   s    10 1.00
  0.823600D+04  0.531000D-03
  0.123500D+04  0.410800D-02
  0.280800D+03  0.210870D-01
  0.792700D+02  0.818530D-01
  0.255900D+02  0.234817D+00
  0.899700D+01  0.434401D+00
  0.331900D+01  0.346129D+00
  0.905900D+00  0.393780D-01
  0.364300D+00 -0.898300D-02
  0.128500D+00  0.238500D-02
   s    10 1.00
  0.823600D+04 -0.113000D-03
  0.123500D+04 -0.878000D-03
  0.280800D+03 -0.454000D-02
  0.792700D+02 -0.181330D-01
  0.255900D+02 -0.557600D-01
  0.899700D+01 -0.126895D+00
  0.331900D+01 -0.170352D+00
  0.905900D+00  0.140382D+00
  0.364300D+00  0.598684D+00
  0.128500D+00  0.395389D+00
   s     1 1.00
  0.905900D+00  0.100000D+01
   s     1 1.00
  0.364300D+00  0.100000D+01
   p     5 1.00
  0.187100D+02  0.140310D-01
  0.413300D+01  0.868660D-01
  0.120000D+01  0.290216D+00
  0.382700D+00  0.501008D+00
  0.120900D+00  0.343406D+00
   p     1 1.00
  0.382700D+00  0.100000D+01
   p     1 1.00
  0.120900D+00  0.100000D+01
   d     1 1.00
  0.109700D+01  0.100000D+01
   d     1 1.00
  0.318000D+00  0.100000D+01
   f     1 1.00
  0.761000D+00  0.100000D+01
  
  4  0
   s    10 1.00
  0.823600D+04  0.531000D-03
  0.123500D+04  0.410800D-02
  0.280800D+03  0.210870D-01
  0.792700D+02  0.818530D-01
  0.255900D+02  0.234817D+00
  0.899700D+01  0.434401D+00
  0.331900D+01  0.346129D+00
  0.905900D+00  0.393780D-01
  0.364300D+00 -0.898300D-02
  0.128500D+00  0.238500D-02
   s    10 1.00
  0.823600D+04 -0.113000D-03
  0.123500D+04 -0.878000D-03
  0.280800D+03 -0.454000D-02
  0.792700D+02 -0.181330D-01
  0.255900D+02 -0.557600D-01
  0.899700D+01 -0.126895D+00
  0.331900D+01 -0.170352D+00
  0.905900D+00  0.140382D+00
  0.364300D+00  0.598684D+00
  0.128500D+00  0.395389D+00
   s     1 1.00
  0.905900D+00  0.100000D+01
   s     1 1.00
  0.364300D+00  0.100000D+01
   p     5 1.00
  0.187100D+02  0.140310D-01
  0.413300D+01  0.868660D-01
  0.120000D+01  0.290216D+00
  0.382700D+00  0.501008D+00
  0.120900D+00  0.343406D+00
   p     1 1.00
  0.382700D+00  0.100000D+01
   p     1 1.00
  0.120900D+00  0.100000D+01
   d     1 1.00
  0.109700D+01  0.100000D+01
   d     1 1.00
  0.318000D+00  0.100000D+01
   f     1 1.00
  0.761000D+00  0.100000D+01
  
  5  0
   s    10 1.00
  0.823600D+04  0.531000D-03
  0.123500D+04  0.410800D-02
  0.280800D+03  0.210870D-01
  0.792700D+02  0.818530D-01
  0.255900D+02  0.234817D+00
  0.899700D+01  0.434401D+00
  0.331900D+01  0.346129D+00
  0.905900D+00  0.393780D-01
  0.364300D+00 -0.898300D-02
  0.128500D+00  0.238500D-02
   s    10 1.00
  0.823600D+04 -0.113000D-03
  0.123500D+04 -0.878000D-03
  0.280800D+03 -0.454000D-02
  0.792700D+02 -0.181330D-01
  0.255900D+02 -0.557600D-01
  0.899700D+01 -0.126895D+00
  0.331900D+01 -0.170352D+00
  0.905900D+00  0.140382D+00
  0.364300D+00  0.598684D+00
  0.128500D+00  0.395389D+00
   s     1 1.00
  0.905900D+00  0.100000D+01
   s     1 1.00
  0.364300D+00  0.100000D+01
   p     5 1.00
  0.187100D+02  0.140310D-01
  0.413300D+01  0.868660D-01
  0.120000D+01  0.290216D+00
  0.382700D+00  0.501008D+00
  0.120900D+00  0.343406D+00
   p     1 1.00
  0.382700D+00  0.100000D+01
   p     1 1.00
  0.120900D+00  0.100000D+01
   d     1 1.00
  0.109700D+01  0.100000D+01
   d     1 1.00
  0.318000D+00  0.100000D+01
   f     1 1.00
  0.761000D+00  0.100000D+01
  
  6  0
   s    10 1.00
  0.823600D+04  0.531000D-03
  0.123500D+04  0.410800D-02
  0.280800D+03  0.210870D-01
  0.792700D+02  0.818530D-01
  0.255900D+02  0.234817D+00
  0.899700D+01  0.434401D+00
  0.331900D+01  0.346129D+00
  0.905900D+00  0.393780D-01
  0.364300D+00 -0.898300D-02
  0.128500D+00  0.238500D-02
   s    10 1.00
  0.823600D+04 -0.113000D-03
  0.123500D+04 -0.878000D-03
  0.280800D+03 -0.454000D-02
  0.792700D+02 -0.181330D-01
  0.255900D+02 -0.557600D-01
  0.899700D+01 -0.126895D+00
  0.331900D+01 -0.170352D+00
  0.905900D+00  0.140382D+00
  0.364300D+00  0.598684D+00
  0.128500D+00  0.395389D+00
   s     1 1.00
  0.905900D+00  0.100000D+01
   s     1 1.00
  0.364300D+00  0.100000D+01
   p     5 1.00
  0.187100D+02  0.140310D-01
  0.413300D+01  0.868660D-01
  0.120000D+01  0.290216D+00
  0.382700D+00  0.501008D+00
  0.120900D+00  0.343406D+00
   p     1 1.00
  0.382700D+00  0.100000D+01
   p     1 1.00
  0.120900D+00  0.100000D+01
   d     1 1.00
  0.109700D+01  0.100000D+01
   d     1 1.00
  0.318000D+00  0.100000D+01
   f     1 1.00
  0.761000D+00  0.100000D+01
  
  7  0
   s    10 1.00
  0.823600D+04  0.531000D-03
  0.123500D+04  0.410800D-02
  0.280800D+03  0.210870D-01
  0.792700D+02  0.818530D-01
  0.255900D+02  0.234817D+00
  0.899700D+01  0.434401D+00
  0.331900D+01  0.346129D+00
  0.905900D+00  0.393780D-01
  0.364300D+00 -0.898300D-02
  0.128500D+00  0.238500D-02
   s    10 1.00
  0.823600D+04 -0.113000D-03
  0.123500D+04 -0.878000D-03
  0.280800D+03 -0.454000D-02
  0.792700D+02 -0.181330D-01
  0.255900D+02 -0.557600D-01
  0.899700D+01 -0.126895D+00
  0.331900D+01 -0.170352D+00
  0.905900D+00  0.140382D+00
  0.364300D+00  0.598684D+00
  0.128500D+00  0.395389D+00
   s     1 1.00
  0.905900D+00  0.100000D+01
   s     1 1.00
  0.364300D+00  0.100000D+01
   p     5 1.00
  0.187100D+02  0.140310D-01
  0.413300D+01  0.868660D-01
  0.120000D+01  0.290216D+00
  0.382700D+00  0.501008D+00
  0.120900D+00  0.343406D+00
   p     1 1.00
  0.382700D+00  0.100000D+01
   p     1 1.00
  0.120900D+00  0.100000D+01
   d     1 1.00
  0.109700D+01  0.100000D+01
   d     1 1.00
  0.318000D+00  0.100000D+01
   f     1 1.00
  0.761000D+00  0.100000D+01
  
  8  0
   s     4 1.00
  0.130100D+02  0.196850D-01
  0.196200D+01  0.137977D+00
  0.444600D+00  0.478148D+00
  0.122000D+00  0.501240D+00
   s     1 1.00
  0.122000D+00  0.100000D+01
   p     1 1.00
  0.727000D+00  0.100000D+01
  
  9  0
   s     4 1.00
  0.130100D+02  0.196850D-01
  0.196200D+01  0.137977D+00
  0.444600D+00  0.478148D+00
  0.122000D+00  0.501240D+00
   s     1 1.00
  0.122000D+00  0.100000D+01
   p     1 1.00
  0.727000D+00  0.100000D+01
  
 10  0
   s     4 1.00
  0.130100D+02  0.196850D-01
  0.196200D+01  0.137977D+00
  0.444600D+00  0.478148D+00
  0.122000D+00  0.501240D+00
   s     1 1.00
  0.122000D+00  0.100000D+01
   p     1 1.00
  0.727000D+00  0.100000D+01
  
 11  0
   s     4 1.00
  0.130100D+02  0.196850D-01
  0.196200D+01  0.137977D+00
  0.444600D+00  0.478148D+00
  0.122000D+00  0.501240D+00
   s     1 1.00
  0.122000D+00  0.100000D+01
   p     1 1.00
  0.727000D+00  0.100000D+01
  
 12  0
   s     4 1.00
  0.130100D+02  0.196850D-01
  0.196200D+01  0.137977D+00
  0.444600D+00  0.478148D+00
  0.122000D+00  0.501240D+00
   s     1 1.00
  0.122000D+00  0.100000D+01
   p     1 1.00
  0.727000D+00  0.100000D+01
  
 13  0
   s     4 1.00
  0.130100D+02  0.196850D-01
  0.196200D+01  0.137977D+00
  0.444600D+00  0.478148D+00
  0.122000D+00  0.501240D+00
   s     1 1.00
  0.122000D+00  0.100000D+01
   p     1 1.00
  0.727000D+00  0.100000D+01
  
 14  0
   s     4 1.00
  0.130100D+02  0.196850D-01
  0.196200D+01  0.137977D+00
  0.444600D+00  0.478148D+00
  0.122000D+00  0.501240D+00
   s     1 1.00
  0.122000D+00  0.100000D+01
   p     1 1.00
  0.727000D+00  0.100000D+01
  
[MO]
 Sym= __1_A'_
 Ene=   1.00000000000000     
 Spin= Alpha
 Occup=    1.00000000000000     
                     1  4.820921835799982E-005
                     2  0.998614149969262     
                     3  1.789868161114324E-003
                     4  1.480612619466330E-003
                     5  4.534923755609552E-003
                     6  3.267912943097061E-003
                     7  6.002677735427893E-003
                     8  0.000000000000000E+000
                     9 -7.373306183335986E-004
                    10 -4.501637656781597E-004
                    11  0.000000000000000E+000
                    12 -2.309361341227847E-003
                    13 -1.600135405463565E-003
                    14  0.000000000000000E+000
                    15 -8.042765828056734E-005
                    16  0.000000000000000E+000
                    17  0.000000000000000E+000
                    18 -2.313030635184284E-004
                    19 -4.139918824967206E-005
                    20  2.120994804956977E-004
                    21  0.000000000000000E+000
                    22  0.000000000000000E+000
                    23 -2.239744721073880E-004
                    24  5.141593959525525E-004
                    25  0.000000000000000E+000
                    26  6.249945538483202E-006
                    27 -5.557221775473375E-005
                    28  0.000000000000000E+000
                    29  0.000000000000000E+000
                    30  2.502460311773958E-005
                    31 -9.805620761628695E-005
                    32 -2.938060146331929E-004
                    33  1.371874761061723E-003
                    34  2.319639822080488E-004
                    35 -2.413620078237379E-004
                    36 -1.656003492353866E-004
                    37 -4.528026968149455E-003
                    38  0.000000000000000E+000
                    39  5.304185142123330E-004
                    40  1.143907296159123E-004
                    41  0.000000000000000E+000
                    42 -2.200862144485156E-003
                    43  5.189798493175204E-003
                    44  0.000000000000000E+000
                    45 -2.494151812403244E-005
                    46  0.000000000000000E+000
                    47  0.000000000000000E+000
                    48 -2.372820945777770E-004
                    49 -9.231418533200009E-006
                    50 -2.777699491139813E-004
                    51  0.000000000000000E+000
                    52  0.000000000000000E+000
                    53 -6.598907948226748E-006
                    54  7.854818330404222E-004
                    55  0.000000000000000E+000
                    56 -1.572578669430227E-005
                    57 -4.096885928213323E-005
                    58  0.000000000000000E+000
                    59  0.000000000000000E+000
                    60 -8.766194666591442E-006
                    61 -1.128761610832136E-004
                    62 -4.852115001286614E-004
                    63 -2.191281613231885E-003
                    64 -9.485029180343295E-005
                    65  2.071616790307502E-003
                    66 -6.615423536322910E-004
                    67  4.514548016198973E-004
                    68  0.000000000000000E+000
                    69  4.579428077060044E-004
                    70  7.667562059690277E-004
                    71  0.000000000000000E+000
                    72 -1.658972273849297E-003
                    73  7.169958759679692E-004
                    74  0.000000000000000E+000
                    75 -4.070027962014632E-005
                    76  0.000000000000000E+000
                    77  0.000000000000000E+000
                    78 -8.013895253362512E-005
                    79 -3.036063521624411E-005
                    80 -1.494114728457771E-004
                    81  0.000000000000000E+000
                    82  0.000000000000000E+000
                    83  8.739854485303210E-005
                    84  7.051079959646979E-005
                    85  0.000000000000000E+000
                    86  7.762806472970487E-006
                    87 -4.530468522621210E-005
                    88  0.000000000000000E+000
                    89  0.000000000000000E+000
                    90 -1.632421050031247E-005
                    91 -1.520478292320748E-004
                    92 -1.131259710813441E-004
                    93 -9.013619605556024E-004
                    94  2.061468490890762E-004
                    95 -3.507540715590991E-004
                    96  5.180699626430730E-004
                    97  5.930155415070634E-004
                    98  0.000000000000000E+000
                    99  4.272100300021937E-004
                   100  2.900129520968280E-004
                   101  0.000000000000000E+000
                   102  4.845028025266220E-004
                   103 -1.367780963315503E-003
                   104  0.000000000000000E+000
                   105 -3.690366619409998E-006
                   106  0.000000000000000E+000
                   107  0.000000000000000E+000
                   108 -6.062277778318542E-005
                   109 -1.859263049489288E-005
                   110  1.372598993970516E-004
                   111  0.000000000000000E+000
                   112  0.000000000000000E+000
                   113 -1.346991993777005E-004
                   114 -4.014237086991742E-005
                   115  0.000000000000000E+000
                   116 -2.509508990082125E-005
                   117 -3.186358097270818E-005
                   118  0.000000000000000E+000
                   119  0.000000000000000E+000
                   120  1.681146004946911E-005
                   121 -2.536550496649074E-005
                   122 -2.632223212066638E-004
                   123 -5.470373752096786E-004
                   124  1.698242865752338E-004
                   125  3.779503850430639E-004
                   126 -1.249259998831360E-005
                   127 -5.167631576239503E-004
                   128  0.000000000000000E+000
                   129  1.978424026589823E-004
                   130  5.913743641438889E-004
                   131  0.000000000000000E+000
                   132  3.284894232799291E-004
                   133  1.939943029822825E-003
                   134  0.000000000000000E+000
                   135  1.152975975614806E-005
                   136  0.000000000000000E+000
                   137  0.000000000000000E+000
                   138  4.352342378562950E-005
                   139  7.324179553299772E-008
                   140  2.014063797143476E-004
                   141  0.000000000000000E+000
                   142  0.000000000000000E+000
                   143  3.439841104811482E-004
                   144  2.438793853399204E-004
                   145  0.000000000000000E+000
                   146 -8.586143913000879E-006
                   147 -5.945497393444302E-005
                   148  0.000000000000000E+000
                   149  0.000000000000000E+000
                   150 -1.895386107837153E-005
                   151 -4.766997934645173E-005
                   152 -1.748132233330344E-004
                   153 -2.818612779763540E-004
                   154  3.505660779933756E-005
                   155  3.857016062629471E-004
                   156 -2.637988488523938E-005
                   157 -4.386249152864924E-004
                   158  0.000000000000000E+000
                   159  8.354073464824447E-006
                   160  4.517963401027532E-005
                   161  0.000000000000000E+000
                   162  6.862818047525262E-004
                   163 -2.610062766568871E-004
                   164  0.000000000000000E+000
                   165 -2.655011884566406E-006
                   166  0.000000000000000E+000
                   167  0.000000000000000E+000
                   168 -6.576442287168508E-006
                   169  5.598451605990011E-006
                   170  5.439256712075605E-005
                   171  0.000000000000000E+000
                   172  0.000000000000000E+000
                   173  8.063555777993882E-006
                   174 -2.544030047814545E-005
                   175  0.000000000000000E+000
                   176  4.861620158331166E-006
                   177 -7.580046631135843E-006
                   178  0.000000000000000E+000
                   179  0.000000000000000E+000
                   180 -2.445630431546325E-005
                   181 -7.172179743248323E-006
                   182 -1.622433249896579E-004
                   183 -4.606720580764859E-004
                   184  4.950963940783238E-005
                   185  2.333442614455007E-004
                   186 -3.703978718054043E-005
                   187 -5.386147841076063E-005
                   188  0.000000000000000E+000
                   189  1.927709734903416E-004
                   190  5.968006344770121E-005
                   191  0.000000000000000E+000
                   192  1.237680664685506E-003
                   193 -1.374214141016562E-004
                   194  0.000000000000000E+000
                   195 -1.531615235130962E-006
                   196  0.000000000000000E+000
                   197  0.000000000000000E+000
                   198 -1.389012827560243E-005
                   199  6.912245088436095E-006
                   200  2.494086987008324E-005
                   201  0.000000000000000E+000
                   202  0.000000000000000E+000
                   203 -8.148157462635963E-005
                   204 -1.732761177718411E-004
                   205  0.000000000000000E+000
                   206 -5.283001813696063E-006
                   207 -6.217260077424413E-006
                   208  0.000000000000000E+000
                   209  0.000000000000000E+000
                   210  1.033234788732610E-005
                   211 -2.889322790947774E-006
                   212  4.612390055816307E-005
                   213  4.472323193357450E-005
                   214  1.294296387820760E-004
                   215  1.350441415557904E-004
                   216  0.000000000000000E+000
                   217  2.483145801817832E-004
                   218 -8.412992753515755E-004
                   219 -3.727835679297964E-004
                   220  1.947698788305856E-004
                   221  0.000000000000000E+000
                   222 -4.121146183265260E-004
                   223 -6.157879655494310E-004
                   224  4.416884407168854E-006
                   225 -6.738558245394448E-005
                   226  0.000000000000000E+000
                   227 -2.226821708702517E-004
                   228 -4.700431852930649E-004
                   229 -4.004533986757306E-006
                   230 -1.417973785660744E-005
                   231  0.000000000000000E+000
                   232 -6.069793048277172E-005
                   233 -5.554773414235704E-004
                   234  6.652167041048014E-006
                   235 -3.683613594967131E-006
                   236  0.000000000000000E+000
                   237 -1.542167670234176E-004
                   238 -3.806778962896359E-004
                   239  7.149998833322010E-006
                   240  3.134053326568517E-006
                   241  0.000000000000000E+000
                   242  1.580037018691003E-005
                   243 -4.349423591545684E-005
                   244 -2.819663898016291E-007
                   245  2.033911931933876E-005
                   246  0.000000000000000E+000
 Sym= __2_A'_
 Ene=   2.00000000000000     
 Spin= Alpha
 Occup=    1.00000000000000     
                     1 -5.216889282640692E-005
                     2 -3.449727854741716E-004
                     3  2.872446699079180E-003
                     4  1.603860636687423E-004
                     5  1.330825733783120E-003
                     6 -2.098502994242465E-004
                     7  2.942896550924800E-003
                     8  0.000000000000000E+000
                     9 -4.540600700839444E-005
                    10 -1.129141254714728E-004
                    11  0.000000000000000E+000
                    12  6.111542107345489E-005
                    13 -4.166563526889319E-004
                    14  0.000000000000000E+000
                    15  3.448471113361702E-005
                    16  0.000000000000000E+000
                    17  0.000000000000000E+000
                    18 -5.091119245351078E-005
                    19  8.873866684085587E-006
                    20 -1.201244715312181E-004
                    21  0.000000000000000E+000
                    22  0.000000000000000E+000
                    23  1.502291415395665E-004
                    24 -7.277285155533315E-006
                    25  0.000000000000000E+000
                    26 -1.233677596164742E-005
                    27  8.961476341385751E-005
                    28  0.000000000000000E+000
                    29  0.000000000000000E+000
                    30 -1.028087357735930E-005
                    31  1.481932404931368E-004
                    32   1.00101880405860     
                    33  9.310824739707459E-003
                    34  2.731452420898013E-003
                    35 -8.114210031725726E-003
                    36 -1.096196038642796E-004
                    37 -3.633459148009452E-003
                    38  0.000000000000000E+000
                    39  1.349806039575913E-004
                    40  4.910548077235166E-004
                    41  0.000000000000000E+000
                    42  3.700262463492520E-005
                    43  4.230118632970651E-003
                    44  0.000000000000000E+000
                    45 -5.705831559017881E-004
                    46  0.000000000000000E+000
                    47  0.000000000000000E+000
                    48 -2.002187045945954E-004
                    49 -2.423928719526291E-006
                    50  5.489998643118385E-004
                    51  0.000000000000000E+000
                    52  0.000000000000000E+000
                    53 -8.954785810664172E-004
                    54  5.213256909049131E-005
                    55  0.000000000000000E+000
                    56 -4.755885040791916E-006
                    57  9.297973747978535E-005
                    58  0.000000000000000E+000
                    59  0.000000000000000E+000
                    60  3.372064166419718E-006
                    61  4.015763162376168E-004
                    62  9.120241975153045E-003
                    63 -2.090031847524343E-003
                    64 -2.954934883498329E-004
                    65  3.075178361304434E-003
                    66 -1.807773800536334E-005
                    67  1.056073568674453E-004
                    68  0.000000000000000E+000
                    69  7.316816351041953E-004
                    70 -8.215407220865584E-006
                    71  0.000000000000000E+000
                    72 -2.052301326751866E-003
                    73  7.607943464549760E-005
                    74  0.000000000000000E+000
                    75  2.652038194271406E-005
                    76  0.000000000000000E+000
                    77  0.000000000000000E+000
                    78 -2.510614935059192E-006
                    79  1.976565044192152E-006
                    80 -4.106745205106747E-004
                    81  0.000000000000000E+000
                    82  0.000000000000000E+000
                    83 -5.852730239137258E-004
                    84 -3.783541016270158E-004
                    85  0.000000000000000E+000
                    86  3.284866472511743E-005
                    87 -5.860111777234219E-005
                    88  0.000000000000000E+000
                    89  0.000000000000000E+000
                    90  5.180276393422376E-005
                    91  1.406119247831890E-004
                    92  9.685309786258358E-003
                    93 -2.066364982943963E-003
                    94 -2.790513120845458E-004
                    95  3.013404026458724E-003
                    96  3.525158557040238E-006
                    97  7.567635916748330E-005
                    98  0.000000000000000E+000
                    99 -6.572040221581201E-004
                   100  5.219817576476633E-005
                   101  0.000000000000000E+000
                   102  2.042406228292509E-003
                   103  6.702750298921726E-005
                   104  0.000000000000000E+000
                   105  3.082247073615390E-005
                   106  0.000000000000000E+000
                   107  0.000000000000000E+000
                   108 -4.927117942647276E-006
                   109 -7.524021969915417E-006
                   110 -4.093596224291286E-004
                   111  0.000000000000000E+000
                   112  0.000000000000000E+000
                   113 -6.152815264844767E-004
                   114  3.639535821202078E-004
                   115  0.000000000000000E+000
                   116 -3.261679103579641E-005
                   117 -5.954244662127696E-005
                   118  0.000000000000000E+000
                   119  0.000000000000000E+000
                   120 -5.003264138162587E-005
                   121  1.376823345615770E-004
                   122 -1.599430493673921E-004
                   123 -6.772042886655540E-004
                   124  2.247799289358444E-004
                   125 -1.037058016993112E-004
                   126 -2.381663454652710E-006
                   127 -3.351077883045991E-004
                   128  0.000000000000000E+000
                   129 -6.100641740539897E-005
                   130  5.348454626926004E-004
                   131  0.000000000000000E+000
                   132  3.201988766142509E-004
                   133  7.571253578896112E-004
                   134  0.000000000000000E+000
                   135  1.873694491789811E-005
                   136  0.000000000000000E+000
                   137  0.000000000000000E+000
                   138  3.603182671063742E-006
                   139  5.281248963830807E-005
                   140  1.362676235647027E-004
                   141  0.000000000000000E+000
                   142  0.000000000000000E+000
                   143  2.416296290806362E-004
                   144 -1.827587721202424E-004
                   145  0.000000000000000E+000
                   146  7.160718291960991E-006
                   147 -3.345956137174653E-005
                   148  0.000000000000000E+000
                   149  0.000000000000000E+000
                   150 -4.756031044536203E-005
                   151  2.859230783869724E-005
                   152 -1.429460930410100E-004
                   153 -6.822257557059058E-004
                   154  2.293365245621706E-004
                   155 -1.333837332327539E-004
                   156  1.955376964975024E-006
                   157 -3.289499225424479E-004
                   158  0.000000000000000E+000
                   159  4.763456676105695E-005
                   160  5.622482610689962E-004