[Molden Format]
[Atoms] AU
  N     1    7    -0.1306972600   -4.3531317600    0.0000000000        
  C     2    6     0.0192185400   -1.8113074100    0.0000000000        
  C     3    6    -2.2981157500   -0.4175575400    0.0000000000        
  C     4    6     2.3310671500   -0.3919889300    0.0000000000        
  C     5    6    -2.2765273800    2.1629043100    0.0000000000        
  C     6    6     2.3042912800    2.1831071000    0.0000000000        
  C     7    6     0.0134819000    3.4922023300    0.0000000000        
  H     8    1    -4.6489369300   -7.7773242200    0.0000000000        
  H     9    1     1.6694059600   -5.1100380000    0.0000000000        
  H    10    1    -4.0368041300   -1.4558844400    0.0000000000        
  H    11    1     4.0904987200   -1.4046937000    0.0000000000        
  H    12    1    -4.0250703300    3.1927386600    0.0000000000        
  H    13    1     4.0467821300    3.2236651900    0.0000000000        
  H    14    1     0.0052225300    5.5203983600    0.0000000000        
[5D]
[7F]
[GTO]
  1  0
   s    12 1.00
  0.114200D+05  0.172695D-04
  0.171200D+04  0.134411D-03
  0.389300D+03  0.694561D-03
  0.110000D+03  0.278531D-02
  0.355700D+02  0.863457D-02
  0.125400D+02  0.199805D-01
  0.464400D+01  0.262908D-01
  0.129300D+01 -0.243845D-01
  0.511800D+00 -0.924934D-01
  0.178700D+00 -0.339683D+00
  0.246240D-01  0.345111D+00
  0.112530D-01  0.752750D+00
   s    10 1.00
  0.114200D+05  0.523000D-03
  0.171200D+04  0.404500D-02
  0.389300D+03  0.207750D-01
  0.110000D+03  0.807269D-01
  0.355700D+02  0.233074D+00
  0.125400D+02  0.433501D+00
  0.464400D+01  0.347472D+00
  0.129300D+01  0.412620D-01
  0.511800D+00 -0.850799D-02
  0.178700D+00  0.238400D-02
   s    10 1.00
  0.114200D+05 -0.115000D-03
  0.171200D+04 -0.895000D-03
  0.389300D+03 -0.462400D-02
  0.110000D+03 -0.185280D-01
  0.355700D+02 -0.573390D-01
  0.125400D+02 -0.132076D+00
  0.464400D+01 -0.172510D+00
  0.129300D+01  0.151814D+00
  0.511800D+00  0.599944D+00
  0.178700D+00  0.387462D+00
   s     1 1.00
  0.129300D+01  0.100000D+01
   s     1 1.00
  0.178700D+00  0.100000D+01
   p     5 1.00
  0.266300D+02  0.146700D-01
  0.594800D+01  0.917640D-01
  0.174200D+01  0.298683D+00
  0.555000D+00  0.498487D+00
  0.172500D+00  0.337023D+00
   p     1 1.00
  0.174200D+01  0.100000D+01
   p     1 1.00
  0.555000D+00  0.100000D+01
   d     1 1.00
  0.165400D+01  0.100000D+01
   d     1 1.00
  0.469000D+00  0.100000D+01
   f     1 1.00
  0.109300D+01  0.100000D+01
  
  2  0
   s    10 1.00
  0.823600D+04  0.531000D-03
  0.123500D+04  0.410800D-02
  0.280800D+03  0.210870D-01
  0.792700D+02  0.818530D-01
  0.255900D+02  0.234817D+00
  0.899700D+01  0.434401D+00
  0.331900D+01  0.346129D+00
  0.905900D+00  0.393780D-01
  0.364300D+00 -0.898300D-02
  0.128500D+00  0.238500D-02
   s    10 1.00
  0.823600D+04 -0.113000D-03
  0.123500D+04 -0.878000D-03
  0.280800D+03 -0.454000D-02
  0.792700D+02 -0.181330D-01
  0.255900D+02 -0.557600D-01
  0.899700D+01 -0.126895D+00
  0.331900D+01 -0.170352D+00
  0.905900D+00  0.140382D+00
  0.364300D+00  0.598684D+00
  0.128500D+00  0.395389D+00
   s     1 1.00
  0.905900D+00  0.100000D+01
   s     1 1.00
  0.364300D+00  0.100000D+01
   p     5 1.00
  0.187100D+02  0.140310D-01
  0.413300D+01  0.868660D-01
  0.120000D+01  0.290216D+00
  0.382700D+00  0.501008D+00
  0.120900D+00  0.343406D+00
   p     1 1.00
  0.382700D+00  0.100000D+01
   p     1 1.00
  0.120900D+00  0.100000D+01
   d     1 1.00
  0.109700D+01  0.100000D+01
   d     1 1.00
  0.318000D+00  0.100000D+01
   f     1 1.00
  0.761000D+00  0.100000D+01
  
  3  0
   s    10 1.00
  0.823600D+04  0.531000D-03
  0.123500D+04  0.410800D-02
  0.280800D+03  0.210870D-01
  0.792700D+02  0.818530D-01
  0.255900D+02  0.234817D+00
  0.899700D+01  0.434401D+00
  0.331900D+01  0.346129D+00
  0.905900D+00  0.393780D-01
  0.364300D+00 -0.898300D-02
  0.128500D+00  0.238500D-02
   s    10 1.00
  0.823600D+04 -0.113000D-03
  0.123500D+04 -0.878000D-03
  0.280800D+03 -0.454000D-02
  0.792700D+02 -0.181330D-01
  0.255900D+02 -0.557600D-01
  0.899700D+01 -0.126895D+00
  0.331900D+01 -0.170352D+00
  0.905900D+00  0.140382D+00
  0.364300D+00  0.598684D+00
  0.128500D+00  0.395389D+00
   s     1 1.00
  0.905900D+00  0.100000D+01
   s     1 1.00
  0.364300D+00  0.100000D+01
   p     5 1.00
  0.187100D+02  0.140310D-01
  0.413300D+01  0.868660D-01
  0.120000D+01  0.290216D+00
  0.382700D+00  0.501008D+00
  0.120900D+00  0.343406D+00
   p     1 1.00
  0.382700D+00  0.100000D+01
   p     1 1.00
  0.120900D+00  0.100000D+01
   d     1 1.00
  0.109700D+01  0.100000D+01
   d     1 1.00
  0.318000D+00  0.100000D+01
   f     1 1.00
  0.761000D+00  0.100000D+01
  
  4  0
   s    10 1.00
  0.823600D+04  0.531000D-03
  0.123500D+04  0.410800D-02
  0.280800D+03  0.210870D-01
  0.792700D+02  0.818530D-01
  0.255900D+02  0.234817D+00
  0.899700D+01  0.434401D+00
  0.331900D+01  0.346129D+00
  0.905900D+00  0.393780D-01
  0.364300D+00 -0.898300D-02
  0.128500D+00  0.238500D-02
   s    10 1.00
  0.823600D+04 -0.113000D-03
  0.123500D+04 -0.878000D-03
  0.280800D+03 -0.454000D-02
  0.792700D+02 -0.181330D-01
  0.255900D+02 -0.557600D-01
  0.899700D+01 -0.126895D+00
  0.331900D+01 -0.170352D+00
  0.905900D+00  0.140382D+00
  0.364300D+00  0.598684D+00
  0.128500D+00  0.395389D+00
   s     1 1.00
  0.905900D+00  0.100000D+01
   s     1 1.00
  0.364300D+00  0.100000D+01
   p     5 1.00
  0.187100D+02  0.140310D-01
  0.413300D+01  0.868660D-01
  0.120000D+01  0.290216D+00
  0.382700D+00  0.501008D+00
  0.120900D+00  0.343406D+00
   p     1 1.00
  0.382700D+00  0.100000D+01
   p     1 1.00
  0.120900D+00  0.100000D+01
   d     1 1.00
  0.109700D+01  0.100000D+01
   d     1 1.00
  0.318000D+00  0.100000D+01
   f     1 1.00
  0.761000D+00  0.100000D+01
  
  5  0
   s    10 1.00
  0.823600D+04  0.531000D-03
  0.123500D+04  0.410800D-02
  0.280800D+03  0.210870D-01
  0.792700D+02  0.818530D-01
  0.255900D+02  0.234817D+00
  0.899700D+01  0.434401D+00
  0.331900D+01  0.346129D+00
  0.905900D+00  0.393780D-01
  0.364300D+00 -0.898300D-02
  0.128500D+00  0.238500D-02
   s    10 1.00
  0.823600D+04 -0.113000D-03
  0.123500D+04 -0.878000D-03
  0.280800D+03 -0.454000D-02
  0.792700D+02 -0.181330D-01
  0.255900D+02 -0.557600D-01
  0.899700D+01 -0.126895D+00
  0.331900D+01 -0.170352D+00
  0.905900D+00  0.140382D+00
  0.364300D+00  0.598684D+00
  0.128500D+00  0.395389D+00
   s     1 1.00
  0.905900D+00  0.100000D+01
   s     1 1.00
  0.364300D+00  0.100000D+01
   p     5 1.00
  0.187100D+02  0.140310D-01
  0.413300D+01  0.868660D-01
  0.120000D+01  0.290216D+00
  0.382700D+00  0.501008D+00
  0.120900D+00  0.343406D+00
   p     1 1.00
  0.382700D+00  0.100000D+01
   p     1 1.00
  0.120900D+00  0.100000D+01
   d     1 1.00
  0.109700D+01  0.100000D+01
   d     1 1.00
  0.318000D+00  0.100000D+01
   f     1 1.00
  0.761000D+00  0.100000D+01
  
  6  0
   s    10 1.00
  0.823600D+04  0.531000D-03
  0.123500D+04  0.410800D-02
  0.280800D+03  0.210870D-01
  0.792700D+02  0.818530D-01
  0.255900D+02  0.234817D+00
  0.899700D+01  0.434401D+00
  0.331900D+01  0.346129D+00
  0.905900D+00  0.393780D-01
  0.364300D+00 -0.898300D-02
  0.128500D+00  0.238500D-02
   s    10 1.00
  0.823600D+04 -0.113000D-03
  0.123500D+04 -0.878000D-03
  0.280800D+03 -0.454000D-02
  0.792700D+02 -0.181330D-01
  0.255900D+02 -0.557600D-01
  0.899700D+01 -0.126895D+00
  0.331900D+01 -0.170352D+00
  0.905900D+00  0.140382D+00
  0.364300D+00  0.598684D+00
  0.128500D+00  0.395389D+00
   s     1 1.00
  0.905900D+00  0.100000D+01
   s     1 1.00
  0.364300D+00  0.100000D+01
   p     5 1.00
  0.187100D+02  0.140310D-01
  0.413300D+01  0.868660D-01
  0.120000D+01  0.290216D+00
  0.382700D+00  0.501008D+00
  0.120900D+00  0.343406D+00
   p     1 1.00
  0.382700D+00  0.100000D+01
   p     1 1.00
  0.120900D+00  0.100000D+01
   d     1 1.00
  0.109700D+01  0.100000D+01
   d     1 1.00
  0.318000D+00  0.100000D+01
   f     1 1.00
  0.761000D+00  0.100000D+01
  
  7  0
   s    10 1.00
  0.823600D+04  0.531000D-03
  0.123500D+04  0.410800D-02
  0.280800D+03  0.210870D-01
  0.792700D+02  0.818530D-01
  0.255900D+02  0.234817D+00
  0.899700D+01  0.434401D+00
  0.331900D+01  0.346129D+00
  0.905900D+00  0.393780D-01
  0.364300D+00 -0.898300D-02
  0.128500D+00  0.238500D-02
   s    10 1.00
  0.823600D+04 -0.113000D-03
  0.123500D+04 -0.878000D-03
  0.280800D+03 -0.454000D-02
  0.792700D+02 -0.181330D-01
  0.255900D+02 -0.557600D-01
  0.899700D+01 -0.126895D+00
  0.331900D+01 -0.170352D+00
  0.905900D+00  0.140382D+00
  0.364300D+00  0.598684D+00
  0.128500D+00  0.395389D+00
   s     1 1.00
  0.905900D+00  0.100000D+01
   s     1 1.00
  0.364300D+00  0.100000D+01
   p     5 1.00
  0.187100D+02  0.140310D-01
  0.413300D+01  0.868660D-01
  0.120000D+01  0.290216D+00
  0.382700D+00  0.501008D+00
  0.120900D+00  0.343406D+00
   p     1 1.00
  0.382700D+00  0.100000D+01
   p     1 1.00
  0.120900D+00  0.100000D+01
   d     1 1.00
  0.109700D+01  0.100000D+01
   d     1 1.00
  0.318000D+00  0.100000D+01
   f     1 1.00
  0.761000D+00  0.100000D+01
  
  8  0
   s     4 1.00
  0.130100D+02  0.196850D-01
  0.196200D+01  0.137977D+00
  0.444600D+00  0.478148D+00
  0.122000D+00  0.501240D+00
   s     1 1.00
  0.122000D+00  0.100000D+01
   p     1 1.00
  0.727000D+00  0.100000D+01
  
  9  0
   s     4 1.00
  0.130100D+02  0.196850D-01
  0.196200D+01  0.137977D+00
  0.444600D+00  0.478148D+00
  0.122000D+00  0.501240D+00
   s     1 1.00
  0.122000D+00  0.100000D+01
   p     1 1.00
  0.727000D+00  0.100000D+01
  
 10  0
   s     4 1.00
  0.130100D+02  0.196850D-01
  0.196200D+01  0.137977D+00
  0.444600D+00  0.478148D+00
  0.122000D+00  0.501240D+00
   s     1 1.00
  0.122000D+00  0.100000D+01
   p     1 1.00
  0.727000D+00  0.100000D+01
  
 11  0
   s     4 1.00
  0.130100D+02  0.196850D-01
  0.196200D+01  0.137977D+00
  0.444600D+00  0.478148D+00
  0.122000D+00  0.501240D+00
   s     1 1.00
  0.122000D+00  0.100000D+01
   p     1 1.00
  0.727000D+00  0.100000D+01
  
 12  0
   s     4 1.00
  0.130100D+02  0.196850D-01
  0.196200D+01  0.137977D+00
  0.444600D+00  0.478148D+00
  0.122000D+00  0.501240D+00
   s     1 1.00
  0.122000D+00  0.100000D+01
   p     1 1.00
  0.727000D+00  0.100000D+01
  
 13  0
   s     4 1.00
  0.130100D+02  0.196850D-01
  0.196200D+01  0.137977D+00
  0.444600D+00  0.478148D+00
  0.122000D+00  0.501240D+00
   s     1 1.00
  0.122000D+00  0.100000D+01
   p     1 1.00
  0.727000D+00  0.100000D+01
  
 14  0
   s     4 1.00
  0.130100D+02  0.196850D-01
  0.196200D+01  0.137977D+00
  0.444600D+00  0.478148D+00
  0.122000D+00  0.501240D+00
   s     1 1.00
  0.122000D+00  0.100000D+01
   p     1 1.00
  0.727000D+00  0.100000D+01
  
[MO]
 Sym= __1_A'_
 Ene=   1.00000000000000     
 Spin= Alpha
 Occup=    1.00000000000000     
                     1  1.132574958380953E-004
                     2  0.998344945385800     
                     3 -2.668767036913974E-003
                     4  1.837504162215196E-003
                     5  6.570947234365425E-003
                     6  2.867804274544982E-003
                     7  5.965540331159353E-003
                     8  0.000000000000000E+000
                     9 -7.125922500022668E-004
                    10 -7.290823853053697E-004
                    11  0.000000000000000E+000
                    12 -2.507167358527008E-003
                    13 -1.905494469676194E-003
                    14  0.000000000000000E+000
                    15 -2.967591354020446E-005
                    16  0.000000000000000E+000
                    17  0.000000000000000E+000
                    18 -1.570719362411886E-004
                    19 -5.742424334508438E-005
                    20  8.863576561676695E-005
                    21  0.000000000000000E+000
                    22  0.000000000000000E+000
                    23 -2.087039232716820E-004
                    24  5.099981429554704E-004
                    25  0.000000000000000E+000
                    26 -5.567678518409034E-006
                    27 -5.020758129966521E-005
                    28  0.000000000000000E+000
                    29  0.000000000000000E+000
                    30  3.968763708816650E-005
                    31 -1.084764734789905E-004
                    32 -3.844698607295587E-004
                    33  1.833019735625091E-004
                    34  3.266325047743731E-004
                    35 -1.145664353849808E-004
                    36 -6.936255718035015E-005
                    37 -2.712735190968679E-003
                    38  0.000000000000000E+000
                    39  3.724115595030555E-004
                    40  2.160545207445841E-004
                    41  0.000000000000000E+000
                    42 -2.090090709601488E-003
                    43  5.122290750366839E-003
                    44  0.000000000000000E+000
                    45  4.285598368313405E-006
                    46  0.000000000000000E+000
                    47  0.000000000000000E+000
                    48 -1.323061005649730E-004
                    49  1.988415222329242E-005
                    50 -1.971708784796820E-004
                    51  0.000000000000000E+000
                    52  0.000000000000000E+000
                    53  5.165205795082086E-005
                    54  7.791610042121930E-004
                    55  0.000000000000000E+000
                    56 -3.371936075534645E-006
                    57 -7.287407477945889E-005
                    58  0.000000000000000E+000
                    59  0.000000000000000E+000
                    60  2.438633924182789E-005
                    61 -1.258606583871104E-004
                    62 -5.576953376649480E-004
                    63 -2.228998122240207E-003
                    64 -8.740650926733353E-005
                    65  2.267210156432980E-003
                    66 -5.119655679870863E-004
                    67  1.532696554008579E-004
                    68  0.000000000000000E+000
                    69  3.985698587157143E-004
                    70  9.001282826068765E-004
                    71  0.000000000000000E+000
                    72 -1.771056350878373E-003
                    73  7.161797430559795E-004
                    74  0.000000000000000E+000
                    75 -4.431552385997712E-005
                    76  0.000000000000000E+000
                    77  0.000000000000000E+000
                    78 -6.437014240734339E-005
                    79 -2.039837527225406E-005
                    80 -1.338507329789649E-004
                    81  0.000000000000000E+000
                    82  0.000000000000000E+000
                    83  3.221983791890890E-005
                    84  1.196647018580869E-005
                    85  0.000000000000000E+000
                    86  8.728127632150430E-006
                    87 -4.684946162745094E-005
                    88  0.000000000000000E+000
                    89  0.000000000000000E+000
                    90 -2.173192817831793E-005
                    91 -1.559102877582820E-004
                    92 -1.790814980256673E-004
                    93 -6.536748292175502E-004
                    94  1.601591250964579E-004
                    95 -7.233885077135847E-005
                    96  2.174433725357159E-004
                    97  1.115216219430847E-005
                    98  0.000000000000000E+000
                    99  3.427503123301337E-004
                   100  3.811842315790478E-004
                   101  0.000000000000000E+000
                   102  6.094515776581884E-004
                   103 -1.786245286055351E-003
                   104  0.000000000000000E+000
                   105 -1.170998548518762E-005
                   106  0.000000000000000E+000
                   107  0.000000000000000E+000
                   108 -4.544526007923024E-005
                   109 -1.300045338258621E-005
                   110  8.516181916439726E-005
                   111  0.000000000000000E+000
                   112  0.000000000000000E+000
                   113 -1.631094893665305E-004
                   114  8.753526376227402E-005
                   115  0.000000000000000E+000
                   116 -1.956587271692666E-005
                   117 -2.211004952643138E-005
                   118  0.000000000000000E+000
                   119  0.000000000000000E+000
                   120 -1.125237731609199E-005
                   121 -3.702479433797277E-005
                   122 -2.455318830273671E-004
                   123 -5.973340701545716E-004
                   124  1.713740817623722E-004
                   125  3.096173804222074E-004
                   126 -3.395356834762606E-005
                   127 -3.368036335795718E-004
                   128  0.000000000000000E+000
                   129  2.448302766307103E-004
                   130  6.601577033122409E-004
                   131  0.000000000000000E+000
                   132  4.491771521897214E-004
                   133  2.038421944249986E-003
                   134  0.000000000000000E+000
                   135  1.413005041910312E-005
                   136  0.000000000000000E+000
                   137  0.000000000000000E+000
                   138  4.659236705597668E-005
                   139 -1.935974510230585E-006
                   140  2.069185811425708E-004
                   141  0.000000000000000E+000
                   142  0.000000000000000E+000
                   143  4.111407831210014E-004
                   144  2.284686058601706E-004
                   145  0.000000000000000E+000
                   146 -1.270395004671471E-005
                   147 -6.505419182522600E-005
                   148  0.000000000000000E+000
                   149  0.000000000000000E+000
                   150 -1.319201085655907E-005
                   151 -5.444133594843857E-005
                   152 -1.323969285079569E-004
                   153 -3.625546970441922E-004
                   154  5.510423446954000E-005
                   155  1.924285025077710E-004
                   156  8.475216095225687E-006
                   157 -8.592663297863483E-005
                   158  0.000000000000000E+000
                   159  1.295057412700785E-005
                   160  5.160820853086329E-005
                   161  0.000000000000000E+000
                   162  7.471685017399835E-004
                   163 -3.965398812671234E-004
                   164  0.000000000000000E+000
                   165  1.793193010411876E-006
                   166  0.000000000000000E+000
                   167  0.000000000000000E+000
                   168  2.817643338028550E-006
                   169  9.984309543588269E-006
                   170  1.054536889517340E-004
                   171  0.000000000000000E+000
                   172  0.000000000000000E+000
                   173  4.819356624751972E-005
                   174  2.844690449409757E-005
                   175  0.000000000000000E+000
                   176  3.111732918042598E-006
                   177 -1.389939151436698E-005
                   178  0.000000000000000E+000
                   179  0.000000000000000E+000
                   180 -2.132188273858046E-005
                   181 -2.983547378657376E-005
                   182 -1.372993520201944E-004
                   183 -4.000653388005950E-004
                   184  3.268830212798591E-005
                   185  1.988508505963762E-004
                   186 -5.089831726255380E-005
                   187 -6.417212303047610E-005
                   188  0.000000000000000E+000
                   189  2.722167587679081E-004
                   190  1.197612778978168E-004
                   191  0.000000000000000E+000
                   192  1.372726659291713E-003
                   193 -3.417041558043338E-004
                   194  0.000000000000000E+000
                   195  1.395691312080202E-006
                   196  0.000000000000000E+000
                   197  0.000000000000000E+000
                   198 -3.559707979634844E-006
                   199  4.510427631557436E-006
                   200 -8.742399914913678E-006
                   201  0.000000000000000E+000
                   202  0.000000000000000E+000
                   203 -7.989305136374347E-005
                   204 -2.056899442364194E-004
                   205  0.000000000000000E+000
                   206 -1.025798649786065E-005
                   207 -4.101780976811262E-006
                   208  0.000000000000000E+000
                   209  0.000000000000000E+000
                   210  8.163661505137671E-006
                   211 -3.745758690012519E-006
                   212 -5.361664085254423E-005
                   213  9.183083982871064E-005
                   214  1.824072007629721E-005
                   215  2.017519799383321E-005
                   216  0.000000000000000E+000
                   217 -8.876752003657296E-004
                   218 -6.303071857524193E-004
                   219 -2.416744402431234E-004
                   220  6.407910864408632E-005
                   221  0.000000000000000E+000
                   222 -2.084948303172146E-004
                   223 -6.016068738834055E-004
                   224  2.391792207062298E-005
                   225 -5.936433944469262E-005
                   226  0.000000000000000E+000
                   227  6.738641166316220E-005
                   228 -6.810419560860215E-004
                   229 -4.551539978936827E-005
                   230 -1.258754178398480E-005
                   231  0.000000000000000E+000
                   232  4.298457471804592E-006
                   233 -5.090502064464035E-004
                   234  1.233905171443228E-005
                   235 -4.216592825141242E-006
                   236  0.000000000000000E+000
                   237  7.611189222771951E-006
                   238 -3.680553283351863E-004
                   239 -6.636871274469604E-006
                   240 -1.964691100923903E-006
                   241  0.000000000000000E+000
                   242 -6.387702235235186E-005
                   243  9.434304473771196E-005
                   244  3.970673741962929E-007
                   245  3.103153995371892E-005
                   246  0.000000000000000E+000
 Sym= __2_A'_
 Ene=   2.00000000000000     
 Spin= Alpha
 Occup=    1.00000000000000     
                     1  4.086700491009407E-005
                     2  2.932701452025003E-004
                     3 -3.607722653921845E-003
                     4 -1.006900460672761E-004
                     5 -1.443479099390144E-003
                     6  8.462546913019105E-004
                     7 -3.815524083457574E-003
                     8  0.000000000000000E+000
                     9  6.287365579014796E-006
                    10  9.714094045674823E-005
                    11  0.000000000000000E+000
                    12 -1.913509614932597E-006
                    13  2.622700200706427E-004
                    14  0.000000000000000E+000
                    15 -1.875559315360124E-005
                    16  0.000000000000000E+000
                    17  0.000000000000000E+000
                    18  7.515742543343911E-005
                    19 -3.155598738759143E-005
                    20  1.421270578204622E-004
                    21  0.000000000000000E+000
                    22  0.000000000000000E+000
                    23 -3.494767314709364E-005
                    24  1.494503094734715E-004
                    25  0.000000000000000E+000
                    26  1.354341031720685E-005
                    27 -8.205740098445106E-005
                    28  0.000000000000000E+000
                    29  0.000000000000000E+000
                    30  7.285045301653529E-005
                    31 -1.333960593565522E-004
                    32  -1.00078161434493     
                    33 -9.343895478101234E-003
                    34 -2.832513341668223E-003
                    35  8.152932856031882E-003
                    36  3.587868041726223E-004
                    37  4.366216515392643E-003
                    38  0.000000000000000E+000
                    39  2.444904006725824E-004
                    40 -3.449426445852991E-004
                    41  0.000000000000000E+000
                    42  2.748613015640726E-005
                    43 -4.443608169448289E-003
                    44  0.000000000000000E+000
                    45  5.176952072863668E-004
                    46  0.000000000000000E+000
                    47  0.000000000000000E+000
                    48  2.206905498475844E-004
                    49 -4.538472178418075E-005
                    50 -5.551349316157344E-004
                    51  0.000000000000000E+000
                    52  0.000000000000000E+000
                    53  6.795215139316374E-004
                    54  4.743449332344052E-004
                    55  0.000000000000000E+000
                    56 -2.295194420374036E-005
                    57 -1.032706083671475E-004
                    58  0.000000000000000E+000
                    59  0.000000000000000E+000
                    60  4.606861085029011E-005
                    61 -3.762368434191847E-004
                    62 -1.401770714912521E-002
                    63  2.248581727074372E-003
                    64  2.096391185193692E-004
                    65 -2.653464215362716E-003
                    66  1.193984914997167E-004
                    67 -3.334591098149447E-004
                    68  0.000000000000000E+000
                    69 -4.598031975933583E-004
                    70 -1.722391488272488E-004
                    71  0.000000000000000E+000
                    72  2.123031517801015E-003
                    73 -2.832500291680826E-004
                    74  0.000000000000000E+000
                    75 -3.819648951665558E-005
                    76  0.000000000000000E+000
                    77  0.000000000000000E+000
                    78  2.788557449711358E-005
                    79 -5.527611833442918E-006
                    80  4.213204809836016E-004
                    81  0.000000000000000E+000
                    82  0.000000000000000E+000
                    83  7.118075541668603E-004
                    84  2.221777074683133E-004
                    85  0.000000000000000E+000
                    86 -3.076548062935017E-005
                    87  5.858558514351484E-005
                    88  0.000000000000000E+000
                    89  0.000000000000000E+000
                    90 -4.963198805205094E-005
                    91 -1.523671403911958E-004
                    92 -1.777437493487955E-002
                    93  2.327659645858551E-003
                    94  2.967535518273426E-004
                    95 -3.235028355732722E-003
                    96 -5.391902692981558E-004
                    97 -5.162708177397585E-004
                    98  0.000000000000000E+000
                    99  1.000439002231935E-003
                   100  1.756994889905531E-005
                   101  0.000000000000000E+000
                   102 -1.752901156712211E-003
                   103  7.729701099401518E-005
                   104  0.000000000000000E+000
                   105 -2.167399446524409E-005
                   106  0.000000000000000E+000
                   107  0.000000000000000E+000
                   108  2.310810919338484E-005
                   109 -8.169026083103964E-007
                   110  4.146589316900316E-004
                   111  0.000000000000000E+000
                   112  0.000000000000000E+000
                   113  3.787913488932630E-004
                   114 -2.470856621151336E-004
                   115  0.000000000000000E+000
                   116  3.454143574538894E-005
                   117  7.459410197407127E-005
                   118  0.000000000000000E+000
                   119  0.000000000000000E+000
                   120  1.172286486904654E-005
                   121 -1.369988789744536E-004
                   122 -1.291691698653175E-004
                   123  5.780765434728880E-004
                   124 -2.289894652824220E-004
                   125  1.217091048204764E-004
                   126  1.036841843225263E-005
                   127  5.604341833491887E-004
                   128  0.000000000000000E+000
                   129  6.706356499885421E-005
                   130 -6.404079524974803E-004
                   131  0.000000000000000E+000
                   132 -3.670097941197911E-004
                   133 -9.741680178409515E-004
                   134  0.000000000000000E+000
                   135 -1.785677491639185E-005
                   136  0.000000000000000E+000
                   137  0.000000000000000E+000
                   138 -6.816745623254342E-007
                   139 -4.875700646103509E-005
                   140 -1.258976174931600E-004
                   141  0.000000000000000E+000
                   142  0.000000000000000E+000
                   143 -2.616776640708826E-004
                   144  9.932897670559969E-005
                   145  0.000000000000000E+000
                   146 -9.006895009619030E-006
                   147  3.558779636094477E-005
                   148  0.000000000000000E+000
                   149  0.000000000000000E+000
                   150  4.717100197662382E-005
                   151 -3.821108910402745E-005
                   152 -5.050623137932472E-004
                   153  5.219761127441723E-004
                   154 -2.280067026877142E-004
                   155  2.522356037366246E-005
                   156  7.383100721737481E-005
                   157  6.383935693253367E-004
                   158  0.000000000000000E+000
                   159 -1.539767967674593E-004
                   160 -5.498177789111169E-004