[Molden Format]
[Atoms] AU
  N     1    7    -4.4189415900    0.0971013400   -0.0172163000        
  C     2    6    -1.7733490100    0.0018581900    0.0053327600        
  C     3    6    -0.4270809800    0.0108202300   -2.2666656300        
  C     4    6    -0.4248400700    0.0001626800    2.2716714400        
  C     5    6     2.1868635500    0.0058360300   -2.2541049000        
  C     6    6     2.1907556700   -0.0034415000    2.2557391300        
  C     7    6     3.5167457700   -0.0029782500    0.0003098000        
  H     8    1    -5.0907976100   -0.4508500600   -1.2556993500        
  H     9    1    -5.2029015000   -0.4983792800    1.6236389300        
  H    10    1    -1.4309171700    0.0300162200   -4.0290498200        
  H    11    1    -1.4255161500    0.0100258500    4.0362576600        
  H    12    1     3.1874150800    0.0076359700   -4.0196140500        
  H    13    1     3.1926848200   -0.0088372600    4.0203586200        
  H    14    1     5.5444396400   -0.0071433100   -0.0015225200        
[5D]
[7F]
[GTO]
  1  0
   s    12 1.00
  0.114200D+05  0.172695D-04
  0.171200D+04  0.134411D-03
  0.389300D+03  0.694561D-03
  0.110000D+03  0.278531D-02
  0.355700D+02  0.863457D-02
  0.125400D+02  0.199805D-01
  0.464400D+01  0.262908D-01
  0.129300D+01 -0.243845D-01
  0.511800D+00 -0.924934D-01
  0.178700D+00 -0.339683D+00
  0.246240D-01  0.345111D+00
  0.112530D-01  0.752750D+00
   s    10 1.00
  0.114200D+05  0.523000D-03
  0.171200D+04  0.404500D-02
  0.389300D+03  0.207750D-01
  0.110000D+03  0.807269D-01
  0.355700D+02  0.233074D+00
  0.125400D+02  0.433501D+00
  0.464400D+01  0.347472D+00
  0.129300D+01  0.412620D-01
  0.511800D+00 -0.850799D-02
  0.178700D+00  0.238400D-02
   s    10 1.00
  0.114200D+05 -0.115000D-03
  0.171200D+04 -0.895000D-03
  0.389300D+03 -0.462400D-02
  0.110000D+03 -0.185280D-01
  0.355700D+02 -0.573390D-01
  0.125400D+02 -0.132076D+00
  0.464400D+01 -0.172510D+00
  0.129300D+01  0.151814D+00
  0.511800D+00  0.599944D+00
  0.178700D+00  0.387462D+00
   s     1 1.00
  0.129300D+01  0.100000D+01
   s     1 1.00
  0.178700D+00  0.100000D+01
   p     5 1.00
  0.266300D+02  0.146700D-01
  0.594800D+01  0.917640D-01
  0.174200D+01  0.298683D+00
  0.555000D+00  0.498487D+00
  0.172500D+00  0.337023D+00
   p     1 1.00
  0.174200D+01  0.100000D+01
   p     1 1.00
  0.555000D+00  0.100000D+01
   d     1 1.00
  0.165400D+01  0.100000D+01
   d     1 1.00
  0.469000D+00  0.100000D+01
   f     1 1.00
  0.109300D+01  0.100000D+01
  
  2  0
   s    10 1.00
  0.823600D+04  0.531000D-03
  0.123500D+04  0.410800D-02
  0.280800D+03  0.210870D-01
  0.792700D+02  0.818530D-01
  0.255900D+02  0.234817D+00
  0.899700D+01  0.434401D+00
  0.331900D+01  0.346129D+00
  0.905900D+00  0.393780D-01
  0.364300D+00 -0.898300D-02
  0.128500D+00  0.238500D-02
   s    10 1.00
  0.823600D+04 -0.113000D-03
  0.123500D+04 -0.878000D-03
  0.280800D+03 -0.454000D-02
  0.792700D+02 -0.181330D-01
  0.255900D+02 -0.557600D-01
  0.899700D+01 -0.126895D+00
  0.331900D+01 -0.170352D+00
  0.905900D+00  0.140382D+00
  0.364300D+00  0.598684D+00
  0.128500D+00  0.395389D+00
   s     1 1.00
  0.905900D+00  0.100000D+01
   s     1 1.00
  0.364300D+00  0.100000D+01
   p     5 1.00
  0.187100D+02  0.140310D-01
  0.413300D+01  0.868660D-01
  0.120000D+01  0.290216D+00
  0.382700D+00  0.501008D+00
  0.120900D+00  0.343406D+00
   p     1 1.00
  0.382700D+00  0.100000D+01
   p     1 1.00
  0.120900D+00  0.100000D+01
   d     1 1.00
  0.109700D+01  0.100000D+01
   d     1 1.00
  0.318000D+00  0.100000D+01
   f     1 1.00
  0.761000D+00  0.100000D+01
  
  3  0
   s    10 1.00
  0.823600D+04  0.531000D-03
  0.123500D+04  0.410800D-02
  0.280800D+03  0.210870D-01
  0.792700D+02  0.818530D-01
  0.255900D+02  0.234817D+00
  0.899700D+01  0.434401D+00
  0.331900D+01  0.346129D+00
  0.905900D+00  0.393780D-01
  0.364300D+00 -0.898300D-02
  0.128500D+00  0.238500D-02
   s    10 1.00
  0.823600D+04 -0.113000D-03
  0.123500D+04 -0.878000D-03
  0.280800D+03 -0.454000D-02
  0.792700D+02 -0.181330D-01
  0.255900D+02 -0.557600D-01
  0.899700D+01 -0.126895D+00
  0.331900D+01 -0.170352D+00
  0.905900D+00  0.140382D+00
  0.364300D+00  0.598684D+00
  0.128500D+00  0.395389D+00
   s     1 1.00
  0.905900D+00  0.100000D+01
   s     1 1.00
  0.364300D+00  0.100000D+01
   p     5 1.00
  0.187100D+02  0.140310D-01
  0.413300D+01  0.868660D-01
  0.120000D+01  0.290216D+00
  0.382700D+00  0.501008D+00
  0.120900D+00  0.343406D+00
   p     1 1.00
  0.382700D+00  0.100000D+01
   p     1 1.00
  0.120900D+00  0.100000D+01
   d     1 1.00
  0.109700D+01  0.100000D+01
   d     1 1.00
  0.318000D+00  0.100000D+01
   f     1 1.00
  0.761000D+00  0.100000D+01
  
  4  0
   s    10 1.00
  0.823600D+04  0.531000D-03
  0.123500D+04  0.410800D-02
  0.280800D+03  0.210870D-01
  0.792700D+02  0.818530D-01
  0.255900D+02  0.234817D+00
  0.899700D+01  0.434401D+00
  0.331900D+01  0.346129D+00
  0.905900D+00  0.393780D-01
  0.364300D+00 -0.898300D-02
  0.128500D+00  0.238500D-02
   s    10 1.00
  0.823600D+04 -0.113000D-03
  0.123500D+04 -0.878000D-03
  0.280800D+03 -0.454000D-02
  0.792700D+02 -0.181330D-01
  0.255900D+02 -0.557600D-01
  0.899700D+01 -0.126895D+00
  0.331900D+01 -0.170352D+00
  0.905900D+00  0.140382D+00
  0.364300D+00  0.598684D+00
  0.128500D+00  0.395389D+00
   s     1 1.00
  0.905900D+00  0.100000D+01
   s     1 1.00
  0.364300D+00  0.100000D+01
   p     5 1.00
  0.187100D+02  0.140310D-01
  0.413300D+01  0.868660D-01
  0.120000D+01  0.290216D+00
  0.382700D+00  0.501008D+00
  0.120900D+00  0.343406D+00
   p     1 1.00
  0.382700D+00  0.100000D+01
   p     1 1.00
  0.120900D+00  0.100000D+01
   d     1 1.00
  0.109700D+01  0.100000D+01
   d     1 1.00
  0.318000D+00  0.100000D+01
   f     1 1.00
  0.761000D+00  0.100000D+01
  
  5  0
   s    10 1.00
  0.823600D+04  0.531000D-03
  0.123500D+04  0.410800D-02
  0.280800D+03  0.210870D-01
  0.792700D+02  0.818530D-01
  0.255900D+02  0.234817D+00
  0.899700D+01  0.434401D+00
  0.331900D+01  0.346129D+00
  0.905900D+00  0.393780D-01
  0.364300D+00 -0.898300D-02
  0.128500D+00  0.238500D-02
   s    10 1.00
  0.823600D+04 -0.113000D-03
  0.123500D+04 -0.878000D-03
  0.280800D+03 -0.454000D-02
  0.792700D+02 -0.181330D-01
  0.255900D+02 -0.557600D-01
  0.899700D+01 -0.126895D+00
  0.331900D+01 -0.170352D+00
  0.905900D+00  0.140382D+00
  0.364300D+00  0.598684D+00
  0.128500D+00  0.395389D+00
   s     1 1.00
  0.905900D+00  0.100000D+01
   s     1 1.00
  0.364300D+00  0.100000D+01
   p     5 1.00
  0.187100D+02  0.140310D-01
  0.413300D+01  0.868660D-01
  0.120000D+01  0.290216D+00
  0.382700D+00  0.501008D+00
  0.120900D+00  0.343406D+00
   p     1 1.00
  0.382700D+00  0.100000D+01
   p     1 1.00
  0.120900D+00  0.100000D+01
   d     1 1.00
  0.109700D+01  0.100000D+01
   d     1 1.00
  0.318000D+00  0.100000D+01
   f     1 1.00
  0.761000D+00  0.100000D+01
  
  6  0
   s    10 1.00
  0.823600D+04  0.531000D-03
  0.123500D+04  0.410800D-02
  0.280800D+03  0.210870D-01
  0.792700D+02  0.818530D-01
  0.255900D+02  0.234817D+00
  0.899700D+01  0.434401D+00
  0.331900D+01  0.346129D+00
  0.905900D+00  0.393780D-01
  0.364300D+00 -0.898300D-02
  0.128500D+00  0.238500D-02
   s    10 1.00
  0.823600D+04 -0.113000D-03
  0.123500D+04 -0.878000D-03
  0.280800D+03 -0.454000D-02
  0.792700D+02 -0.181330D-01
  0.255900D+02 -0.557600D-01
  0.899700D+01 -0.126895D+00
  0.331900D+01 -0.170352D+00
  0.905900D+00  0.140382D+00
  0.364300D+00  0.598684D+00
  0.128500D+00  0.395389D+00
   s     1 1.00
  0.905900D+00  0.100000D+01
   s     1 1.00
  0.364300D+00  0.100000D+01
   p     5 1.00
  0.187100D+02  0.140310D-01
  0.413300D+01  0.868660D-01
  0.120000D+01  0.290216D+00
  0.382700D+00  0.501008D+00
  0.120900D+00  0.343406D+00
   p     1 1.00
  0.382700D+00  0.100000D+01
   p     1 1.00
  0.120900D+00  0.100000D+01
   d     1 1.00
  0.109700D+01  0.100000D+01
   d     1 1.00
  0.318000D+00  0.100000D+01
   f     1 1.00
  0.761000D+00  0.100000D+01
  
  7  0
   s    10 1.00
  0.823600D+04  0.531000D-03
  0.123500D+04  0.410800D-02
  0.280800D+03  0.210870D-01
  0.792700D+02  0.818530D-01
  0.255900D+02  0.234817D+00
  0.899700D+01  0.434401D+00
  0.331900D+01  0.346129D+00
  0.905900D+00  0.393780D-01
  0.364300D+00 -0.898300D-02
  0.128500D+00  0.238500D-02
   s    10 1.00
  0.823600D+04 -0.113000D-03
  0.123500D+04 -0.878000D-03
  0.280800D+03 -0.454000D-02
  0.792700D+02 -0.181330D-01
  0.255900D+02 -0.557600D-01
  0.899700D+01 -0.126895D+00
  0.331900D+01 -0.170352D+00
  0.905900D+00  0.140382D+00
  0.364300D+00  0.598684D+00
  0.128500D+00  0.395389D+00
   s     1 1.00
  0.905900D+00  0.100000D+01
   s     1 1.00
  0.364300D+00  0.100000D+01
   p     5 1.00
  0.187100D+02  0.140310D-01
  0.413300D+01  0.868660D-01
  0.120000D+01  0.290216D+00
  0.382700D+00  0.501008D+00
  0.120900D+00  0.343406D+00
   p     1 1.00
  0.382700D+00  0.100000D+01
   p     1 1.00
  0.120900D+00  0.100000D+01
   d     1 1.00
  0.109700D+01  0.100000D+01
   d     1 1.00
  0.318000D+00  0.100000D+01
   f     1 1.00
  0.761000D+00  0.100000D+01
  
  8  0
   s     4 1.00
  0.130100D+02  0.196850D-01
  0.196200D+01  0.137977D+00
  0.444600D+00  0.478148D+00
  0.122000D+00  0.501240D+00
   s     1 1.00
  0.122000D+00  0.100000D+01
   p     1 1.00
  0.727000D+00  0.100000D+01
  
  9  0
   s     4 1.00
  0.130100D+02  0.196850D-01
  0.196200D+01  0.137977D+00
  0.444600D+00  0.478148D+00
  0.122000D+00  0.501240D+00
   s     1 1.00
  0.122000D+00  0.100000D+01
   p     1 1.00
  0.727000D+00  0.100000D+01
  
 10  0
   s     4 1.00
  0.130100D+02  0.196850D-01
  0.196200D+01  0.137977D+00
  0.444600D+00  0.478148D+00
  0.122000D+00  0.501240D+00
   s     1 1.00
  0.122000D+00  0.100000D+01
   p     1 1.00
  0.727000D+00  0.100000D+01
  
 11  0
   s     4 1.00
  0.130100D+02  0.196850D-01
  0.196200D+01  0.137977D+00
  0.444600D+00  0.478148D+00
  0.122000D+00  0.501240D+00
   s     1 1.00
  0.122000D+00  0.100000D+01
   p     1 1.00
  0.727000D+00  0.100000D+01
  
 12  0
   s     4 1.00
  0.130100D+02  0.196850D-01
  0.196200D+01  0.137977D+00
  0.444600D+00  0.478148D+00
  0.122000D+00  0.501240D+00
   s     1 1.00
  0.122000D+00  0.100000D+01
   p     1 1.00
  0.727000D+00  0.100000D+01
  
 13  0
   s     4 1.00
  0.130100D+02  0.196850D-01
  0.196200D+01  0.137977D+00
  0.444600D+00  0.478148D+00
  0.122000D+00  0.501240D+00
   s     1 1.00
  0.122000D+00  0.100000D+01
   p     1 1.00
  0.727000D+00  0.100000D+01
  
 14  0
   s     4 1.00
  0.130100D+02  0.196850D-01
  0.196200D+01  0.137977D+00
  0.444600D+00  0.478148D+00
  0.122000D+00  0.501240D+00
   s     1 1.00
  0.122000D+00  0.100000D+01
   p     1 1.00
  0.727000D+00  0.100000D+01
  
[MO]
 Sym= __1_A__
 Ene=   1.00000000000000     
 Spin= Alpha
 Occup=    1.00000000000000     
                     1  1.789197485922189E-004
                     2  0.997704339711730     
                     3  8.881019794939680E-003
                     4  2.394179739171993E-003
                     5  3.113829515678423E-003
                     6  4.486735955183555E-003
                     7 -3.255968504709870E-003
                     8 -1.426014581159047E-004
                     9 -6.069921427429590E-004
                    10 -1.481817025941449E-004
                    11 -3.214080869590586E-004
                    12 -9.374981099077135E-004
                    13  1.941636159585220E-003
                    14 -4.388698915295069E-004
                    15  2.374487262751513E-004
                    16  2.668462968065422E-004
                    17  2.346406759041862E-004
                    18  1.638860645123070E-004
                    19  1.907004620923672E-004
                    20 -2.863419343356816E-004
                    21  1.496097933519529E-004
                    22  1.136375310634484E-004
                    23 -6.899964402462438E-006
                    24 -3.362005773453040E-004
                    25  3.599492819715028E-005
                    26 -3.791907007430585E-004
                    27 -2.337541923685042E-004
                    28 -1.479744730074552E-005
                    29 -1.551615657954246E-004
                    30 -1.305115352634411E-004
                    31 -9.227542099562431E-005
                    32 -3.606789452125845E-004
                    33  1.733612752699005E-003
                    34  1.959473257067334E-004
                    35 -1.852523945984282E-004
                    36 -5.775550886724163E-003
                    37  7.668427701638773E-005
                    38  1.560250193478267E-004
                    39  8.495074517749700E-005
                    40 -6.201232653550378E-006
                    41 -9.941634114263518E-005
                    42  4.210679822729981E-003
                    43  7.326673661133018E-004
                    44  3.826043361224994E-005
                    45 -2.611034568403374E-004
                    46  2.280766081966513E-005
                    47  1.603973967723001E-006
                    48  2.218445755978476E-004
                    49  4.592720571983332E-005
                    50  2.678935973466053E-004
                    51 -1.258012951964527E-004
                    52 -2.336548375384343E-005
                    53  1.605932974646986E-004
                    54 -2.926209435608080E-004
                    55 -4.481521590147216E-006
                    56 -1.168162484752085E-004
                    57  1.428003893864248E-005
                    58 -1.033315268471773E-005
                    59 -1.365717365359010E-005
                    60 -3.491461350252613E-005
                    61  3.816671751347013E-005
                    62 -3.047058959879881E-004
                    63 -1.966152082116173E-003
                    64  6.206297121832140E-005
                    65  8.015785431215258E-004
                    66  9.718449602329470E-004
                    67 -1.541813737967888E-005
                    68 -7.893045910772583E-004
                    69  5.552704466498643E-004
                    70  4.737747540218668E-005
                    71  2.188887079978156E-005
                    72 -4.421679495314974E-004
                    73 -3.226865156710662E-004
                    74 -4.910184599179020E-004
                    75 -8.130587917071660E-005
                    76 -9.405818437019934E-006
                    77  1.540651266819737E-005
                    78  6.270465903314890E-005
                    79 -6.168099536359844E-006
                    80  7.041637532276122E-005
                    81  1.427922612378537E-004
                    82 -3.537741874866583E-005
                    83 -2.651207575800964E-005
                    84  4.233385142968078E-005
                    85 -2.421971463779640E-006
                    86 -7.225777175479925E-005
                    87  1.295823181896103E-005
                    88 -1.889429055319707E-005
                    89  1.345893315646813E-005
                    90 -5.561543768222419E-005
                    91 -9.475653627926130E-006
                    92 -2.684619566825510E-004
                    93 -1.689757544102226E-003
                    94  5.014923043743073E-005
                    95  8.298856290482630E-004
                    96  8.479841159430741E-004
                    97 -2.522161353765074E-005
                    98  6.567431768838857E-004
                    99  4.048454457089865E-004
                   100  7.402501548264968E-005
                   101 -1.689608422741953E-004
                   102 -1.644810854129566E-004
                   103 -3.187229693026448E-004
                   104  5.582447349981579E-004
                   105 -7.462139620748224E-005
                   106  2.594833065763310E-005
                   107 -1.862497021567698E-005
                   108  7.147808370436462E-005
                   109 -9.078909695807092E-006
                   110  1.940329827790082E-004
                   111 -1.580550764586070E-004
                   112  1.825280852181282E-005
                   113 -1.329521667227802E-004
                   114  3.598135576599691E-005
                   115  4.380614158777572E-006
                   116 -7.029424549921346E-005
                   117  2.067551368381873E-005
                   118  2.065187130697410E-005
                   119 -7.853998704001623E-006
                   120 -5.435644118983693E-005
                   121 -1.093207481176370E-005
                   122 -1.632569796262058E-004
                   123 -8.248667267659494E-005
                   124  8.344688691654476E-005
                   125  3.044693532976842E-004
                   126 -7.660169732772235E-004
                   127 -6.181627133821926E-006
                   128  3.289946185410861E-005
                   129  3.084618814251288E-004
                   130 -1.496704448920355E-005
                   131  3.143476214031510E-005
                   132  5.860008175422070E-004
                   133  1.254681355385779E-004
                   134 -2.463101964209060E-004
                   135  6.304364407755978E-006
                   136  2.380923758056435E-006
                   137 -2.418163951481638E-006
                   138 -7.160344167039754E-006
                   139  6.466999719428971E-006
                   140  6.879621294990390E-005
                   141  1.631872887070207E-004
                   142  6.644734521154717E-006
                   143 -1.681131176994535E-004
                   144 -1.555917855375818E-005
                   145 -4.847667150566183E-006
                   146 -1.722462180076993E-005
                   147  2.044183460978436E-006
                   148  1.266833286389449E-006
                   149 -2.101014713416651E-006
                   150 -4.072215561869663E-005
                   151 -5.500301410870221E-007
                   152 -1.640104688793587E-004
                   153 -1.272521590151287E-004
                   154  5.119020753431558E-005
                   155  4.759781431691604E-004
                   156 -7.059981296466622E-004
                   157 -4.932377665912730E-006
                   158 -2.704742849958173E-005
                   159  1.916045824887306E-004
                   160 -1.601397779446348E-005
                   161 -9.608006094426928E-006
                   162  8.326388855691807E-004
                   163  1.225441547414235E-004
                   164  1.739051158007698E-004
                   165  3.855124530672500E-006
                   166  2.412294455441338E-006
                   167  1.965541155139134E-006
                   168 -4.524200572690728E-007
                   169  5.794180512773426E-006
                   170  4.794882390291590E-005
                   171 -1.942193902770403E-004
                   172 -2.510052788697351E-006
                   173 -1.453147108149723E-004
                   174 -1.554578394227750E-005
                   175  8.759869756042214E-006
                   176 -1.279698570098193E-005
                   177  1.576513250657247E-006
                   178  2.719524993929074E-006
                   179  1.850281405272548E-006
                   180 -3.917069335210343E-005
                   181 -1.911279254930666E-007
                   182 -1.111319949953249E-004
                   183 -3.417571695066493E-004
                   184  2.971406015470278E-005
                   185  1.172523826037284E-004
                   186 -5.793859150835534E-006
                   187 -2.749094287944865E-005
                   188 -7.427161839390334E-006
                   189  5.872145678902197E-005
                   190  2.060036482804118E-005
                   191  3.086834416637707E-007
                   192 -1.843913060775164E-004
                   193 -9.286469816618290E-005
                   194 -1.386199667012004E-004
                   195 -1.657666826495095E-005
                   196  9.656602603128793E-007
                   197  2.074977844728837E-007
                   198  8.287193194050706E-006
                   199 -2.644988810193964E-006
                   200 -1.024048184570270E-004
                   201  4.273292665591847E-007
                   202  1.160850736638293E-006
                   203  5.290519214005766E-005
                   204  1.283766499819665E-005
                   205 -1.796872453301527E-006
                   206 -1.319064666164212E-006
                   207  2.748144554395312E-006
                   208 -1.088156584832819E-006
                   209 -4.391494465913987E-007
                   210 -5.455389812520883E-006
                   211 -1.851885988174946E-006
                   212  4.386841885167431E-003
                   213 -3.258658094008954E-003
                   214  1.106237909708586E-004
                   215  1.264946598292713E-004
                   216  1.603369598265933E-004
                   217  4.047534200404130E-003
                   218 -2.586608363764213E-003
                   219  2.381852075012903E-004
                   220  2.214394748013311E-004
                   221 -4.691932090916060E-004
                   222 -6.499794180232024E-004
                   223 -8.632697219316054E-005
                   224 -5.104488947724160E-005
                   225  8.223969248618012E-006
                   226 -7.021339260962930E-007
                   227 -6.636304392752108E-004
                   228 -9.258932841491556E-005
                   229 -7.527043107695803E-005
                   230  1.010034844735593E-005
                   231 -1.069504702506380E-005
                   232 -1.936916537618899E-004
                   233 -3.771147512557265E-004
                   234  2.859509445688198E-006
                   235 -1.066247907547079E-006
                   236 -7.468457241065466E-006
                   237 -1.522085708664139E-004
                   238 -4.146226409198929E-004
                   239  3.308150537126622E-006
                   240 -1.886929101158516E-006
                   241  1.006807978491174E-005
                   242  7.003699400215479E-005
                   243  2.945011547006166E-005
                   244  2.049850222079351E-005
                   245  1.184482673341730E-006
                   246  2.191134344215066E-006
 Sym= __2_A__
 Ene=   2.00000000000000     
 Spin= Alpha
 Occup=    1.00000000000000     
                     1 -2.542230531096237E-005
                     2 -1.110183359917968E-004
                     3  1.582806699808036E-003
                     4  1.207449395657800E-005
                     5  1.424418053286445E-003
                     6  2.225570912814868E-003
                     7  3.636319306503688E-004
                     8  4.083616048318895E-005
                     9 -1.352854481733877E-004
                    10  7.253376157031078E-005
                    11  1.555301200497988E-005
                    12 -8.408596761760311E-006
                    13  3.324291098061002E-005
                    14  2.569163321846253E-005
                    15 -7.746943126627554E-005
                    16 -2.434960238733920E-006
                    17 -3.391401440732769E-006
                    18  2.661911601080198E-005
                    19 -5.135422107934611E-006
                    20  3.211364353175084E-004
                    21 -8.227396411546130E-005
                    22 -2.155252510922550E-005
                    23  3.791694244931556E-005
                    24 -6.431838296210599E-005
                    25  6.860566441569993E-006
                    26  1.424874012000476E-004
                    27 -5.687987023187167E-005
                    28  4.166288631319982E-006
                    29  1.669054616087613E-005
                    30  1.432605127186543E-004
                    31  3.173903324419075E-005
                    32   1.00099205190813     
                    33  8.903041595263556E-003
                    34  2.777610516182674E-003
                    35 -8.117666058597142E-003
                    36 -2.932327237224195E-003
                    37  5.640547175477982E-004
                    38  1.498001683062063E-005
                    39  1.186354336955700E-003
                    40 -1.796455923705146E-004
                    41 -5.324853395082275E-005
                    42  3.767264125199684E-003
                    43 -1.176010183319770E-004
                    44 -7.702833854270730E-005
                    45  2.821790469914195E-004
                    46  1.208202775392353E-005
                    47 -2.357517407396701E-006
                    48  4.660420304860852E-004
                    49 -1.254168444726068E-005
                    50 -1.071436009347062E-003
                    51 -1.119817136707293E-004
                    52  1.569725309793757E-005
                    53 -1.068849170629225E-004
                    54 -4.887561714842324E-006
                    55 -4.016987338384906E-006
                    56  3.460643258425995E-004
                    57 -8.001443304199835E-006
                    58 -5.332382916324038E-006
                    59  1.134021261055289E-006
                    60  9.452257643243477E-005
                    61  1.443901068968452E-005
                    62  1.109951414603901E-002
                    63 -1.944581312329834E-003
                    64 -2.943198934988666E-004
                    65  3.104472135038860E-003
                    66 -1.407091367015914E-004
                    67  9.167510518577749E-005
                    68  2.486528809060100E-004
                    69  3.476051329586085E-005
                    70  1.223758735680588E-005
                    71  4.646535754816199E-004
                    72  2.123709683273125E-004
                    73 -6.807319029098410E-006
                    74 -1.964808805836872E-003
                    75 -1.546736976802846E-005
                    76  2.865374626704182E-005
                    77  6.040184602151500E-006
                    78 -3.800432947774126E-005
                    79 -4.208770483705462E-006
                    80 -4.571742559383190E-004
                    81 -4.551431282104511E-004
                    82  1.494215540823789E-005
                    83  7.756245771324040E-004
                    84 -4.890618751236383E-006
                    85  5.670728062478595E-005
                    86  1.181903413515573E-004
                    87  2.860905590745984E-006
                    88 -9.385513517750216E-006
                    89 -6.150009168053920E-006
                    90 -2.428278226808070E-005
                    91  3.778561157008528E-006
                    92  1.129994328350925E-002
                    93 -1.943074141597802E-003
                    94 -3.185864097719410E-004
                    95  3.259234406749649E-003
                    96 -1.534276146592968E-004
                    97  9.727334282279790E-005
                    98 -2.381278356934455E-004
                    99  2.553564903660197E-005
                   100  4.095430600420237E-006
                   101 -5.742007593867532E-004
                   102  9.373943025537330E-005
                   103 -1.819779670536876E-005
                   104  1.890152598822868E-003
                   105 -1.309246054356774E-005
                   106 -2.443373965994456E-005
                   107 -5.671950069363350E-006
                   108 -3.528692576458106E-005
                   109 -4.155544383456796E-006
                   110 -4.058175267236148E-004
                   111  4.565499158304515E-004
                   112 -7.589897046547873E-006
                   113  7.502594130162564E-004
                   114 -4.628758114198408E-007
                   115 -5.105051025790999E-005
                   116  1.127468782124046E-004
                   117  6.241923084742672E-007
                   118  1.537149523549046E-005
                   119  3.146790233697685E-006
                   120 -2.923297496000441E-005
                   121  3.548690811404007E-006
                   122 -1.833015506219096E-004
                   123 -7.508777520212001E-004
                   124  2.480446545925387E-004
                   125 -2.848282653823372E-004
                   126 -1.891559131233530E-004
                   127  1.955653364295995E-005
                   128 -4.377408799839036E-005
                   129  5.994597091224346E-004
                   130 -6.530808626853606E-006
                   131  4.460634869533914E-005
                   132  6.747846651615740E-004
                   133 -7.186963892754674E-006
                   134  3.723192314616636E-004
                   135 -1.315941348131762E-006
                   136  4.306160706214824E-005
                   137  2.890758789363321E-007
                   138 -3.086240283612286E-005
                   139 -1.095012557895276E-006
                   140  2.000871680730671E-004
                   141 -2.552066615839077E-004
                   142 -1.554633103648024E-006
                   143 -2.661788533076592E-004
                   144  9.255173230381789E-007
                   145 -2.005644808609578E-005
                   146  1.725605707632093E-005
                   147  8.979119982540528E-008
                   148 -1.560844685818602E-005
                   149 -9.856362570820352E-007
                   150 -2.332022566758513E-005
                   151 -1.080145628544235E-006
                   152 -1.742645676787913E-004
                   153 -7.325573195394985E-004
                   154  2.547990309665172E-004
                   155 -3.044074083789763E-004
                   156 -1.904398787618740E-004
                   157  1.844610170605991E-005
                   158  3.879554746859441E-005
                   159  5.952756541211943E-004
                   160 -6.130057115922176E-006