[Molden Format]
[Atoms] AU
  N     1    7    -4.4189415900    0.0971013400   -0.0172163000        
  C     2    6    -1.7733490100    0.0018581900    0.0053327600        
  C     3    6    -0.4270809800    0.0108202300   -2.2666656300        
  C     4    6    -0.4248400700    0.0001626800    2.2716714400        
  C     5    6     2.1868635500    0.0058360300   -2.2541049000        
  C     6    6     2.1907556700   -0.0034415000    2.2557391300        
  C     7    6     3.5167457700   -0.0029782500    0.0003098000        
  H     8    1    -5.0907976100   -0.4508500600   -1.2556993500        
  H     9    1    -5.2029015000   -0.4983792800    1.6236389300        
  H    10    1    -1.4309171700    0.0300162200   -4.0290498200        
  H    11    1    -1.4255161500    0.0100258500    4.0362576600        
  H    12    1     3.1874150800    0.0076359700   -4.0196140500        
  H    13    1     3.1926848200   -0.0088372600    4.0203586200        
  H    14    1     5.5444396400   -0.0071433100   -0.0015225200        
[5D]
[7F]
[GTO]
  1  0
   s    12 1.00
  0.114200D+05  0.172695D-04
  0.171200D+04  0.134411D-03
  0.389300D+03  0.694561D-03
  0.110000D+03  0.278531D-02
  0.355700D+02  0.863457D-02
  0.125400D+02  0.199805D-01
  0.464400D+01  0.262908D-01
  0.129300D+01 -0.243845D-01
  0.511800D+00 -0.924934D-01
  0.178700D+00 -0.339683D+00
  0.246240D-01  0.345111D+00
  0.112530D-01  0.752750D+00
   s    10 1.00
  0.114200D+05  0.523000D-03
  0.171200D+04  0.404500D-02
  0.389300D+03  0.207750D-01
  0.110000D+03  0.807269D-01
  0.355700D+02  0.233074D+00
  0.125400D+02  0.433501D+00
  0.464400D+01  0.347472D+00
  0.129300D+01  0.412620D-01
  0.511800D+00 -0.850799D-02
  0.178700D+00  0.238400D-02
   s    10 1.00
  0.114200D+05 -0.115000D-03
  0.171200D+04 -0.895000D-03
  0.389300D+03 -0.462400D-02
  0.110000D+03 -0.185280D-01
  0.355700D+02 -0.573390D-01
  0.125400D+02 -0.132076D+00
  0.464400D+01 -0.172510D+00
  0.129300D+01  0.151814D+00
  0.511800D+00  0.599944D+00
  0.178700D+00  0.387462D+00
   s     1 1.00
  0.129300D+01  0.100000D+01
   s     1 1.00
  0.178700D+00  0.100000D+01
   p     5 1.00
  0.266300D+02  0.146700D-01
  0.594800D+01  0.917640D-01
  0.174200D+01  0.298683D+00
  0.555000D+00  0.498487D+00
  0.172500D+00  0.337023D+00
   p     1 1.00
  0.174200D+01  0.100000D+01
   p     1 1.00
  0.555000D+00  0.100000D+01
   d     1 1.00
  0.165400D+01  0.100000D+01
   d     1 1.00
  0.469000D+00  0.100000D+01
   f     1 1.00
  0.109300D+01  0.100000D+01
  
  2  0
   s    10 1.00
  0.823600D+04  0.531000D-03
  0.123500D+04  0.410800D-02
  0.280800D+03  0.210870D-01
  0.792700D+02  0.818530D-01
  0.255900D+02  0.234817D+00
  0.899700D+01  0.434401D+00
  0.331900D+01  0.346129D+00
  0.905900D+00  0.393780D-01
  0.364300D+00 -0.898300D-02
  0.128500D+00  0.238500D-02
   s    10 1.00
  0.823600D+04 -0.113000D-03
  0.123500D+04 -0.878000D-03
  0.280800D+03 -0.454000D-02
  0.792700D+02 -0.181330D-01
  0.255900D+02 -0.557600D-01
  0.899700D+01 -0.126895D+00
  0.331900D+01 -0.170352D+00
  0.905900D+00  0.140382D+00
  0.364300D+00  0.598684D+00
  0.128500D+00  0.395389D+00
   s     1 1.00
  0.905900D+00  0.100000D+01
   s     1 1.00
  0.364300D+00  0.100000D+01
   p     5 1.00
  0.187100D+02  0.140310D-01
  0.413300D+01  0.868660D-01
  0.120000D+01  0.290216D+00
  0.382700D+00  0.501008D+00
  0.120900D+00  0.343406D+00
   p     1 1.00
  0.382700D+00  0.100000D+01
   p     1 1.00
  0.120900D+00  0.100000D+01
   d     1 1.00
  0.109700D+01  0.100000D+01
   d     1 1.00
  0.318000D+00  0.100000D+01
   f     1 1.00
  0.761000D+00  0.100000D+01
  
  3  0
   s    10 1.00
  0.823600D+04  0.531000D-03
  0.123500D+04  0.410800D-02
  0.280800D+03  0.210870D-01
  0.792700D+02  0.818530D-01
  0.255900D+02  0.234817D+00
  0.899700D+01  0.434401D+00
  0.331900D+01  0.346129D+00
  0.905900D+00  0.393780D-01
  0.364300D+00 -0.898300D-02
  0.128500D+00  0.238500D-02
   s    10 1.00
  0.823600D+04 -0.113000D-03
  0.123500D+04 -0.878000D-03
  0.280800D+03 -0.454000D-02
  0.792700D+02 -0.181330D-01
  0.255900D+02 -0.557600D-01
  0.899700D+01 -0.126895D+00
  0.331900D+01 -0.170352D+00
  0.905900D+00  0.140382D+00
  0.364300D+00  0.598684D+00
  0.128500D+00  0.395389D+00
   s     1 1.00
  0.905900D+00  0.100000D+01
   s     1 1.00
  0.364300D+00  0.100000D+01
   p     5 1.00
  0.187100D+02  0.140310D-01
  0.413300D+01  0.868660D-01
  0.120000D+01  0.290216D+00
  0.382700D+00  0.501008D+00
  0.120900D+00  0.343406D+00
   p     1 1.00
  0.382700D+00  0.100000D+01
   p     1 1.00
  0.120900D+00  0.100000D+01
   d     1 1.00
  0.109700D+01  0.100000D+01
   d     1 1.00
  0.318000D+00  0.100000D+01
   f     1 1.00
  0.761000D+00  0.100000D+01
  
  4  0
   s    10 1.00
  0.823600D+04  0.531000D-03
  0.123500D+04  0.410800D-02
  0.280800D+03  0.210870D-01
  0.792700D+02  0.818530D-01
  0.255900D+02  0.234817D+00
  0.899700D+01  0.434401D+00
  0.331900D+01  0.346129D+00
  0.905900D+00  0.393780D-01
  0.364300D+00 -0.898300D-02
  0.128500D+00  0.238500D-02
   s    10 1.00
  0.823600D+04 -0.113000D-03
  0.123500D+04 -0.878000D-03
  0.280800D+03 -0.454000D-02
  0.792700D+02 -0.181330D-01
  0.255900D+02 -0.557600D-01
  0.899700D+01 -0.126895D+00
  0.331900D+01 -0.170352D+00
  0.905900D+00  0.140382D+00
  0.364300D+00  0.598684D+00
  0.128500D+00  0.395389D+00
   s     1 1.00
  0.905900D+00  0.100000D+01
   s     1 1.00
  0.364300D+00  0.100000D+01
   p     5 1.00
  0.187100D+02  0.140310D-01
  0.413300D+01  0.868660D-01
  0.120000D+01  0.290216D+00
  0.382700D+00  0.501008D+00
  0.120900D+00  0.343406D+00
   p     1 1.00
  0.382700D+00  0.100000D+01
   p     1 1.00
  0.120900D+00  0.100000D+01
   d     1 1.00
  0.109700D+01  0.100000D+01
   d     1 1.00
  0.318000D+00  0.100000D+01
   f     1 1.00
  0.761000D+00  0.100000D+01
  
  5  0
   s    10 1.00
  0.823600D+04  0.531000D-03
  0.123500D+04  0.410800D-02
  0.280800D+03  0.210870D-01
  0.792700D+02  0.818530D-01
  0.255900D+02  0.234817D+00
  0.899700D+01  0.434401D+00
  0.331900D+01  0.346129D+00
  0.905900D+00  0.393780D-01
  0.364300D+00 -0.898300D-02
  0.128500D+00  0.238500D-02
   s    10 1.00
  0.823600D+04 -0.113000D-03
  0.123500D+04 -0.878000D-03
  0.280800D+03 -0.454000D-02
  0.792700D+02 -0.181330D-01
  0.255900D+02 -0.557600D-01
  0.899700D+01 -0.126895D+00
  0.331900D+01 -0.170352D+00
  0.905900D+00  0.140382D+00
  0.364300D+00  0.598684D+00
  0.128500D+00  0.395389D+00
   s     1 1.00
  0.905900D+00  0.100000D+01
   s     1 1.00
  0.364300D+00  0.100000D+01
   p     5 1.00
  0.187100D+02  0.140310D-01
  0.413300D+01  0.868660D-01
  0.120000D+01  0.290216D+00
  0.382700D+00  0.501008D+00
  0.120900D+00  0.343406D+00
   p     1 1.00
  0.382700D+00  0.100000D+01
   p     1 1.00
  0.120900D+00  0.100000D+01
   d     1 1.00
  0.109700D+01  0.100000D+01
   d     1 1.00
  0.318000D+00  0.100000D+01
   f     1 1.00
  0.761000D+00  0.100000D+01
  
  6  0
   s    10 1.00
  0.823600D+04  0.531000D-03
  0.123500D+04  0.410800D-02
  0.280800D+03  0.210870D-01
  0.792700D+02  0.818530D-01
  0.255900D+02  0.234817D+00
  0.899700D+01  0.434401D+00
  0.331900D+01  0.346129D+00
  0.905900D+00  0.393780D-01
  0.364300D+00 -0.898300D-02
  0.128500D+00  0.238500D-02
   s    10 1.00
  0.823600D+04 -0.113000D-03
  0.123500D+04 -0.878000D-03
  0.280800D+03 -0.454000D-02
  0.792700D+02 -0.181330D-01
  0.255900D+02 -0.557600D-01
  0.899700D+01 -0.126895D+00
  0.331900D+01 -0.170352D+00
  0.905900D+00  0.140382D+00
  0.364300D+00  0.598684D+00
  0.128500D+00  0.395389D+00
   s     1 1.00
  0.905900D+00  0.100000D+01
   s     1 1.00
  0.364300D+00  0.100000D+01
   p     5 1.00
  0.187100D+02  0.140310D-01
  0.413300D+01  0.868660D-01
  0.120000D+01  0.290216D+00
  0.382700D+00  0.501008D+00
  0.120900D+00  0.343406D+00
   p     1 1.00
  0.382700D+00  0.100000D+01
   p     1 1.00
  0.120900D+00  0.100000D+01
   d     1 1.00
  0.109700D+01  0.100000D+01
   d     1 1.00
  0.318000D+00  0.100000D+01
   f     1 1.00
  0.761000D+00  0.100000D+01
  
  7  0
   s    10 1.00
  0.823600D+04  0.531000D-03
  0.123500D+04  0.410800D-02
  0.280800D+03  0.210870D-01
  0.792700D+02  0.818530D-01
  0.255900D+02  0.234817D+00
  0.899700D+01  0.434401D+00
  0.331900D+01  0.346129D+00
  0.905900D+00  0.393780D-01
  0.364300D+00 -0.898300D-02
  0.128500D+00  0.238500D-02
   s    10 1.00
  0.823600D+04 -0.113000D-03
  0.123500D+04 -0.878000D-03
  0.280800D+03 -0.454000D-02
  0.792700D+02 -0.181330D-01
  0.255900D+02 -0.557600D-01
  0.899700D+01 -0.126895D+00
  0.331900D+01 -0.170352D+00
  0.905900D+00  0.140382D+00
  0.364300D+00  0.598684D+00
  0.128500D+00  0.395389D+00
   s     1 1.00
  0.905900D+00  0.100000D+01
   s     1 1.00
  0.364300D+00  0.100000D+01
   p     5 1.00
  0.187100D+02  0.140310D-01
  0.413300D+01  0.868660D-01
  0.120000D+01  0.290216D+00
  0.382700D+00  0.501008D+00
  0.120900D+00  0.343406D+00
   p     1 1.00
  0.382700D+00  0.100000D+01
   p     1 1.00
  0.120900D+00  0.100000D+01
   d     1 1.00
  0.109700D+01  0.100000D+01
   d     1 1.00
  0.318000D+00  0.100000D+01
   f     1 1.00
  0.761000D+00  0.100000D+01
  
  8  0
   s     4 1.00
  0.130100D+02  0.196850D-01
  0.196200D+01  0.137977D+00
  0.444600D+00  0.478148D+00
  0.122000D+00  0.501240D+00
   s     1 1.00
  0.122000D+00  0.100000D+01
   p     1 1.00
  0.727000D+00  0.100000D+01
  
  9  0
   s     4 1.00
  0.130100D+02  0.196850D-01
  0.196200D+01  0.137977D+00
  0.444600D+00  0.478148D+00
  0.122000D+00  0.501240D+00
   s     1 1.00
  0.122000D+00  0.100000D+01
   p     1 1.00
  0.727000D+00  0.100000D+01
  
 10  0
   s     4 1.00
  0.130100D+02  0.196850D-01
  0.196200D+01  0.137977D+00
  0.444600D+00  0.478148D+00
  0.122000D+00  0.501240D+00
   s     1 1.00
  0.122000D+00  0.100000D+01
   p     1 1.00
  0.727000D+00  0.100000D+01
  
 11  0
   s     4 1.00
  0.130100D+02  0.196850D-01
  0.196200D+01  0.137977D+00
  0.444600D+00  0.478148D+00
  0.122000D+00  0.501240D+00
   s     1 1.00
  0.122000D+00  0.100000D+01
   p     1 1.00
  0.727000D+00  0.100000D+01
  
 12  0
   s     4 1.00
  0.130100D+02  0.196850D-01
  0.196200D+01  0.137977D+00
  0.444600D+00  0.478148D+00
  0.122000D+00  0.501240D+00
   s     1 1.00
  0.122000D+00  0.100000D+01
   p     1 1.00
  0.727000D+00  0.100000D+01
  
 13  0
   s     4 1.00
  0.130100D+02  0.196850D-01
  0.196200D+01  0.137977D+00
  0.444600D+00  0.478148D+00
  0.122000D+00  0.501240D+00
   s     1 1.00
  0.122000D+00  0.100000D+01
   p     1 1.00
  0.727000D+00  0.100000D+01
  
 14  0
   s     4 1.00
  0.130100D+02  0.196850D-01
  0.196200D+01  0.137977D+00
  0.444600D+00  0.478148D+00
  0.122000D+00  0.501240D+00
   s     1 1.00
  0.122000D+00  0.100000D+01
   p     1 1.00
  0.727000D+00  0.100000D+01
  
[MO]
 Sym= __1_A__
 Ene=  0.000000000000000E+000
 Spin= Alpha
 Occup=    2.00000000000000     
                     1  1.789197485260818E-004
                     2  0.997704339711686     
                     3  8.881019790694502E-003
                     4  2.394179739151131E-003
                     5  3.113829521568702E-003
                     6  4.486735955326137E-003
                     7 -3.255968506519108E-003
                     8 -1.426014574396503E-004
                     9 -6.069921441254635E-004
                    10 -1.481817022756236E-004
                    11 -3.214080869687734E-004
                    12 -9.374981101911199E-004
                    13  1.941636159870204E-003
                    14 -4.388698913479003E-004
                    15  2.374487262632914E-004
                    16  2.668462970901904E-004
                    17  2.346406759266006E-004
                    18  1.638860644276336E-004
                    19  1.907004620733764E-004
                    20 -2.863419335561033E-004
                    21  1.496097943730965E-004
                    22  1.136375310329956E-004
                    23 -6.899963977651680E-006
                    24 -3.362005771583258E-004
                    25  3.599492830860989E-005
                    26 -3.791907009054591E-004
                    27 -2.337541924230292E-004
                    28 -1.479744718781947E-005
                    29 -1.551615658392386E-004
                    30 -1.305115353371204E-004
                    31 -9.227542103247801E-005
                    32 -3.606789898339188E-004
                    33  1.733612675928421E-003
                    34  1.959473262252422E-004
                    35 -1.852523951693334E-004
                    36 -5.775550930673734E-003
                    37  7.668427620362811E-005
                    38  1.560250653294896E-004
                    39  8.495075020425956E-005
                    40 -6.201232608251753E-006
                    41 -9.941634248271090E-005
                    42  4.210679829609525E-003
                    43  7.326673662151428E-004
                    44  3.826042481985042E-005
                    45 -2.611034573284967E-004
                    46  2.280766237477371E-005
                    47  1.603973995781230E-006
                    48  2.218445742414620E-004
                    49  4.592720571909397E-005
                    50  2.678935965638350E-004
                    51 -1.258012921000751E-004
                    52 -2.336548386149042E-005
                    53  1.605932955703717E-004
                    54 -2.926209434883891E-004
                    55 -4.481521581638917E-006
                    56 -1.168162501020756E-004
                    57  1.428003894607029E-005
                    58 -1.033315218306758E-005
                    59 -1.365717365246109E-005
                    60 -3.491461364306345E-005
                    61  3.816671743208930E-005
                    62 -3.047058844333666E-004
                    63 -1.966152100874173E-003
                    64  6.206297158700931E-005
                    65  8.015785408446662E-004
                    66  9.718449386696668E-004
                    67 -1.541813696373386E-005
                    68 -7.893046988897858E-004
                    69  5.552704476776729E-004
                    70  4.737747530388887E-005
                    71  2.188888083120385E-005
                    72 -4.421679490469160E-004
                    73 -3.226865159545733E-004
                    74 -4.910184325592915E-004
                    75 -8.130587928255224E-005
                    76 -9.405815674454460E-006
                    77  1.540651264331396E-005
                    78  6.270465830937078E-005
                    79 -6.168099550346977E-006
                    80  7.041637287899702E-005
                    81  1.427922592327039E-004
                    82 -3.537741869087851E-005
                    83 -2.651207777188750E-005
                    84  4.233385152784782E-005
                    85 -2.421971068591075E-006
                    86 -7.225777060225706E-005
                    87  1.295823181646850E-005
                    88 -1.889429113221561E-005
                    89  1.345893315584142E-005
                    90 -5.561543729492383E-005
                    91 -9.475653628348367E-006
                    92 -2.684619487320184E-004
                    93 -1.689757569644633E-003
                    94  5.014923052801235E-005
                    95  8.298856276017717E-004
                    96  8.479840605733239E-004
                    97 -2.522161372243116E-005
                    98  6.567432021374584E-004
                    99  4.048454486817291E-004
                   100  7.402501555584989E-005
                   101 -1.689608416692056E-004
                   102 -1.644810740413390E-004
                   103 -3.187229694855673E-004
                   104  5.582447224923229E-004
                   105 -7.462139588419132E-005
                   106  2.594832951912306E-005
                   107 -1.862497019539240E-005
                   108  7.147808260484054E-005
                   109 -9.078909694816492E-006
                   110  1.940329806687663E-004
                   111 -1.580550754155444E-004
                   112  1.825280849034607E-005
                   113 -1.329521682426769E-004
                   114  3.598135580570401E-005
                   115  4.380613398939264E-006
                   116 -7.029424480102278E-005
                   117  2.067551367954003E-005
                   118  2.065187097614582E-005
                   119 -7.853998699879937E-006
                   120 -5.435644032853203E-005
                   121 -1.093207481292960E-005
                   122 -1.632569752326558E-004
                   123 -8.248670008873764E-005
                   124  8.344688680374968E-005
                   125  3.044693502072586E-004
                   126 -7.660169573644142E-004
                   127 -6.181627128060130E-006
                   128  3.289943381856657E-005
                   129  3.084618784434360E-004
                   130 -1.496704452145255E-005
                   131  3.143476383687845E-005
                   132  5.860008079597963E-004
                   133  1.254681356078470E-004
                   134 -2.463101865223367E-004
                   135  6.304364703365477E-006
                   136  2.380924366176254E-006
                   137 -2.418163951085337E-006
                   138 -7.160345079852274E-006
                   139  6.466999721697930E-006
                   140  6.879621410402045E-005
                   141  1.631872886071695E-004
                   142  6.644734513238556E-006
                   143 -1.681131192369400E-004
                   144 -1.555917853167169E-005
                   145 -4.847667687944848E-006
                   146 -1.722462263186344E-005
                   147  2.044183462259249E-006
                   148  1.266832510039418E-006
                   149 -2.101014703622066E-006
                   150 -4.072215574314349E-005
                   151 -5.500301421629796E-007
                   152 -1.640104648019133E-004
                   153 -1.272522088744650E-004
                   154  5.119020734827737E-005
                   155  4.759781419794876E-004
                   156 -7.059980877536852E-004
                   157 -4.932377731965465E-006
                   158 -2.704748412727150E-005
                   159  1.916045796512097E-004
                   160 -1.601397784284314E-005
                   161 -9.607997629012901E-006
                   162  8.326388664561596E-004
                   163  1.225441549296717E-004
                   164  1.739051203421707E-004
                   165  3.855124908965996E-006
                   166  2.412292303210288E-006
                   167  1.965541163491846E-006
                   168 -4.524214894397692E-007
                   169  5.794180526038933E-006
                   170  4.794882631268344E-005
                   171 -1.942193880188370E-004
                   172 -2.510052782340094E-006
                   173 -1.453147126036728E-004
                   174 -1.554578393923436E-005
                   175  8.759869908357319E-006
                   176 -1.279698632527396E-005
                   177  1.576513252721484E-006
                   178  2.719524952068510E-006
                   179  1.850281402550254E-006
                   180 -3.917069393841465E-005
                   181 -1.911279327626441E-007
                   182 -1.111319916530164E-004
                   183 -3.417571435240778E-004
                   184  2.971405880352837E-005
                   185  1.172523802610607E-004
                   186 -5.793860185510412E-006
                   187 -2.749094298560722E-005
                   188 -7.427124523216473E-006
                   189  5.872145795840710E-005
                   190  2.060036484095342E-005
                   191  3.086821427731773E-007
                   192 -1.843913120471202E-004
                   193 -9.286469820117847E-005
                   194 -1.386199717279164E-004
                   195 -1.657666777366379E-005
                   196  9.656588036327864E-007
                   197  2.074977875963094E-007
                   198  8.287193099014860E-006
                   199 -2.644988806765037E-006
                   200 -1.024048144460567E-004
                   201  4.273273918891555E-007
                   202  1.160850727445281E-006
                   203  5.290518993174924E-005
                   204  1.283766501303118E-005
                   205 -1.796872365510377E-006
                   206 -1.319065075784285E-006
                   207  2.748144554829940E-006
                   208 -1.088156180545433E-006
                   209 -4.391494475718237E-007
                   210 -5.455389978236969E-006
                   211 -1.851885990067022E-006
                   212  4.386841885810571E-003
                   213 -3.258658093832060E-003
                   214  1.106237910184124E-004
                   215  1.264946596758503E-004
                   216  1.603369598028147E-004
                   217  4.047534198622557E-003
                   218 -2.586608365921584E-003
                   219  2.381852076509826E-004
                   220  2.214394746667086E-004
                   221 -4.691932089369159E-004
                   222 -6.499793284051479E-004
                   223 -8.632699391524237E-005
                   224 -5.104488663206547E-005
                   225  8.223969156226514E-006
                   226 -7.021295006587884E-007
                   227 -6.636304050867962E-004
                   228 -9.258932971437546E-005
                   229 -7.527043096450410E-005
                   230  1.010034842215338E-005
                   231 -1.069504887339910E-005
                   232 -1.936916443598137E-004
                   233 -3.771147461394987E-004
                   234  2.859508901313979E-006
                   235 -1.066247912664528E-006
                   236 -7.468456627692651E-006
                   237 -1.522086281178781E-004
                   238 -4.146226105462484E-004
                   239  3.308153124268953E-006
                   240 -1.886929115500928E-006
                   241  1.006808241923265E-005
                   242  7.003699841138574E-005
                   243  2.945011735704855E-005
                   244  2.049850174712919E-005
                   245  1.184482674300369E-006
                   246  2.191134846427810E-006
 Sym= __2_A__
 Ene=  0.000000000000000E+000
 Spin= Alpha
 Occup=    2.00000000000000     
                     1 -2.542230525754198E-005
                     2 -1.110182878224379E-004
                     3  1.582806699337579E-003
                     4  1.207449406748394E-005
                     5  1.424418054616625E-003
                     6  2.225570913017932E-003
                     7  3.636319301537317E-004
                     8  4.083616046716228E-005
                     9 -1.352854484247285E-004
                    10  7.253376161759548E-005
                    11  1.555301204245053E-005
                    12 -8.408596890264227E-006
                    13  3.324291113381926E-005
                    14  2.569163307355633E-005
                    15 -7.746943125761542E-005
                    16 -2.434960194542233E-006
                    17 -3.391401427364022E-006
                    18  2.661911599200528E-005
                    19 -5.135422102147633E-006
                    20  3.211364355325447E-004
                    21 -8.227396421372165E-005
                    22 -2.155252511051249E-005
                    23  3.791694248589344E-005
                    24 -6.431838295227398E-005
                    25  6.860566428436594E-006
                    26  1.424874011887389E-004
                    27 -5.687987025046240E-005
                    28  4.166288619055100E-006
                    29  1.669054615813628E-005
                    30  1.432605126934900E-004
                    31  3.173903323385790E-005
                    32   1.00099205192143     
                    33  8.903041580686683E-003
                    34  2.777610516910439E-003
                    35 -8.117666062162561E-003
                    36 -2.932327245634293E-003
                    37  5.640547173593626E-004
                    38  1.498002031171435E-005
                    39  1.186354337092837E-003
                    40 -1.796455923611674E-004
                    41 -5.324853365566197E-005
                    42  3.767264126543072E-003
                    43 -1.176010182972863E-004
                    44 -7.702833980881308E-005
                    45  2.821790468100546E-004
                    46  1.208202789892261E-005
                    47 -2.357517407245742E-006
                    48  4.660420303159592E-004
                    49 -1.254168444663200E-005
                    50 -1.071436010833386E-003
                    51 -1.119817138393453E-004
                    52  1.569725311657891E-005
                    53 -1.068849173245403E-004
                    54 -4.887561728714797E-006
                    55 -4.016987306371546E-006
                    56  3.460643256282892E-004
                    57 -8.001443305382110E-006
                    58 -5.332382920172782E-006
                    59  1.134021257898608E-006
                    60  9.452257642384251E-005
                    61  1.443901067867652E-005
                    62  1.109951331467453E-002
                    63 -1.944581319823678E-003
                    64 -2.943198962288633E-004
                    65  3.104472142179575E-003
                    66 -1.407091370793031E-004
                    67  9.167510522696453E-005
                    68  2.486528654253583E-004
                    69  3.476051321098855E-005
                    70  1.223758732969997E-005
                    71  4.646535776991009E-004
                    72  2.123709675246494E-004
                    73 -6.807319083862966E-006
                    74 -1.964808802578900E-003
                    75 -1.546736997986110E-005
                    76  2.865374678861588E-005
                    77  6.040184600851455E-006
                    78 -3.800432984367168E-005
                    79 -4.208770483622258E-006
                    80 -4.571742567125929E-004
                    81 -4.551431294940254E-004
                    82  1.494215542358198E-005
                    83  7.756245777312463E-004
                    84 -4.890618739894627E-006
                    85  5.670728066327594E-005
                    86  1.181903417024050E-004
                    87  2.860905588335973E-006
                    88 -9.385513499723812E-006
                    89 -6.150009171617383E-006
                    90 -2.428278220204829E-005
                    91  3.778561155309666E-006
                    92  1.129994308989962E-002
                    93 -1.943074142312414E-003
                    94 -3.185864106465101E-004
                    95  3.259234408553355E-003
                    96 -1.534276154720218E-004
                    97  9.727334274842754E-005
                    98 -2.381278258654969E-004
                    99  2.553564855822062E-005
                   100  4.095430599541351E-006
                   101 -5.742007608449027E-004
                   102  9.373942980874201E-005
                   103 -1.819779673452333E-005
                   104  1.890152595176454E-003
                   105 -1.309246064254315E-005
                   106 -2.443373990251737E-005
                   107 -5.671950065649139E-006
                   108 -3.528692582869306E-005
                   109 -4.155544383866671E-006
                   110 -4.058175272008779E-004
                   111  4.565499165733212E-004
                   112 -7.589897046946364E-006
                   113  7.502594131980016E-004
                   114 -4.628757941829092E-007
                   115 -5.105051031736315E-005
                   116  1.127468783568976E-004
                   117  6.241923075361242E-007
                   118  1.537149523206952E-005
                   119  3.146790232234600E-006
                   120 -2.923297490331072E-005
                   121  3.548690809527298E-006
                   122 -1.833015532975308E-004
                   123 -7.508777529725379E-004
                   124  2.480446548567128E-004
                   125 -2.848282686935630E-004
                   126 -1.891559131667623E-004
                   127  1.955653363916645E-005
                   128 -4.377408681714640E-005
                   129  5.994597096997656E-004
                   130 -6.530808632693349E-006
                   131  4.460634826959034E-005
                   132  6.747846629811748E-004
                   133 -7.186963871171361E-006
                   134  3.723192332539415E-004
                   135 -1.315941404507798E-006
                   136  4.306160735347207E-005
                   137  2.890758787878492E-007
                   138 -3.086240284671980E-005
                   139 -1.095012557066541E-006
                   140  2.000871681503177E-004
                   141 -2.552066623592251E-004
                   142 -1.554633103751491E-006
                   143 -2.661788537612512E-004
                   144  9.255173269739122E-007
                   145 -2.005644813759197E-005
                   146  1.725605708558088E-005
                   147  8.979120018238532E-008
                   148 -1.560844695382116E-005
                   149 -9.856362560201788E-007
                   150 -2.332022557123966E-005
                   151 -1.080145628103970E-006
                   152 -1.742645566969032E-004
                   153 -7.325573223146607E-004
                   154  2.547990310359390E-004
                   155 -3.044074101049079E-004
                   156 -1.904398802734865E-004
                   157  1.844610170236153E-005
                   158  3.879554874936355E-005
                   159  5.952756542723989E-004
                   160 -6.130057123684013E-006