[Molden Format]
[Atoms] AU
  N     1    7     0.0000000000   -4.2907334100    0.0000000000        
  C     2    6     0.0000000000   -1.7772236300    0.0000000000        
  C     3    6    -2.3389203600   -0.4111016300    0.0000000000        
  C     4    6     2.3389203600   -0.4111016300    0.0000000000        
  C     5    6    -2.2998668500    2.1639215300    0.0000000000        
  C     6    6     2.2998668500    2.1639215300    0.0000000000        
  C     7    6     0.0000000000    3.4755251800    0.0000000000        
  H     8    1    -4.8249018100   -7.2672928700    0.0000000000        
  H     9    1     1.6528040300   -5.3103747800    0.0000000000        
  H    10    1    -4.0745407300   -1.4447408500    0.0000000000        
  H    11    1     4.0745407300   -1.4447408500    0.0000000000        
  H    12    1    -4.0420632100    3.1963889500    0.0000000000        
  H    13    1     4.0420632100    3.1963889500    0.0000000000        
  H    14    1     0.0000000000    5.5020335600    0.0000000000        
[5D]
[7F]
[GTO]
  1  0
   s    12 1.00
  0.114200D+05  0.172695D-04
  0.171200D+04  0.134411D-03
  0.389300D+03  0.694561D-03
  0.110000D+03  0.278531D-02
  0.355700D+02  0.863457D-02
  0.125400D+02  0.199805D-01
  0.464400D+01  0.262908D-01
  0.129300D+01 -0.243845D-01
  0.511800D+00 -0.924934D-01
  0.178700D+00 -0.339683D+00
  0.246240D-01  0.345111D+00
  0.112530D-01  0.752750D+00
   s    10 1.00
  0.114200D+05  0.523000D-03
  0.171200D+04  0.404500D-02
  0.389300D+03  0.207750D-01
  0.110000D+03  0.807269D-01
  0.355700D+02  0.233074D+00
  0.125400D+02  0.433501D+00
  0.464400D+01  0.347472D+00
  0.129300D+01  0.412620D-01
  0.511800D+00 -0.850799D-02
  0.178700D+00  0.238400D-02
   s    10 1.00
  0.114200D+05 -0.115000D-03
  0.171200D+04 -0.895000D-03
  0.389300D+03 -0.462400D-02
  0.110000D+03 -0.185280D-01
  0.355700D+02 -0.573390D-01
  0.125400D+02 -0.132076D+00
  0.464400D+01 -0.172510D+00
  0.129300D+01  0.151814D+00
  0.511800D+00  0.599944D+00
  0.178700D+00  0.387462D+00
   s     1 1.00
  0.129300D+01  0.100000D+01
   s     1 1.00
  0.178700D+00  0.100000D+01
   p     5 1.00
  0.266300D+02  0.146700D-01
  0.594800D+01  0.917640D-01
  0.174200D+01  0.298683D+00
  0.555000D+00  0.498487D+00
  0.172500D+00  0.337023D+00
   p     1 1.00
  0.174200D+01  0.100000D+01
   p     1 1.00
  0.555000D+00  0.100000D+01
   d     1 1.00
  0.165400D+01  0.100000D+01
   d     1 1.00
  0.469000D+00  0.100000D+01
   f     1 1.00
  0.109300D+01  0.100000D+01
  
  2  0
   s    10 1.00
  0.823600D+04  0.531000D-03
  0.123500D+04  0.410800D-02
  0.280800D+03  0.210870D-01
  0.792700D+02  0.818530D-01
  0.255900D+02  0.234817D+00
  0.899700D+01  0.434401D+00
  0.331900D+01  0.346129D+00
  0.905900D+00  0.393780D-01
  0.364300D+00 -0.898300D-02
  0.128500D+00  0.238500D-02
   s    10 1.00
  0.823600D+04 -0.113000D-03
  0.123500D+04 -0.878000D-03
  0.280800D+03 -0.454000D-02
  0.792700D+02 -0.181330D-01
  0.255900D+02 -0.557600D-01
  0.899700D+01 -0.126895D+00
  0.331900D+01 -0.170352D+00
  0.905900D+00  0.140382D+00
  0.364300D+00  0.598684D+00
  0.128500D+00  0.395389D+00
   s     1 1.00
  0.905900D+00  0.100000D+01
   s     1 1.00
  0.364300D+00  0.100000D+01
   p     5 1.00
  0.187100D+02  0.140310D-01
  0.413300D+01  0.868660D-01
  0.120000D+01  0.290216D+00
  0.382700D+00  0.501008D+00
  0.120900D+00  0.343406D+00
   p     1 1.00
  0.382700D+00  0.100000D+01
   p     1 1.00
  0.120900D+00  0.100000D+01
   d     1 1.00
  0.109700D+01  0.100000D+01
   d     1 1.00
  0.318000D+00  0.100000D+01
   f     1 1.00
  0.761000D+00  0.100000D+01
  
  3  0
   s    10 1.00
  0.823600D+04  0.531000D-03
  0.123500D+04  0.410800D-02
  0.280800D+03  0.210870D-01
  0.792700D+02  0.818530D-01
  0.255900D+02  0.234817D+00
  0.899700D+01  0.434401D+00
  0.331900D+01  0.346129D+00
  0.905900D+00  0.393780D-01
  0.364300D+00 -0.898300D-02
  0.128500D+00  0.238500D-02
   s    10 1.00
  0.823600D+04 -0.113000D-03
  0.123500D+04 -0.878000D-03
  0.280800D+03 -0.454000D-02
  0.792700D+02 -0.181330D-01
  0.255900D+02 -0.557600D-01
  0.899700D+01 -0.126895D+00
  0.331900D+01 -0.170352D+00
  0.905900D+00  0.140382D+00
  0.364300D+00  0.598684D+00
  0.128500D+00  0.395389D+00
   s     1 1.00
  0.905900D+00  0.100000D+01
   s     1 1.00
  0.364300D+00  0.100000D+01
   p     5 1.00
  0.187100D+02  0.140310D-01
  0.413300D+01  0.868660D-01
  0.120000D+01  0.290216D+00
  0.382700D+00  0.501008D+00
  0.120900D+00  0.343406D+00
   p     1 1.00
  0.382700D+00  0.100000D+01
   p     1 1.00
  0.120900D+00  0.100000D+01
   d     1 1.00
  0.109700D+01  0.100000D+01
   d     1 1.00
  0.318000D+00  0.100000D+01
   f     1 1.00
  0.761000D+00  0.100000D+01
  
  4  0
   s    10 1.00
  0.823600D+04  0.531000D-03
  0.123500D+04  0.410800D-02
  0.280800D+03  0.210870D-01
  0.792700D+02  0.818530D-01
  0.255900D+02  0.234817D+00
  0.899700D+01  0.434401D+00
  0.331900D+01  0.346129D+00
  0.905900D+00  0.393780D-01
  0.364300D+00 -0.898300D-02
  0.128500D+00  0.238500D-02
   s    10 1.00
  0.823600D+04 -0.113000D-03
  0.123500D+04 -0.878000D-03
  0.280800D+03 -0.454000D-02
  0.792700D+02 -0.181330D-01
  0.255900D+02 -0.557600D-01
  0.899700D+01 -0.126895D+00
  0.331900D+01 -0.170352D+00
  0.905900D+00  0.140382D+00
  0.364300D+00  0.598684D+00
  0.128500D+00  0.395389D+00
   s     1 1.00
  0.905900D+00  0.100000D+01
   s     1 1.00
  0.364300D+00  0.100000D+01
   p     5 1.00
  0.187100D+02  0.140310D-01
  0.413300D+01  0.868660D-01
  0.120000D+01  0.290216D+00
  0.382700D+00  0.501008D+00
  0.120900D+00  0.343406D+00
   p     1 1.00
  0.382700D+00  0.100000D+01
   p     1 1.00
  0.120900D+00  0.100000D+01
   d     1 1.00
  0.109700D+01  0.100000D+01
   d     1 1.00
  0.318000D+00  0.100000D+01
   f     1 1.00
  0.761000D+00  0.100000D+01
  
  5  0
   s    10 1.00
  0.823600D+04  0.531000D-03
  0.123500D+04  0.410800D-02
  0.280800D+03  0.210870D-01
  0.792700D+02  0.818530D-01
  0.255900D+02  0.234817D+00
  0.899700D+01  0.434401D+00
  0.331900D+01  0.346129D+00
  0.905900D+00  0.393780D-01
  0.364300D+00 -0.898300D-02
  0.128500D+00  0.238500D-02
   s    10 1.00
  0.823600D+04 -0.113000D-03
  0.123500D+04 -0.878000D-03
  0.280800D+03 -0.454000D-02
  0.792700D+02 -0.181330D-01
  0.255900D+02 -0.557600D-01
  0.899700D+01 -0.126895D+00
  0.331900D+01 -0.170352D+00
  0.905900D+00  0.140382D+00
  0.364300D+00  0.598684D+00
  0.128500D+00  0.395389D+00
   s     1 1.00
  0.905900D+00  0.100000D+01
   s     1 1.00
  0.364300D+00  0.100000D+01
   p     5 1.00
  0.187100D+02  0.140310D-01
  0.413300D+01  0.868660D-01
  0.120000D+01  0.290216D+00
  0.382700D+00  0.501008D+00
  0.120900D+00  0.343406D+00
   p     1 1.00
  0.382700D+00  0.100000D+01
   p     1 1.00
  0.120900D+00  0.100000D+01
   d     1 1.00
  0.109700D+01  0.100000D+01
   d     1 1.00
  0.318000D+00  0.100000D+01
   f     1 1.00
  0.761000D+00  0.100000D+01
  
  6  0
   s    10 1.00
  0.823600D+04  0.531000D-03
  0.123500D+04  0.410800D-02
  0.280800D+03  0.210870D-01
  0.792700D+02  0.818530D-01
  0.255900D+02  0.234817D+00
  0.899700D+01  0.434401D+00
  0.331900D+01  0.346129D+00
  0.905900D+00  0.393780D-01
  0.364300D+00 -0.898300D-02
  0.128500D+00  0.238500D-02
   s    10 1.00
  0.823600D+04 -0.113000D-03
  0.123500D+04 -0.878000D-03
  0.280800D+03 -0.454000D-02
  0.792700D+02 -0.181330D-01
  0.255900D+02 -0.557600D-01
  0.899700D+01 -0.126895D+00
  0.331900D+01 -0.170352D+00
  0.905900D+00  0.140382D+00
  0.364300D+00  0.598684D+00
  0.128500D+00  0.395389D+00
   s     1 1.00
  0.905900D+00  0.100000D+01
   s     1 1.00
  0.364300D+00  0.100000D+01
   p     5 1.00
  0.187100D+02  0.140310D-01
  0.413300D+01  0.868660D-01
  0.120000D+01  0.290216D+00
  0.382700D+00  0.501008D+00
  0.120900D+00  0.343406D+00
   p     1 1.00
  0.382700D+00  0.100000D+01
   p     1 1.00
  0.120900D+00  0.100000D+01
   d     1 1.00
  0.109700D+01  0.100000D+01
   d     1 1.00
  0.318000D+00  0.100000D+01
   f     1 1.00
  0.761000D+00  0.100000D+01
  
  7  0
   s    10 1.00
  0.823600D+04  0.531000D-03
  0.123500D+04  0.410800D-02
  0.280800D+03  0.210870D-01
  0.792700D+02  0.818530D-01
  0.255900D+02  0.234817D+00
  0.899700D+01  0.434401D+00
  0.331900D+01  0.346129D+00
  0.905900D+00  0.393780D-01
  0.364300D+00 -0.898300D-02
  0.128500D+00  0.238500D-02
   s    10 1.00
  0.823600D+04 -0.113000D-03
  0.123500D+04 -0.878000D-03
  0.280800D+03 -0.454000D-02
  0.792700D+02 -0.181330D-01
  0.255900D+02 -0.557600D-01
  0.899700D+01 -0.126895D+00
  0.331900D+01 -0.170352D+00
  0.905900D+00  0.140382D+00
  0.364300D+00  0.598684D+00
  0.128500D+00  0.395389D+00
   s     1 1.00
  0.905900D+00  0.100000D+01
   s     1 1.00
  0.364300D+00  0.100000D+01
   p     5 1.00
  0.187100D+02  0.140310D-01
  0.413300D+01  0.868660D-01
  0.120000D+01  0.290216D+00
  0.382700D+00  0.501008D+00
  0.120900D+00  0.343406D+00
   p     1 1.00
  0.382700D+00  0.100000D+01
   p     1 1.00
  0.120900D+00  0.100000D+01
   d     1 1.00
  0.109700D+01  0.100000D+01
   d     1 1.00
  0.318000D+00  0.100000D+01
   f     1 1.00
  0.761000D+00  0.100000D+01
  
  8  0
   s     4 1.00
  0.130100D+02  0.196850D-01
  0.196200D+01  0.137977D+00
  0.444600D+00  0.478148D+00
  0.122000D+00  0.501240D+00
   s     1 1.00
  0.122000D+00  0.100000D+01
   p     1 1.00
  0.727000D+00  0.100000D+01
  
  9  0
   s     4 1.00
  0.130100D+02  0.196850D-01
  0.196200D+01  0.137977D+00
  0.444600D+00  0.478148D+00
  0.122000D+00  0.501240D+00
   s     1 1.00
  0.122000D+00  0.100000D+01
   p     1 1.00
  0.727000D+00  0.100000D+01
  
 10  0
   s     4 1.00
  0.130100D+02  0.196850D-01
  0.196200D+01  0.137977D+00
  0.444600D+00  0.478148D+00
  0.122000D+00  0.501240D+00
   s     1 1.00
  0.122000D+00  0.100000D+01
   p     1 1.00
  0.727000D+00  0.100000D+01
  
 11  0
   s     4 1.00
  0.130100D+02  0.196850D-01
  0.196200D+01  0.137977D+00
  0.444600D+00  0.478148D+00
  0.122000D+00  0.501240D+00
   s     1 1.00
  0.122000D+00  0.100000D+01
   p     1 1.00
  0.727000D+00  0.100000D+01
  
 12  0
   s     4 1.00
  0.130100D+02  0.196850D-01
  0.196200D+01  0.137977D+00
  0.444600D+00  0.478148D+00
  0.122000D+00  0.501240D+00
   s     1 1.00
  0.122000D+00  0.100000D+01
   p     1 1.00
  0.727000D+00  0.100000D+01
  
 13  0
   s     4 1.00
  0.130100D+02  0.196850D-01
  0.196200D+01  0.137977D+00
  0.444600D+00  0.478148D+00
  0.122000D+00  0.501240D+00
   s     1 1.00
  0.122000D+00  0.100000D+01
   p     1 1.00
  0.727000D+00  0.100000D+01
  
 14  0
   s     4 1.00
  0.130100D+02  0.196850D-01
  0.196200D+01  0.137977D+00
  0.444600D+00  0.478148D+00
  0.122000D+00  0.501240D+00
   s     1 1.00
  0.122000D+00  0.100000D+01
   p     1 1.00
  0.727000D+00  0.100000D+01
  
[MO]
 Sym= __1_A__
 Ene=   1.00000000000000     
 Spin= Alpha
 Occup=    1.00000000000000     
                     1  1.215591491570754E-004
                     2  0.998319741616824     
                     3 -3.161739187319969E-003
                     4  1.972323911291333E-003
                     5  6.518959735504671E-003
                     6  2.779996701671221E-003
                     7  5.873882857720086E-003
                     8  0.000000000000000E+000
                     9 -7.551084365766080E-004
                    10 -5.920713982219874E-004
                    11  0.000000000000000E+000
                    12 -2.590465274558538E-003
                    13 -1.540449253307293E-003
                    14  0.000000000000000E+000
                    15 -5.437837616315359E-005
                    16  0.000000000000000E+000
                    17  0.000000000000000E+000
                    18 -1.879739976201426E-004
                    19 -7.026787936316908E-005
                    20  1.308723901719473E-004
                    21  0.000000000000000E+000
                    22  0.000000000000000E+000
                    23 -1.832245193633068E-004
                    24  5.961924940010290E-004
                    25  0.000000000000000E+000
                    26  3.282347014376620E-006
                    27 -5.428595997872596E-005
                    28  0.000000000000000E+000
                    29  0.000000000000000E+000
                    30  1.775450895442771E-005
                    31 -1.080763822179703E-004
                    32 -3.604957394358730E-004
                    33  4.322396645669789E-004
                    34  3.274067652322019E-004
                    35 -8.025860294293274E-005
                    36  6.943878783847022E-005
                    37 -2.816187419868484E-003
                    38  0.000000000000000E+000
                    39  5.045487737867918E-004
                    40  2.274161506036298E-004
                    41  0.000000000000000E+000
                    42 -2.505718171564381E-003
                    43  5.030605570038368E-003
                    44  0.000000000000000E+000
                    45  4.680410322339930E-006
                    46  0.000000000000000E+000
                    47  0.000000000000000E+000
                    48 -1.309790843607669E-004
                    49  2.008530105787686E-005
                    50 -1.787853358703002E-004
                    51  0.000000000000000E+000
                    52  0.000000000000000E+000
                    53  1.913131124034854E-004
                    54  8.258522906111471E-004
                    55  0.000000000000000E+000
                    56 -9.113773268096916E-006
                    57 -8.755243492040567E-005
                    58  0.000000000000000E+000
                    59  0.000000000000000E+000
                    60 -2.249448885876222E-005
                    61 -1.448445663161888E-004
                    62 -5.843448353984970E-004
                    63 -2.312173813662420E-003
                    64 -9.102490676107100E-005
                    65  2.336157972081435E-003
                    66 -5.757792393382109E-004
                    67  1.172575184594360E-004
                    68  0.000000000000000E+000
                    69  4.645327828976859E-004
                    70  9.069760034555931E-004
                    71  0.000000000000000E+000
                    72 -1.757491636817038E-003
                    73  7.913670230429933E-004
                    74  0.000000000000000E+000
                    75 -4.566921460215839E-005
                    76  0.000000000000000E+000
                    77  0.000000000000000E+000
                    78 -7.085696798071600E-005
                    79 -2.914397228381305E-005
                    80 -1.563899112442190E-004
                    81  0.000000000000000E+000
                    82  0.000000000000000E+000
                    83  1.121896156461069E-004
                    84  7.575420031269252E-005
                    85  0.000000000000000E+000
                    86  6.730515166242713E-006
                    87 -4.130147043761295E-005
                    88  0.000000000000000E+000
                    89  0.000000000000000E+000
                    90 -1.227912409577499E-005
                    91 -1.606003706370986E-004
                    92 -1.055645244475424E-004
                    93 -3.282096487226107E-004
                    94  2.091331540586248E-004
                    95 -4.349962008043673E-004
                    96  1.724317232721962E-004
                    97 -1.319968439737224E-004
                    98  0.000000000000000E+000
                    99  4.144940608567087E-004
                   100  3.148861776468989E-004
                   101  0.000000000000000E+000
                   102  5.799344293480895E-004
                   103 -1.505968821884861E-003
                   104  0.000000000000000E+000
                   105 -1.338988881467677E-005
                   106  0.000000000000000E+000
                   107  0.000000000000000E+000
                   108 -2.929697403900330E-005
                   109 -1.070545952301646E-005
                   110  1.658223494095115E-004
                   111  0.000000000000000E+000
                   112  0.000000000000000E+000
                   113 -7.399464275475235E-005
                   114 -9.076568866668592E-006
                   115  0.000000000000000E+000
                   116 -2.223410648634269E-005
                   117 -2.479264147466512E-005
                   118  0.000000000000000E+000
                   119  0.000000000000000E+000
                   120  2.035217839195049E-005
                   121 -2.395895867305131E-005
                   122 -2.691940996484992E-004
                   123 -6.885631557184273E-004
                   124  1.761254883356736E-004
                   125  3.942823453633191E-004
                   126 -2.720105751845798E-005
                   127 -2.958692289068753E-004
                   128  0.000000000000000E+000
                   129  2.225827812114203E-004
                   130  6.277938303558912E-004
                   131  0.000000000000000E+000
                   132  3.691429280334908E-004
                   133  2.096934049706325E-003
                   134  0.000000000000000E+000
                   135  1.362907708408997E-005
                   136  0.000000000000000E+000
                   137  0.000000000000000E+000
                   138  4.987583237536236E-005
                   139 -2.135940032765936E-006
                   140  2.215824258500668E-004
                   141  0.000000000000000E+000
                   142  0.000000000000000E+000
                   143  4.015351597801730E-004
                   144  2.569731908560936E-004
                   145  0.000000000000000E+000
                   146 -1.080540821440211E-005
                   147 -6.563750674813665E-005
                   148  0.000000000000000E+000
                   149  0.000000000000000E+000
                   150 -2.028437880193167E-005
                   151 -5.845123448935307E-005
                   152 -1.673669942856880E-004
                   153 -5.269388501666984E-004
                   154  2.120869413536172E-005
                   155  4.293752888858795E-004
                   156  1.144161167208159E-005
                   157  7.044251625654590E-006
                   158  0.000000000000000E+000
                   159  3.563853135104189E-005
                   160 -4.107562052689168E-005
                   161  0.000000000000000E+000
                   162  7.168456814911196E-004
                   163 -4.135453052911110E-004
                   164  0.000000000000000E+000
                   165 -1.391272699444747E-007
                   166  0.000000000000000E+000
                   167  0.000000000000000E+000
                   168 -2.240351645103300E-006
                   169  1.468640214616508E-005
                   170  5.458231831034297E-005
                   171  0.000000000000000E+000
                   172  0.000000000000000E+000
                   173  6.681426566118634E-006
                   174  4.725896454285925E-006
                   175  0.000000000000000E+000
                   176  5.405746348318041E-006
                   177 -7.995462248593485E-006
                   178  0.000000000000000E+000
                   179  0.000000000000000E+000
                   180 -3.004524725229022E-005
                   181 -1.453443899725940E-005
                   182 -1.639857668557231E-004
                   183 -4.743212387646985E-004
                   184  4.157530110648844E-005
                   185  2.485217130753514E-004
                   186 -4.668913604008969E-005
                   187 -7.016161423049133E-005
                   188  0.000000000000000E+000
                   189  2.353978917381573E-004
                   190  9.460864108530229E-005
                   191  0.000000000000000E+000
                   192  1.389681449754862E-003
                   193 -2.756200684655330E-004
                   194  0.000000000000000E+000
                   195  2.293306605610720E-007
                   196  0.000000000000000E+000
                   197  0.000000000000000E+000
                   198 -3.982036284820842E-006
                   199  8.922462090812431E-006
                   200  4.697987548331341E-006
                   201  0.000000000000000E+000
                   202  0.000000000000000E+000
                   203 -8.290567910283209E-005
                   204 -2.037947337007695E-004
                   205  0.000000000000000E+000
                   206 -7.033649249941650E-006
                   207 -4.333278832305626E-006
                   208  0.000000000000000E+000
                   209  0.000000000000000E+000
                   210  1.131297681856741E-005
                   211 -4.748768433105284E-006
                   212 -6.059500066802380E-005
                   213  1.116892488551683E-004
                   214  2.160167091022341E-005
                   215  2.206753957289725E-005
                   216  0.000000000000000E+000
                   217 -1.447554420118794E-003
                   218 -4.131479488187808E-004
                   219 -2.350164452625102E-004
                   220  6.184611643593959E-005
                   221  0.000000000000000E+000
                   222 -2.031404186368447E-004
                   223 -6.260702816969041E-004
                   224  2.940062292505537E-005
                   225 -7.079715977858105E-005
                   226  0.000000000000000E+000
                   227  1.275050520596380E-004
                   228 -6.798615396357017E-004
                   229 -3.945558383158762E-005
                   230 -1.571578195491852E-005
                   231  0.000000000000000E+000
                   232  2.959148080150419E-005
                   233 -5.987234736505270E-004
                   234  1.438687217708269E-005
                   235 -3.155467132146069E-006
                   236  0.000000000000000E+000
                   237  2.190178915599042E-005
                   238 -3.726284400572524E-004
                   239  2.429686258624332E-007
                   240  6.774117220095515E-006
                   241  0.000000000000000E+000
                   242 -6.886472377549843E-005
                   243  3.336306846811013E-005
                   244  7.509790496739411E-007
                   245  2.871607207855791E-005
                   246  0.000000000000000E+000
 Sym= __2_A__
 Ene=   2.00000000000000     
 Spin= Alpha
 Occup=    1.00000000000000     
                     1  4.143368126610992E-005
                     2  3.559999104859215E-004
                     3 -3.498367586818679E-003
                     4 -1.252075582534590E-004
                     5 -1.595427873425748E-003
                     6  1.017322603639139E-003
                     7 -4.184877694614262E-003
                     8  0.000000000000000E+000
                     9  6.879760638451409E-005
                    10  8.590462746660538E-005
                    11  0.000000000000000E+000
                    12 -1.634086723923050E-004
                    13  4.006772208926300E-004
                    14  0.000000000000000E+000
                    15 -2.310265508057357E-005
                    16  0.000000000000000E+000
                    17  0.000000000000000E+000
                    18  7.481505489295563E-005
                    19 -2.515358488072070E-005
                    20  1.535523997288196E-004
                    21  0.000000000000000E+000
                    22  0.000000000000000E+000
                    23 -7.144358803631243E-005
                    24  5.120788568838185E-005
                    25  0.000000000000000E+000
                    26  1.759707289417213E-005
                    27 -6.969366743520763E-005
                    28  0.000000000000000E+000
                    29  0.000000000000000E+000
                    30  3.023660427771064E-005
                    31 -1.312627500424875E-004
                    32  -1.00080706930920     
                    33 -9.557599531605654E-003
                    34 -2.883682536298860E-003
                    35  8.304715202473188E-003
                    36  4.168187146910219E-004
                    37  4.892482061552648E-003
                    38  0.000000000000000E+000
                    39 -1.679706934723233E-004
                    40 -5.099910962074998E-004
                    41  0.000000000000000E+000
                    42 -1.580920912713243E-004
                    43 -4.794622007673132E-003
                    44  0.000000000000000E+000
                    45  5.377288301935362E-004
                    46  0.000000000000000E+000
                    47  0.000000000000000E+000
                    48  2.439650416464780E-004
                    49  5.728884474734989E-006
                    50 -5.622186467394845E-004
                    51  0.000000000000000E+000
                    52  0.000000000000000E+000
                    53  9.056310356189916E-004
                    54 -8.591571933895674E-006
                    55  0.000000000000000E+000
                    56  3.281542890201844E-007
                    57 -1.138196034330089E-004
                    58  0.000000000000000E+000
                    59  0.000000000000000E+000
                    60 -2.193050711315013E-006
                    61 -3.975070769257606E-004
                    62 -1.443429301065568E-002
                    63  2.314415609380024E-003
                    64  2.706121102547000E-004
                    65 -3.038165661392917E-003
                    66  2.514111310188109E-004
                    67 -4.128557162646299E-004
                    68  0.000000000000000E+000
                    69 -7.365849936972270E-004
                    70 -1.478807672465308E-005
                    71  0.000000000000000E+000
                    72  2.131994773826062E-003
                    73  4.805172158526108E-006
                    74  0.000000000000000E+000
                    75 -2.567736636294939E-005
                    76  0.000000000000000E+000
                    77  0.000000000000000E+000
                    78  2.584792052586892E-005
                    79  1.589006037819545E-006
                    80  4.170362907476912E-004
                    81  0.000000000000000E+000
                    82  0.000000000000000E+000
                    83  6.240364823706861E-004
                    84  3.448229316646007E-004
                    85  0.000000000000000E+000
                    86 -3.411724512304084E-005
                    87  6.066639368515643E-005
                    88  0.000000000000000E+000
                    89  0.000000000000000E+000
                    90 -6.051606556228038E-005
                    91 -1.459447399469266E-004
                    92 -1.597203531027508E-002
                    93  2.354382590642627E-003
                    94  2.550036928424190E-004
                    95 -3.015461011148934E-003
                    96 -5.278118502449803E-004
                    97 -5.389677249611356E-004
                    98  0.000000000000000E+000
                    99  7.193900483814024E-004
                   100 -3.335667151182830E-005
                   101  0.000000000000000E+000
                   102 -2.106768147177735E-003
                   103  4.355643568792967E-007
                   104  0.000000000000000E+000
                   105 -3.174255570126926E-005
                   106  0.000000000000000E+000
                   107  0.000000000000000E+000
                   108  2.964383026173822E-005
                   109  1.533904154324268E-005
                   110  4.000468765987033E-004
                   111  0.000000000000000E+000
                   112  0.000000000000000E+000
                   113  6.161098824402362E-004
                   114 -3.173552275455231E-004
                   115  0.000000000000000E+000
                   116  3.719624211999893E-005
                   117  6.498405421396962E-005
                   118  0.000000000000000E+000
                   119  0.000000000000000E+000
                   120  5.432542621980351E-005
                   121 -1.429214888095514E-004
                   122 -1.978165689294261E-004
                   123  5.333504619885599E-004
                   124 -2.296923745026940E-004
                   125  1.094848191783164E-004
                   126  6.975968005568931E-006
                   127  5.701475938379249E-004
                   128  0.000000000000000E+000
                   129  7.878935073280607E-005
                   130 -5.663787123011913E-004
                   131  0.000000000000000E+000
                   132 -3.087051664723063E-004
                   133 -8.286361097298362E-004
                   134  0.000000000000000E+000
                   135 -1.756357294042539E-005
                   136  0.000000000000000E+000
                   137  0.000000000000000E+000
                   138  6.184604229818765E-007
                   139 -5.852364156854916E-005
                   140 -1.398217194317570E-004
                   141  0.000000000000000E+000
                   142  0.000000000000000E+000
                   143 -2.491024710871318E-004
                   144  1.573179217792498E-004
                   145  0.000000000000000E+000
                   146 -9.045025700895917E-006
                   147  3.489166482913521E-005
                   148  0.000000000000000E+000
                   149  0.000000000000000E+000
                   150  5.375059559755610E-005
                   151 -3.215651887647686E-005
                   152 -4.451476097833398E-004
                   153  5.188965889916194E-004
                   154 -2.283325170100015E-004
                   155  1.021945724061366E-004
                   156  4.276356916746976E-005
                   157  6.300547300778860E-004
                   158  0.000000000000000E+000
                   159 -7.301320503329838E-005
                   160 -5.802876901484905E-004