[Molden Format]
[Atoms] AU
  N     1    7    -0.0848146300   -4.3262293700    0.0000000200        
  C     2    6     0.0383372200   -1.7995732300   -0.0000000100        
  C     3    6    -2.2898353200   -0.4086788000   -0.0000000200        
  C     4    6     2.3371326400   -0.3690043100   -0.0000000300        
  C     5    6    -2.2795523300    2.1751305700   -0.0000000100        
  C     6    6     2.2960687300    2.2167698000    0.0000000000        
  C     7    6    -0.0017863600    3.5175734300    0.0000000100        
  H     8    1    -3.3609748500   -6.5656869600    0.0000000600        
  H     9    1     1.7138854500   -5.0598135100    0.0000000000        
  H    10    1    -4.0222520800   -1.4550764900   -0.0000000400        
  H    11    1     4.1038972500   -1.3679573900   -0.0000000400        
  H    12    1    -4.0355762800    3.1923740900   -0.0000000300        
  H    13    1     4.0375312700    3.2584201900    0.0000000300        
  H    14    1    -0.0191453100    5.5452729000    0.0000000400        
[5D]
[7F]
[GTO]
  1  0
   s    12 1.00
  0.114200D+05  0.172695D-04
  0.171200D+04  0.134411D-03
  0.389300D+03  0.694561D-03
  0.110000D+03  0.278531D-02
  0.355700D+02  0.863457D-02
  0.125400D+02  0.199805D-01
  0.464400D+01  0.262908D-01
  0.129300D+01 -0.243845D-01
  0.511800D+00 -0.924934D-01
  0.178700D+00 -0.339683D+00
  0.246240D-01  0.345111D+00
  0.112530D-01  0.752750D+00
   s    10 1.00
  0.114200D+05  0.523000D-03
  0.171200D+04  0.404500D-02
  0.389300D+03  0.207750D-01
  0.110000D+03  0.807269D-01
  0.355700D+02  0.233074D+00
  0.125400D+02  0.433501D+00
  0.464400D+01  0.347472D+00
  0.129300D+01  0.412620D-01
  0.511800D+00 -0.850799D-02
  0.178700D+00  0.238400D-02
   s    10 1.00
  0.114200D+05 -0.115000D-03
  0.171200D+04 -0.895000D-03
  0.389300D+03 -0.462400D-02
  0.110000D+03 -0.185280D-01
  0.355700D+02 -0.573390D-01
  0.125400D+02 -0.132076D+00
  0.464400D+01 -0.172510D+00
  0.129300D+01  0.151814D+00
  0.511800D+00  0.599944D+00
  0.178700D+00  0.387462D+00
   s     1 1.00
  0.129300D+01  0.100000D+01
   s     1 1.00
  0.178700D+00  0.100000D+01
   p     5 1.00
  0.266300D+02  0.146700D-01
  0.594800D+01  0.917640D-01
  0.174200D+01  0.298683D+00
  0.555000D+00  0.498487D+00
  0.172500D+00  0.337023D+00
   p     1 1.00
  0.174200D+01  0.100000D+01
   p     1 1.00
  0.555000D+00  0.100000D+01
   d     1 1.00
  0.165400D+01  0.100000D+01
   d     1 1.00
  0.469000D+00  0.100000D+01
   f     1 1.00
  0.109300D+01  0.100000D+01
  
  2  0
   s    10 1.00
  0.823600D+04  0.531000D-03
  0.123500D+04  0.410800D-02
  0.280800D+03  0.210870D-01
  0.792700D+02  0.818530D-01
  0.255900D+02  0.234817D+00
  0.899700D+01  0.434401D+00
  0.331900D+01  0.346129D+00
  0.905900D+00  0.393780D-01
  0.364300D+00 -0.898300D-02
  0.128500D+00  0.238500D-02
   s    10 1.00
  0.823600D+04 -0.113000D-03
  0.123500D+04 -0.878000D-03
  0.280800D+03 -0.454000D-02
  0.792700D+02 -0.181330D-01
  0.255900D+02 -0.557600D-01
  0.899700D+01 -0.126895D+00
  0.331900D+01 -0.170352D+00
  0.905900D+00  0.140382D+00
  0.364300D+00  0.598684D+00
  0.128500D+00  0.395389D+00
   s     1 1.00
  0.905900D+00  0.100000D+01
   s     1 1.00
  0.364300D+00  0.100000D+01
   p     5 1.00
  0.187100D+02  0.140310D-01
  0.413300D+01  0.868660D-01
  0.120000D+01  0.290216D+00
  0.382700D+00  0.501008D+00
  0.120900D+00  0.343406D+00
   p     1 1.00
  0.382700D+00  0.100000D+01
   p     1 1.00
  0.120900D+00  0.100000D+01
   d     1 1.00
  0.109700D+01  0.100000D+01
   d     1 1.00
  0.318000D+00  0.100000D+01
   f     1 1.00
  0.761000D+00  0.100000D+01
  
  3  0
   s    10 1.00
  0.823600D+04  0.531000D-03
  0.123500D+04  0.410800D-02
  0.280800D+03  0.210870D-01
  0.792700D+02  0.818530D-01
  0.255900D+02  0.234817D+00
  0.899700D+01  0.434401D+00
  0.331900D+01  0.346129D+00
  0.905900D+00  0.393780D-01
  0.364300D+00 -0.898300D-02
  0.128500D+00  0.238500D-02
   s    10 1.00
  0.823600D+04 -0.113000D-03
  0.123500D+04 -0.878000D-03
  0.280800D+03 -0.454000D-02
  0.792700D+02 -0.181330D-01
  0.255900D+02 -0.557600D-01
  0.899700D+01 -0.126895D+00
  0.331900D+01 -0.170352D+00
  0.905900D+00  0.140382D+00
  0.364300D+00  0.598684D+00
  0.128500D+00  0.395389D+00
   s     1 1.00
  0.905900D+00  0.100000D+01
   s     1 1.00
  0.364300D+00  0.100000D+01
   p     5 1.00
  0.187100D+02  0.140310D-01
  0.413300D+01  0.868660D-01
  0.120000D+01  0.290216D+00
  0.382700D+00  0.501008D+00
  0.120900D+00  0.343406D+00
   p     1 1.00
  0.382700D+00  0.100000D+01
   p     1 1.00
  0.120900D+00  0.100000D+01
   d     1 1.00
  0.109700D+01  0.100000D+01
   d     1 1.00
  0.318000D+00  0.100000D+01
   f     1 1.00
  0.761000D+00  0.100000D+01
  
  4  0
   s    10 1.00
  0.823600D+04  0.531000D-03
  0.123500D+04  0.410800D-02
  0.280800D+03  0.210870D-01
  0.792700D+02  0.818530D-01
  0.255900D+02  0.234817D+00
  0.899700D+01  0.434401D+00
  0.331900D+01  0.346129D+00
  0.905900D+00  0.393780D-01
  0.364300D+00 -0.898300D-02
  0.128500D+00  0.238500D-02
   s    10 1.00
  0.823600D+04 -0.113000D-03
  0.123500D+04 -0.878000D-03
  0.280800D+03 -0.454000D-02
  0.792700D+02 -0.181330D-01
  0.255900D+02 -0.557600D-01
  0.899700D+01 -0.126895D+00
  0.331900D+01 -0.170352D+00
  0.905900D+00  0.140382D+00
  0.364300D+00  0.598684D+00
  0.128500D+00  0.395389D+00
   s     1 1.00
  0.905900D+00  0.100000D+01
   s     1 1.00
  0.364300D+00  0.100000D+01
   p     5 1.00
  0.187100D+02  0.140310D-01
  0.413300D+01  0.868660D-01
  0.120000D+01  0.290216D+00
  0.382700D+00  0.501008D+00
  0.120900D+00  0.343406D+00
   p     1 1.00
  0.382700D+00  0.100000D+01
   p     1 1.00
  0.120900D+00  0.100000D+01
   d     1 1.00
  0.109700D+01  0.100000D+01
   d     1 1.00
  0.318000D+00  0.100000D+01
   f     1 1.00
  0.761000D+00  0.100000D+01
  
  5  0
   s    10 1.00
  0.823600D+04  0.531000D-03
  0.123500D+04  0.410800D-02
  0.280800D+03  0.210870D-01
  0.792700D+02  0.818530D-01
  0.255900D+02  0.234817D+00
  0.899700D+01  0.434401D+00
  0.331900D+01  0.346129D+00
  0.905900D+00  0.393780D-01
  0.364300D+00 -0.898300D-02
  0.128500D+00  0.238500D-02
   s    10 1.00
  0.823600D+04 -0.113000D-03
  0.123500D+04 -0.878000D-03
  0.280800D+03 -0.454000D-02
  0.792700D+02 -0.181330D-01
  0.255900D+02 -0.557600D-01
  0.899700D+01 -0.126895D+00
  0.331900D+01 -0.170352D+00
  0.905900D+00  0.140382D+00
  0.364300D+00  0.598684D+00
  0.128500D+00  0.395389D+00
   s     1 1.00
  0.905900D+00  0.100000D+01
   s     1 1.00
  0.364300D+00  0.100000D+01
   p     5 1.00
  0.187100D+02  0.140310D-01
  0.413300D+01  0.868660D-01
  0.120000D+01  0.290216D+00
  0.382700D+00  0.501008D+00
  0.120900D+00  0.343406D+00
   p     1 1.00
  0.382700D+00  0.100000D+01
   p     1 1.00
  0.120900D+00  0.100000D+01
   d     1 1.00
  0.109700D+01  0.100000D+01
   d     1 1.00
  0.318000D+00  0.100000D+01
   f     1 1.00
  0.761000D+00  0.100000D+01
  
  6  0
   s    10 1.00
  0.823600D+04  0.531000D-03
  0.123500D+04  0.410800D-02
  0.280800D+03  0.210870D-01
  0.792700D+02  0.818530D-01
  0.255900D+02  0.234817D+00
  0.899700D+01  0.434401D+00
  0.331900D+01  0.346129D+00
  0.905900D+00  0.393780D-01
  0.364300D+00 -0.898300D-02
  0.128500D+00  0.238500D-02
   s    10 1.00
  0.823600D+04 -0.113000D-03
  0.123500D+04 -0.878000D-03
  0.280800D+03 -0.454000D-02
  0.792700D+02 -0.181330D-01
  0.255900D+02 -0.557600D-01
  0.899700D+01 -0.126895D+00
  0.331900D+01 -0.170352D+00
  0.905900D+00  0.140382D+00
  0.364300D+00  0.598684D+00
  0.128500D+00  0.395389D+00
   s     1 1.00
  0.905900D+00  0.100000D+01
   s     1 1.00
  0.364300D+00  0.100000D+01
   p     5 1.00
  0.187100D+02  0.140310D-01
  0.413300D+01  0.868660D-01
  0.120000D+01  0.290216D+00
  0.382700D+00  0.501008D+00
  0.120900D+00  0.343406D+00
   p     1 1.00
  0.382700D+00  0.100000D+01
   p     1 1.00
  0.120900D+00  0.100000D+01
   d     1 1.00
  0.109700D+01  0.100000D+01
   d     1 1.00
  0.318000D+00  0.100000D+01
   f     1 1.00
  0.761000D+00  0.100000D+01
  
  7  0
   s    10 1.00
  0.823600D+04  0.531000D-03
  0.123500D+04  0.410800D-02
  0.280800D+03  0.210870D-01
  0.792700D+02  0.818530D-01
  0.255900D+02  0.234817D+00
  0.899700D+01  0.434401D+00
  0.331900D+01  0.346129D+00
  0.905900D+00  0.393780D-01
  0.364300D+00 -0.898300D-02
  0.128500D+00  0.238500D-02
   s    10 1.00
  0.823600D+04 -0.113000D-03
  0.123500D+04 -0.878000D-03
  0.280800D+03 -0.454000D-02
  0.792700D+02 -0.181330D-01
  0.255900D+02 -0.557600D-01
  0.899700D+01 -0.126895D+00
  0.331900D+01 -0.170352D+00
  0.905900D+00  0.140382D+00
  0.364300D+00  0.598684D+00
  0.128500D+00  0.395389D+00
   s     1 1.00
  0.905900D+00  0.100000D+01
   s     1 1.00
  0.364300D+00  0.100000D+01
   p     5 1.00
  0.187100D+02  0.140310D-01
  0.413300D+01  0.868660D-01
  0.120000D+01  0.290216D+00
  0.382700D+00  0.501008D+00
  0.120900D+00  0.343406D+00
   p     1 1.00
  0.382700D+00  0.100000D+01
   p     1 1.00
  0.120900D+00  0.100000D+01
   d     1 1.00
  0.109700D+01  0.100000D+01
   d     1 1.00
  0.318000D+00  0.100000D+01
   f     1 1.00
  0.761000D+00  0.100000D+01
  
  8  0
   s     4 1.00
  0.130100D+02  0.196850D-01
  0.196200D+01  0.137977D+00
  0.444600D+00  0.478148D+00
  0.122000D+00  0.501240D+00
   s     1 1.00
  0.122000D+00  0.100000D+01
   p     1 1.00
  0.727000D+00  0.100000D+01
  
  9  0
   s     4 1.00
  0.130100D+02  0.196850D-01
  0.196200D+01  0.137977D+00
  0.444600D+00  0.478148D+00
  0.122000D+00  0.501240D+00
   s     1 1.00
  0.122000D+00  0.100000D+01
   p     1 1.00
  0.727000D+00  0.100000D+01
  
 10  0
   s     4 1.00
  0.130100D+02  0.196850D-01
  0.196200D+01  0.137977D+00
  0.444600D+00  0.478148D+00
  0.122000D+00  0.501240D+00
   s     1 1.00
  0.122000D+00  0.100000D+01
   p     1 1.00
  0.727000D+00  0.100000D+01
  
 11  0
   s     4 1.00
  0.130100D+02  0.196850D-01
  0.196200D+01  0.137977D+00
  0.444600D+00  0.478148D+00
  0.122000D+00  0.501240D+00
   s     1 1.00
  0.122000D+00  0.100000D+01
   p     1 1.00
  0.727000D+00  0.100000D+01
  
 12  0
   s     4 1.00
  0.130100D+02  0.196850D-01
  0.196200D+01  0.137977D+00
  0.444600D+00  0.478148D+00
  0.122000D+00  0.501240D+00
   s     1 1.00
  0.122000D+00  0.100000D+01
   p     1 1.00
  0.727000D+00  0.100000D+01
  
 13  0
   s     4 1.00
  0.130100D+02  0.196850D-01
  0.196200D+01  0.137977D+00
  0.444600D+00  0.478148D+00
  0.122000D+00  0.501240D+00
   s     1 1.00
  0.122000D+00  0.100000D+01
   p     1 1.00
  0.727000D+00  0.100000D+01
  
 14  0
   s     4 1.00
  0.130100D+02  0.196850D-01
  0.196200D+01  0.137977D+00
  0.444600D+00  0.478148D+00
  0.122000D+00  0.501240D+00
   s     1 1.00
  0.122000D+00  0.100000D+01
   p     1 1.00
  0.727000D+00  0.100000D+01
  
[MO]
 Sym= __1_A'_
 Ene=   1.00000000000000     
 Spin= Alpha
 Occup=    1.00000000000000     
                     1  8.216991259782890E-005
                     2  0.998381109424180     
                     3 -3.886610459670574E-003
                     4  1.859091787991178E-003
                     5  6.350465252090361E-003
                     6  2.743980170145942E-003
                     7  5.497833549256682E-003
                     8  0.000000000000000E+000
                     9 -7.271292832831293E-004
                    10 -7.046329122920618E-004
                    11  0.000000000000000E+000
                    12 -2.431567845291838E-003
                    13 -1.949054844090334E-003
                    14  0.000000000000000E+000
                    15 -3.323074803765834E-005
                    16  0.000000000000000E+000
                    17  0.000000000000000E+000
                    18 -1.489480501202356E-004
                    19 -5.751085008745958E-005
                    20  1.229089828040059E-004
                    21  0.000000000000000E+000
                    22  0.000000000000000E+000
                    23 -1.600183582508719E-004
                    24  4.631243898124353E-004
                    25  0.000000000000000E+000
                    26 -3.082692351872634E-006
                    27 -4.179816398351399E-005
                    28  0.000000000000000E+000
                    29  0.000000000000000E+000
                    30  3.365733974902095E-005
                    31 -9.932893442402705E-005
                    32 -2.702441914398224E-004
                    33  9.972433651855190E-005
                    34  3.031129386134895E-004
                    35 -1.229053543428592E-004
                    36 -1.142411950181960E-004
                    37 -1.902573618556585E-003
                    38  0.000000000000000E+000
                    39  3.458730128386228E-004
                    40  6.235659899104228E-005
                    41  0.000000000000000E+000
                    42 -1.917597446428053E-003
                    43  4.731483180550072E-003
                    44  0.000000000000000E+000
                    45  1.312883238481934E-005
                    46  0.000000000000000E+000
                    47  0.000000000000000E+000
                    48 -9.739398774349457E-005
                    49  9.837147626793181E-006
                    50 -1.943318667239584E-004
                    51  0.000000000000000E+000
                    52  0.000000000000000E+000
                    53 -1.332627961205239E-005
                    54  7.462912076245155E-004
                    55  0.000000000000000E+000
                    56 -6.555167209518074E-006
                    57 -7.847855962588712E-005
                    58  0.000000000000000E+000
                    59  0.000000000000000E+000
                    60  2.142855144404709E-005
                    61 -1.347769355258133E-004
                    62 -5.074254560444348E-004
                    63 -1.889160855006568E-003
                    64 -9.880885500481294E-005
                    65  2.132527143447081E-003
                    66 -2.949732527970704E-004
                    67 -3.538669563043635E-005
                    68  0.000000000000000E+000
                    69  3.717030552855800E-004
                    70  8.418966894438322E-004
                    71  0.000000000000000E+000
                    72 -1.785895134906516E-003
                    73  6.399552761168013E-004
                    74  0.000000000000000E+000
                    75 -4.773555090145578E-005
                    76  0.000000000000000E+000
                    77  0.000000000000000E+000
                    78 -4.546894634592050E-005
                    79 -2.457148163985891E-005
                    80 -1.319603183950132E-004
                    81  0.000000000000000E+000
                    82  0.000000000000000E+000
                    83  1.221990166769314E-005
                    84 -2.440577166918236E-005
                    85  0.000000000000000E+000
                    86  9.530790591469190E-006
                    87 -4.593742284354411E-005
                    88  0.000000000000000E+000
                    89  0.000000000000000E+000
                    90 -2.731808349638290E-005
                    91 -1.561949087090560E-004
                    92 -1.765794450912532E-004
                    93 -5.500508612073971E-004
                    94  1.486623188378739E-004
                    95 -4.224563283632888E-005
                    96  7.524795306640857E-005
                    97 -7.962360790816586E-005
                    98  0.000000000000000E+000
                    99  3.404145943425319E-004
                   100  3.583234521021308E-004
                   101  0.000000000000000E+000
                   102  5.867667242174119E-004
                   103 -1.627565865371662E-003
                   104  0.000000000000000E+000
                   105 -1.406569434024103E-005
                   106  0.000000000000000E+000
                   107  0.000000000000000E+000
                   108 -3.607513236194638E-005
                   109 -1.163781733597576E-005
                   110  7.205784521599735E-005
                   111  0.000000000000000E+000
                   112  0.000000000000000E+000
                   113 -1.476292466830674E-004
                   114  1.120997866299674E-004
                   115  0.000000000000000E+000
                   116 -1.798083180451873E-005
                   117 -2.196310112092371E-005
                   118  0.000000000000000E+000
                   119  0.000000000000000E+000
                   120 -7.263503336952645E-006
                   121 -4.540472020228654E-005
                   122 -2.414977169148537E-004
                   123 -6.702020652135290E-004
                   124  1.711374788291401E-004
                   125  2.829894936370168E-004
                   126 -3.991381570954584E-005
                   127 -2.114718593279325E-004
                   128  0.000000000000000E+000
                   129  2.328877919900200E-004
                   130  6.285605913778895E-004
                   131  0.000000000000000E+000
                   132  4.507661788648887E-004
                   133  1.841197861543223E-003
                   134  0.000000000000000E+000
                   135  1.544465589682964E-005
                   136  0.000000000000000E+000
                   137  0.000000000000000E+000
                   138  4.850451665613974E-005
                   139 -5.482526014618753E-006
                   140  1.983653510148448E-004
                   141  0.000000000000000E+000
                   142  0.000000000000000E+000
                   143  3.851711524331976E-004
                   144  1.913764480883967E-004
                   145  0.000000000000000E+000
                   146 -1.239275318930191E-005
                   147 -6.173301722357844E-005
                   148  0.000000000000000E+000
                   149  0.000000000000000E+000
                   150 -8.482794866427198E-006
                   151 -5.497642016522051E-005
                   152 -1.365020912010572E-004
                   153 -4.185903457533808E-004
                   154  5.647753012525346E-005
                   155  2.101427580258352E-004
                   156  6.981831978965462E-006
                   157 -2.596294971658804E-005
                   158  0.000000000000000E+000
                   159 -1.449124769315702E-005
                   160  4.843462714922003E-005
                   161  0.000000000000000E+000
                   162  7.190898895809037E-004
                   163 -3.251607427374606E-004
                   164  0.000000000000000E+000
                   165  1.711812528580899E-006
                   166  0.000000000000000E+000
                   167  0.000000000000000E+000
                   168  5.108488758080988E-006
                   169  1.276926688534150E-005
                   170  1.073743374545184E-004
                   171  0.000000000000000E+000
                   172  0.000000000000000E+000
                   173  4.757841372600280E-005
                   174  3.691587403238573E-005
                   175  0.000000000000000E+000
                   176  4.374715493792658E-006
                   177 -1.416327957655002E-005
                   178  0.000000000000000E+000
                   179  0.000000000000000E+000
                   180 -2.474321355018689E-005
                   181 -3.068274002049505E-005
                   182 -1.380778768906276E-004
                   183 -4.128577433299622E-004
                   184  3.139371850085749E-005
                   185  2.207658507810112E-004
                   186 -4.283440041946527E-005
                   187 -5.223249936021470E-005
                   188  0.000000000000000E+000
                   189  2.451165445575282E-004
                   190  1.091287576741359E-004
                   191  0.000000000000000E+000
                   192  1.231773621260996E-003
                   193 -2.979572316073645E-004
                   194  0.000000000000000E+000
                   195  4.957578475697484E-007
                   196  0.000000000000000E+000
                   197  0.000000000000000E+000
                   198 -3.004540650200536E-006
                   199  3.761271642836476E-006
                   200 -6.180961766692472E-006
                   201  0.000000000000000E+000
                   202  0.000000000000000E+000
                   203 -6.588211911103574E-005
                   204 -1.856296547607416E-004
                   205  0.000000000000000E+000
                   206 -8.764615200466242E-006
                   207 -3.776855637737562E-006
                   208  0.000000000000000E+000
                   209  0.000000000000000E+000
                   210  7.652188899515591E-006
                   211 -3.789406137366617E-006
                   212 -3.044490381087927E-005
                   213  1.361088224494970E-004
                   214  1.028369713428785E-005
                   215  3.088233459959576E-005
                   216  0.000000000000000E+000
                   217 -1.137246276356683E-003
                   218 -4.306972911748936E-004
                   219 -2.075324903379467E-004
                   220  4.166913269348040E-005
                   221  0.000000000000000E+000
                   222 -1.623118842102836E-004
                   223 -6.698240505831456E-004
                   224  1.865042705828960E-005
                   225 -5.891923796937756E-005
                   226  0.000000000000000E+000
                   227  6.867706920224186E-005
                   228 -6.006040595577589E-004
                   229 -4.073997346096890E-005
                   230 -1.659743342002302E-005
                   231  0.000000000000000E+000
                   232  4.793157678343347E-005
                   233 -4.323890953353135E-004
                   234  1.382699948309605E-005
                   235 -3.908513028659101E-006
                   236  0.000000000000000E+000
                   237  3.177598628649047E-005
                   238 -3.599217406800936E-004
                   239 -1.003188492397019E-005
                   240 -3.831643731920617E-006
                   241  0.000000000000000E+000
                   242 -6.307824031398671E-005
                   243  7.635904084817879E-005
                   244  8.242336318052653E-008
                   245  2.800564988328994E-005
                   246  0.000000000000000E+000
 Sym= __2_A'_
 Ene=   2.00000000000000     
 Spin= Alpha
 Occup=    1.00000000000000     
                     1  4.943949510691929E-005
                     2  3.358832804681301E-004
                     3 -2.668522122929489E-003
                     4 -1.265412765310755E-004
                     5 -1.313537655823869E-003
                     6  2.386664701794161E-004
                     7 -2.639854120397992E-003
                     8  0.000000000000000E+000
                     9  4.116957556075577E-005
                    10  1.131958039689255E-004
                    11  0.000000000000000E+000
                    12  5.980381794485258E-005
                    13  3.316680793101594E-004
                    14  0.000000000000000E+000
                    15 -2.950387528197669E-005
                    16  0.000000000000000E+000
                    17  0.000000000000000E+000
                    18  3.731434684462460E-005
                    19 -1.963722404883849E-005
                    20  1.067507323370506E-004
                    21  0.000000000000000E+000
                    22  0.000000000000000E+000
                    23 -1.358303685765900E-004
                    24  1.531477767540712E-004
                    25  0.000000000000000E+000
                    26  1.771601362927737E-005
                    27 -9.643417089185465E-005
                    28  0.000000000000000E+000
                    29  0.000000000000000E+000
                    30  6.729385594358277E-005
                    31 -1.484378506724671E-004
                    32  -1.00090455909077     
                    33 -9.089210985638221E-003
                    34 -2.766745041918517E-003
                    35  8.053905804012497E-003
                    36  1.890115729890890E-004
                    37  3.009723369053840E-003
                    38  0.000000000000000E+000
                    39  6.393971157152613E-005
                    40 -1.651822413407972E-004
                    41  0.000000000000000E+000
                    42  1.161144778012378E-004
                    43 -3.950744217479982E-003
                    44  0.000000000000000E+000
                    45  5.323641868600085E-004
                    46  0.000000000000000E+000
                    47  0.000000000000000E+000
                    48  1.959070514968380E-004
                    49 -3.478219601841475E-005
                    50 -5.480879771898991E-004
                    51  0.000000000000000E+000
                    52  0.000000000000000E+000
                    53  6.625096568250066E-004
                    54  3.633549940301129E-004
                    55  0.000000000000000E+000
                    56 -1.002589639704832E-005
                    57 -1.000878816137861E-004
                    58  0.000000000000000E+000
                    59  0.000000000000000E+000
                    60  2.933748144942924E-005
                    61 -3.849027675319591E-004
                    62 -1.214139623732949E-002
                    63  1.991548300673944E-003
                    64  2.431098654605741E-004
                    65 -2.713113000672486E-003
                    66 -5.739115472008710E-005
                    67 -5.735101189692629E-005
                    68  0.000000000000000E+000
                    69 -5.499504479911871E-004
                    70 -1.373562586807094E-004
                    71  0.000000000000000E+000
                    72  2.086242540429762E-003
                    73 -2.796382599052751E-004
                    74  0.000000000000000E+000
                    75 -3.262487275823285E-005
                    76  0.000000000000000E+000
                    77  0.000000000000000E+000
                    78  5.590221012580720E-007
                    79 -2.015389440484972E-006
                    80  4.294123178010895E-004
                    81  0.000000000000000E+000
                    82  0.000000000000000E+000
                    83  6.438045816056340E-004
                    84  2.580237419207481E-004
                    85  0.000000000000000E+000
                    86 -2.724682273351456E-005
                    87  5.839690265665025E-005
                    88  0.000000000000000E+000
                    89  0.000000000000000E+000
                    90 -3.924606064792885E-005
                    91 -1.498393084403638E-004
                    92 -1.493088202587878E-002
                    93  2.049175794615582E-003
                    94  2.980031449369116E-004
                    95 -3.160074933511179E-003
                    96 -9.714323232340474E-005
                    97 -8.347013936049809E-005
                    98  0.000000000000000E+000
                    99  9.042484000808946E-004
                   100 -4.037766805990352E-005
                   101  0.000000000000000E+000
                   102 -1.715165088585958E-003
                   103 -1.649143753065268E-005
                   104  0.000000000000000E+000
                   105 -2.440830043047992E-005
                   106  0.000000000000000E+000
                   107  0.000000000000000E+000
                   108  4.340141079489578E-006
                   109 -5.056445448873903E-006
                   110  4.225369724498243E-004
                   111  0.000000000000000E+000
                   112  0.000000000000000E+000
                   113  3.958592259494496E-004
                   114 -2.431620703051367E-004
                   115  0.000000000000000E+000
                   116  3.060650669902457E-005
                   117  7.232833267035774E-005
                   118  0.000000000000000E+000
                   119  0.000000000000000E+000
                   120  4.179055200996758E-006
                   121 -1.325756690474246E-004
                   122  9.814848342878384E-005
                   123  6.920337517734361E-004
                   124 -2.294997991503369E-004
                   125  1.237172306347728E-004
                   126 -1.875677175452659E-006
                   127  3.496733190103067E-004
                   128  0.000000000000000E+000
                   129  8.154872991455768E-005
                   130 -6.083589032931046E-004
                   131  0.000000000000000E+000
                   132 -3.738952625409733E-004
                   133 -8.886883597615735E-004
                   134  0.000000000000000E+000
                   135 -1.838005394964224E-005
                   136  0.000000000000000E+000
                   137  0.000000000000000E+000
                   138 -4.597733340036088E-006
                   139 -4.248081611780233E-005
                   140 -1.298046704973516E-004
                   141  0.000000000000000E+000
                   142  0.000000000000000E+000
                   143 -2.484701962165876E-004
                   144  1.111753051166526E-004
                   145  0.000000000000000E+000
                   146 -9.176501229178801E-006
                   147  3.714092184612097E-005
                   148  0.000000000000000E+000
                   149  0.000000000000000E+000
                   150  4.413856435249665E-005
                   151 -3.659237487165014E-005
                   152 -4.953456895954848E-005
                   153  6.693503413111032E-004
                   154 -2.315781549670998E-004
                   155  5.013163401461456E-005
                   156  3.268038010509498E-005
                   157  3.726496908119057E-004
                   158  0.000000000000000E+000
                   159 -1.297244186496403E-004
                   160 -5.544443413752390E-004