[Molden Format]
[Atoms] AU
  N     1    7    -0.0848146300   -4.3262293700    0.0000000200        
  C     2    6     0.0383372200   -1.7995732300   -0.0000000100        
  C     3    6    -2.2898353200   -0.4086788000   -0.0000000200        
  C     4    6     2.3371326400   -0.3690043100   -0.0000000300        
  C     5    6    -2.2795523300    2.1751305700   -0.0000000100        
  C     6    6     2.2960687300    2.2167698000    0.0000000000        
  C     7    6    -0.0017863600    3.5175734300    0.0000000100        
  H     8    1    -3.3609748500   -6.5656869600    0.0000000600        
  H     9    1     1.7138854500   -5.0598135100    0.0000000000        
  H    10    1    -4.0222520800   -1.4550764900   -0.0000000400        
  H    11    1     4.1038972500   -1.3679573900   -0.0000000400        
  H    12    1    -4.0355762800    3.1923740900   -0.0000000300        
  H    13    1     4.0375312700    3.2584201900    0.0000000300        
  H    14    1    -0.0191453100    5.5452729000    0.0000000400        
[5D]
[7F]
[GTO]
  1  0
   s    12 1.00
  0.114200D+05  0.172695D-04
  0.171200D+04  0.134411D-03
  0.389300D+03  0.694561D-03
  0.110000D+03  0.278531D-02
  0.355700D+02  0.863457D-02
  0.125400D+02  0.199805D-01
  0.464400D+01  0.262908D-01
  0.129300D+01 -0.243845D-01
  0.511800D+00 -0.924934D-01
  0.178700D+00 -0.339683D+00
  0.246240D-01  0.345111D+00
  0.112530D-01  0.752750D+00
   s    10 1.00
  0.114200D+05  0.523000D-03
  0.171200D+04  0.404500D-02
  0.389300D+03  0.207750D-01
  0.110000D+03  0.807269D-01
  0.355700D+02  0.233074D+00
  0.125400D+02  0.433501D+00
  0.464400D+01  0.347472D+00
  0.129300D+01  0.412620D-01
  0.511800D+00 -0.850799D-02
  0.178700D+00  0.238400D-02
   s    10 1.00
  0.114200D+05 -0.115000D-03
  0.171200D+04 -0.895000D-03
  0.389300D+03 -0.462400D-02
  0.110000D+03 -0.185280D-01
  0.355700D+02 -0.573390D-01
  0.125400D+02 -0.132076D+00
  0.464400D+01 -0.172510D+00
  0.129300D+01  0.151814D+00
  0.511800D+00  0.599944D+00
  0.178700D+00  0.387462D+00
   s     1 1.00
  0.129300D+01  0.100000D+01
   s     1 1.00
  0.178700D+00  0.100000D+01
   p     5 1.00
  0.266300D+02  0.146700D-01
  0.594800D+01  0.917640D-01
  0.174200D+01  0.298683D+00
  0.555000D+00  0.498487D+00
  0.172500D+00  0.337023D+00
   p     1 1.00
  0.174200D+01  0.100000D+01
   p     1 1.00
  0.555000D+00  0.100000D+01
   d     1 1.00
  0.165400D+01  0.100000D+01
   d     1 1.00
  0.469000D+00  0.100000D+01
   f     1 1.00
  0.109300D+01  0.100000D+01
  
  2  0
   s    10 1.00
  0.823600D+04  0.531000D-03
  0.123500D+04  0.410800D-02
  0.280800D+03  0.210870D-01
  0.792700D+02  0.818530D-01
  0.255900D+02  0.234817D+00
  0.899700D+01  0.434401D+00
  0.331900D+01  0.346129D+00
  0.905900D+00  0.393780D-01
  0.364300D+00 -0.898300D-02
  0.128500D+00  0.238500D-02
   s    10 1.00
  0.823600D+04 -0.113000D-03
  0.123500D+04 -0.878000D-03
  0.280800D+03 -0.454000D-02
  0.792700D+02 -0.181330D-01
  0.255900D+02 -0.557600D-01
  0.899700D+01 -0.126895D+00
  0.331900D+01 -0.170352D+00
  0.905900D+00  0.140382D+00
  0.364300D+00  0.598684D+00
  0.128500D+00  0.395389D+00
   s     1 1.00
  0.905900D+00  0.100000D+01
   s     1 1.00
  0.364300D+00  0.100000D+01
   p     5 1.00
  0.187100D+02  0.140310D-01
  0.413300D+01  0.868660D-01
  0.120000D+01  0.290216D+00
  0.382700D+00  0.501008D+00
  0.120900D+00  0.343406D+00
   p     1 1.00
  0.382700D+00  0.100000D+01
   p     1 1.00
  0.120900D+00  0.100000D+01
   d     1 1.00
  0.109700D+01  0.100000D+01
   d     1 1.00
  0.318000D+00  0.100000D+01
   f     1 1.00
  0.761000D+00  0.100000D+01
  
  3  0
   s    10 1.00
  0.823600D+04  0.531000D-03
  0.123500D+04  0.410800D-02
  0.280800D+03  0.210870D-01
  0.792700D+02  0.818530D-01
  0.255900D+02  0.234817D+00
  0.899700D+01  0.434401D+00
  0.331900D+01  0.346129D+00
  0.905900D+00  0.393780D-01
  0.364300D+00 -0.898300D-02
  0.128500D+00  0.238500D-02
   s    10 1.00
  0.823600D+04 -0.113000D-03
  0.123500D+04 -0.878000D-03
  0.280800D+03 -0.454000D-02
  0.792700D+02 -0.181330D-01
  0.255900D+02 -0.557600D-01
  0.899700D+01 -0.126895D+00
  0.331900D+01 -0.170352D+00
  0.905900D+00  0.140382D+00
  0.364300D+00  0.598684D+00
  0.128500D+00  0.395389D+00
   s     1 1.00
  0.905900D+00  0.100000D+01
   s     1 1.00
  0.364300D+00  0.100000D+01
   p     5 1.00
  0.187100D+02  0.140310D-01
  0.413300D+01  0.868660D-01
  0.120000D+01  0.290216D+00
  0.382700D+00  0.501008D+00
  0.120900D+00  0.343406D+00
   p     1 1.00
  0.382700D+00  0.100000D+01
   p     1 1.00
  0.120900D+00  0.100000D+01
   d     1 1.00
  0.109700D+01  0.100000D+01
   d     1 1.00
  0.318000D+00  0.100000D+01
   f     1 1.00
  0.761000D+00  0.100000D+01
  
  4  0
   s    10 1.00
  0.823600D+04  0.531000D-03
  0.123500D+04  0.410800D-02
  0.280800D+03  0.210870D-01
  0.792700D+02  0.818530D-01
  0.255900D+02  0.234817D+00
  0.899700D+01  0.434401D+00
  0.331900D+01  0.346129D+00
  0.905900D+00  0.393780D-01
  0.364300D+00 -0.898300D-02
  0.128500D+00  0.238500D-02
   s    10 1.00
  0.823600D+04 -0.113000D-03
  0.123500D+04 -0.878000D-03
  0.280800D+03 -0.454000D-02
  0.792700D+02 -0.181330D-01
  0.255900D+02 -0.557600D-01
  0.899700D+01 -0.126895D+00
  0.331900D+01 -0.170352D+00
  0.905900D+00  0.140382D+00
  0.364300D+00  0.598684D+00
  0.128500D+00  0.395389D+00
   s     1 1.00
  0.905900D+00  0.100000D+01
   s     1 1.00
  0.364300D+00  0.100000D+01
   p     5 1.00
  0.187100D+02  0.140310D-01
  0.413300D+01  0.868660D-01
  0.120000D+01  0.290216D+00
  0.382700D+00  0.501008D+00
  0.120900D+00  0.343406D+00
   p     1 1.00
  0.382700D+00  0.100000D+01
   p     1 1.00
  0.120900D+00  0.100000D+01
   d     1 1.00
  0.109700D+01  0.100000D+01
   d     1 1.00
  0.318000D+00  0.100000D+01
   f     1 1.00
  0.761000D+00  0.100000D+01
  
  5  0
   s    10 1.00
  0.823600D+04  0.531000D-03
  0.123500D+04  0.410800D-02
  0.280800D+03  0.210870D-01
  0.792700D+02  0.818530D-01
  0.255900D+02  0.234817D+00
  0.899700D+01  0.434401D+00
  0.331900D+01  0.346129D+00
  0.905900D+00  0.393780D-01
  0.364300D+00 -0.898300D-02
  0.128500D+00  0.238500D-02
   s    10 1.00
  0.823600D+04 -0.113000D-03
  0.123500D+04 -0.878000D-03
  0.280800D+03 -0.454000D-02
  0.792700D+02 -0.181330D-01
  0.255900D+02 -0.557600D-01
  0.899700D+01 -0.126895D+00
  0.331900D+01 -0.170352D+00
  0.905900D+00  0.140382D+00
  0.364300D+00  0.598684D+00
  0.128500D+00  0.395389D+00
   s     1 1.00
  0.905900D+00  0.100000D+01
   s     1 1.00
  0.364300D+00  0.100000D+01
   p     5 1.00
  0.187100D+02  0.140310D-01
  0.413300D+01  0.868660D-01
  0.120000D+01  0.290216D+00
  0.382700D+00  0.501008D+00
  0.120900D+00  0.343406D+00
   p     1 1.00
  0.382700D+00  0.100000D+01
   p     1 1.00
  0.120900D+00  0.100000D+01
   d     1 1.00
  0.109700D+01  0.100000D+01
   d     1 1.00
  0.318000D+00  0.100000D+01
   f     1 1.00
  0.761000D+00  0.100000D+01
  
  6  0
   s    10 1.00
  0.823600D+04  0.531000D-03
  0.123500D+04  0.410800D-02
  0.280800D+03  0.210870D-01
  0.792700D+02  0.818530D-01
  0.255900D+02  0.234817D+00
  0.899700D+01  0.434401D+00
  0.331900D+01  0.346129D+00
  0.905900D+00  0.393780D-01
  0.364300D+00 -0.898300D-02
  0.128500D+00  0.238500D-02
   s    10 1.00
  0.823600D+04 -0.113000D-03
  0.123500D+04 -0.878000D-03
  0.280800D+03 -0.454000D-02
  0.792700D+02 -0.181330D-01
  0.255900D+02 -0.557600D-01
  0.899700D+01 -0.126895D+00
  0.331900D+01 -0.170352D+00
  0.905900D+00  0.140382D+00
  0.364300D+00  0.598684D+00
  0.128500D+00  0.395389D+00
   s     1 1.00
  0.905900D+00  0.100000D+01
   s     1 1.00
  0.364300D+00  0.100000D+01
   p     5 1.00
  0.187100D+02  0.140310D-01
  0.413300D+01  0.868660D-01
  0.120000D+01  0.290216D+00
  0.382700D+00  0.501008D+00
  0.120900D+00  0.343406D+00
   p     1 1.00
  0.382700D+00  0.100000D+01
   p     1 1.00
  0.120900D+00  0.100000D+01
   d     1 1.00
  0.109700D+01  0.100000D+01
   d     1 1.00
  0.318000D+00  0.100000D+01
   f     1 1.00
  0.761000D+00  0.100000D+01
  
  7  0
   s    10 1.00
  0.823600D+04  0.531000D-03
  0.123500D+04  0.410800D-02
  0.280800D+03  0.210870D-01
  0.792700D+02  0.818530D-01
  0.255900D+02  0.234817D+00
  0.899700D+01  0.434401D+00
  0.331900D+01  0.346129D+00
  0.905900D+00  0.393780D-01
  0.364300D+00 -0.898300D-02
  0.128500D+00  0.238500D-02
   s    10 1.00
  0.823600D+04 -0.113000D-03
  0.123500D+04 -0.878000D-03
  0.280800D+03 -0.454000D-02
  0.792700D+02 -0.181330D-01
  0.255900D+02 -0.557600D-01
  0.899700D+01 -0.126895D+00
  0.331900D+01 -0.170352D+00
  0.905900D+00  0.140382D+00
  0.364300D+00  0.598684D+00
  0.128500D+00  0.395389D+00
   s     1 1.00
  0.905900D+00  0.100000D+01
   s     1 1.00
  0.364300D+00  0.100000D+01
   p     5 1.00
  0.187100D+02  0.140310D-01
  0.413300D+01  0.868660D-01
  0.120000D+01  0.290216D+00
  0.382700D+00  0.501008D+00
  0.120900D+00  0.343406D+00
   p     1 1.00
  0.382700D+00  0.100000D+01
   p     1 1.00
  0.120900D+00  0.100000D+01
   d     1 1.00
  0.109700D+01  0.100000D+01
   d     1 1.00
  0.318000D+00  0.100000D+01
   f     1 1.00
  0.761000D+00  0.100000D+01
  
  8  0
   s     4 1.00
  0.130100D+02  0.196850D-01
  0.196200D+01  0.137977D+00
  0.444600D+00  0.478148D+00
  0.122000D+00  0.501240D+00
   s     1 1.00
  0.122000D+00  0.100000D+01
   p     1 1.00
  0.727000D+00  0.100000D+01
  
  9  0
   s     4 1.00
  0.130100D+02  0.196850D-01
  0.196200D+01  0.137977D+00
  0.444600D+00  0.478148D+00
  0.122000D+00  0.501240D+00
   s     1 1.00
  0.122000D+00  0.100000D+01
   p     1 1.00
  0.727000D+00  0.100000D+01
  
 10  0
   s     4 1.00
  0.130100D+02  0.196850D-01
  0.196200D+01  0.137977D+00
  0.444600D+00  0.478148D+00
  0.122000D+00  0.501240D+00
   s     1 1.00
  0.122000D+00  0.100000D+01
   p     1 1.00
  0.727000D+00  0.100000D+01
  
 11  0
   s     4 1.00
  0.130100D+02  0.196850D-01
  0.196200D+01  0.137977D+00
  0.444600D+00  0.478148D+00
  0.122000D+00  0.501240D+00
   s     1 1.00
  0.122000D+00  0.100000D+01
   p     1 1.00
  0.727000D+00  0.100000D+01
  
 12  0
   s     4 1.00
  0.130100D+02  0.196850D-01
  0.196200D+01  0.137977D+00
  0.444600D+00  0.478148D+00
  0.122000D+00  0.501240D+00
   s     1 1.00
  0.122000D+00  0.100000D+01
   p     1 1.00
  0.727000D+00  0.100000D+01
  
 13  0
   s     4 1.00
  0.130100D+02  0.196850D-01
  0.196200D+01  0.137977D+00
  0.444600D+00  0.478148D+00
  0.122000D+00  0.501240D+00
   s     1 1.00
  0.122000D+00  0.100000D+01
   p     1 1.00
  0.727000D+00  0.100000D+01
  
 14  0
   s     4 1.00
  0.130100D+02  0.196850D-01
  0.196200D+01  0.137977D+00
  0.444600D+00  0.478148D+00
  0.122000D+00  0.501240D+00
   s     1 1.00
  0.122000D+00  0.100000D+01
   p     1 1.00
  0.727000D+00  0.100000D+01
  
[MO]
 Sym= __1_A'_
 Ene=  0.000000000000000E+000
 Spin= Alpha
 Occup=    2.00000000000000     
                     1  8.216991259473323E-005
                     2  0.998381109424199     
                     3 -3.886610460088412E-003
                     4  1.859091788001313E-003
                     5  6.350465252259965E-003
                     6  2.743980170812726E-003
                     7  5.497833549367254E-003
                     8  0.000000000000000E+000
                     9 -7.271292832911581E-004
                    10 -7.046329123158732E-004
                    11  0.000000000000000E+000
                    12 -2.431567845302920E-003
                    13 -1.949054844076171E-003
                    14  0.000000000000000E+000
                    15 -3.323074803446592E-005
                    16  0.000000000000000E+000
                    17  0.000000000000000E+000
                    18 -1.489480501121343E-004
                    19 -5.751085004650984E-005
                    20  1.229089828082218E-004
                    21  0.000000000000000E+000
                    22  0.000000000000000E+000
                    23 -1.600183582115154E-004
                    24  4.631243899419902E-004
                    25  0.000000000000000E+000
                    26 -3.082692360963665E-006
                    27 -4.179816397941677E-005
                    28  0.000000000000000E+000
                    29  0.000000000000000E+000
                    30  3.365733977694507E-005
                    31 -9.932893441633368E-005
                    32 -2.702441904152530E-004
                    33  9.972433331013262E-005
                    34  3.031129386535875E-004
                    35 -1.229053542113581E-004
                    36 -1.142411896977904E-004
                    37 -1.902573620066261E-003
                    38  0.000000000000000E+000
                    39  3.458730125454729E-004
                    40  6.235659903254283E-005
                    41  0.000000000000000E+000
                    42 -1.917597447958286E-003
                    43  4.731483180481982E-003
                    44  0.000000000000000E+000
                    45  1.312883243980199E-005
                    46  0.000000000000000E+000
                    47  0.000000000000000E+000
                    48 -9.739398779929183E-005
                    49  9.837147772844946E-006
                    50 -1.943318666420810E-004
                    51  0.000000000000000E+000
                    52  0.000000000000000E+000
                    53 -1.332627962679004E-005
                    54  7.462912078980557E-004
                    55  0.000000000000000E+000
                    56 -6.555167260044067E-006
                    57 -7.847855961186407E-005
                    58  0.000000000000000E+000
                    59  0.000000000000000E+000
                    60  2.142855145128675E-005
                    61 -1.347769355845026E-004
                    62 -5.074254560131252E-004
                    63 -1.889160858031750E-003
                    64 -9.880885495371695E-005
                    65  2.132527143554639E-003
                    66 -2.949732569337610E-004
                    67 -3.538669237819160E-005
                    68  0.000000000000000E+000
                    69  3.717030555570350E-004
                    70  8.418966891542587E-004
                    71  0.000000000000000E+000
                    72 -1.785895134065876E-003
                    73  6.399552753686761E-004
                    74  0.000000000000000E+000
                    75 -4.773555084688409E-005
                    76  0.000000000000000E+000
                    77  0.000000000000000E+000
                    78 -4.546894642997226E-005
                    79 -2.457148149704305E-005
                    80 -1.319603183081839E-004
                    81  0.000000000000000E+000
                    82  0.000000000000000E+000
                    83  1.221990167591043E-005
                    84 -2.440577149716147E-005
                    85  0.000000000000000E+000
                    86  9.530790627292041E-006
                    87 -4.593742287149657E-005
                    88  0.000000000000000E+000
                    89  0.000000000000000E+000
                    90 -2.731808350926562E-005
                    91 -1.561949086537814E-004
                    92 -1.765794451392242E-004
                    93 -5.500508590847063E-004
                    94  1.486623188036020E-004
                    95 -4.224563308487809E-005
                    96  7.524795184623451E-005
                    97 -7.962360848519067E-005
                    98  0.000000000000000E+000
                    99  3.404145944047234E-004
                   100  3.583234520812526E-004
                   101  0.000000000000000E+000
                   102  5.867667238428260E-004
                   103 -1.627565865537201E-003
                   104  0.000000000000000E+000
                   105 -1.406569436680280E-005
                   106  0.000000000000000E+000
                   107  0.000000000000000E+000
                   108 -3.607513239732038E-005
                   109 -1.163781728087689E-005
                   110  7.205784518072291E-005
                   111  0.000000000000000E+000
                   112  0.000000000000000E+000
                   113 -1.476292467562870E-004
                   114  1.120997867081901E-004
                   115  0.000000000000000E+000
                   116 -1.798083179016975E-005
                   117 -2.196310111168024E-005
                   118  0.000000000000000E+000
                   119  0.000000000000000E+000
                   120 -7.263503361890510E-006
                   121 -4.540472022845815E-005
                   122 -2.414977168770528E-004
                   123 -6.702020640281501E-004
                   124  1.711374787881476E-004
                   125  2.829894936048742E-004
                   126 -3.991381539871384E-005
                   127 -2.114718605554003E-004
                   128  0.000000000000000E+000
                   129  2.328877919181514E-004
                   130  6.285605913901259E-004
                   131  0.000000000000000E+000
                   132  4.507661789802056E-004
                   133  1.841197861447633E-003
                   134  0.000000000000000E+000
                   135  1.544465587850485E-005
                   136  0.000000000000000E+000
                   137  0.000000000000000E+000
                   138  4.850451662146898E-005
                   139 -5.482525946046629E-006
                   140  1.983653509796549E-004
                   141  0.000000000000000E+000
                   142  0.000000000000000E+000
                   143  3.851711523964070E-004
                   144  1.913764481722534E-004
                   145  0.000000000000000E+000
                   146 -1.239275318912020E-005
                   147 -6.173301721192546E-005
                   148  0.000000000000000E+000
                   149  0.000000000000000E+000
                   150 -8.482794892091381E-006
                   151 -5.497642014150930E-005
                   152 -1.365020911755101E-004
                   153 -4.185903451588189E-004
                   154  5.647753011610634E-005
                   155  2.101427578799159E-004
                   156  6.981831954963356E-006
                   157 -2.596295013932136E-005
                   158  0.000000000000000E+000
                   159 -1.449124770522215E-005
                   160  4.843462717698589E-005
                   161  0.000000000000000E+000
                   162  7.190898897407217E-004
                   163 -3.251607428821751E-004
                   164  0.000000000000000E+000
                   165  1.711812520903121E-006
                   166  0.000000000000000E+000
                   167  0.000000000000000E+000
                   168  5.108488751045702E-006
                   169  1.276926690054812E-005
                   170  1.073743374403191E-004
                   171  0.000000000000000E+000
                   172  0.000000000000000E+000
                   173  4.757841368371046E-005
                   174  3.691587404732759E-005
                   175  0.000000000000000E+000
                   176  4.374715494559744E-006
                   177 -1.416327956999089E-005
                   178  0.000000000000000E+000
                   179  0.000000000000000E+000
                   180 -2.474321355045744E-005
                   181 -3.068274001517450E-005
                   182 -1.380778768642769E-004
                   183 -4.128577430086421E-004
                   184  3.139371849403381E-005
                   185  2.207658506943478E-004
                   186 -4.283440068345058E-005
                   187 -5.223249967073050E-005
                   188  0.000000000000000E+000
                   189  2.451165445606097E-004
                   190  1.091287576968397E-004
                   191  0.000000000000000E+000
                   192  1.231773621256919E-003
                   193 -2.979572314885407E-004
                   194  0.000000000000000E+000
                   195  4.957578446947742E-007
                   196  0.000000000000000E+000
                   197  0.000000000000000E+000
                   198 -3.004540657670110E-006
                   199  3.761271650528074E-006
                   200 -6.180961761015842E-006
                   201  0.000000000000000E+000
                   202  0.000000000000000E+000
                   203 -6.588211910771909E-005
                   204 -1.856296547374390E-004
                   205  0.000000000000000E+000
                   206 -8.764615199200933E-006
                   207 -3.776855636298974E-006
                   208  0.000000000000000E+000
                   209  0.000000000000000E+000
                   210  7.652188901590458E-006
                   211 -3.789406138093037E-006
                   212 -3.044490378242338E-005
                   213  1.361088224790059E-004
                   214  1.028369713295121E-005
                   215  3.088233460114685E-005
                   216  0.000000000000000E+000
                   217 -1.137246276354789E-003
                   218 -4.306972915261727E-004
                   219 -2.075324903476569E-004
                   220  4.166913272522943E-005
                   221  0.000000000000000E+000
                   222 -1.623118834908382E-004
                   223 -6.698240504093300E-004
                   224  1.865042703115023E-005
                   225 -5.891923790649721E-005
                   226  0.000000000000000E+000
                   227  6.867706895301507E-005
                   228 -6.006040595565564E-004
                   229 -4.073997348837053E-005
                   230 -1.659743342642237E-005
                   231  0.000000000000000E+000
                   232  4.793157600735678E-005
                   233 -4.323890951811995E-004
                   234  1.382699945377352E-005
                   235 -3.908513036616253E-006
                   236  0.000000000000000E+000
                   237  3.177598641556044E-005
                   238 -3.599217405916131E-004
                   239 -1.003188493238794E-005
                   240 -3.831643738377330E-006
                   241  0.000000000000000E+000
                   242 -6.307824040355822E-005
                   243  7.635904095555194E-005
                   244  8.242336033268240E-008
                   245  2.800564988594843E-005
                   246  0.000000000000000E+000
 Sym= __2_A'_
 Ene=  0.000000000000000E+000
 Spin= Alpha
 Occup=    2.00000000000000     
                     1  4.943949503100666E-005
                     2  3.358832813451972E-004
                     3 -2.668522120463486E-003
                     4 -1.265412765952504E-004
                     5 -1.313537657309388E-003
                     6  2.386664704792133E-004
                     7 -2.639854119224911E-003
                     8  0.000000000000000E+000
                     9  4.116957565991486E-005
                    10  1.131958041081181E-004
                    11  0.000000000000000E+000
                    12  5.980381790711587E-005
                    13  3.316680794047562E-004
                    14  0.000000000000000E+000
                    15 -2.950387534498917E-005
                    16  0.000000000000000E+000
                    17  0.000000000000000E+000
                    18  3.731434681217460E-005
                    19 -1.963722406030546E-005
                    20  1.067507323488419E-004
                    21  0.000000000000000E+000
                    22  0.000000000000000E+000
                    23 -1.358303689742504E-004
                    24  1.531477768252130E-004
                    25  0.000000000000000E+000
                    26  1.771601363775149E-005
                    27 -9.643417090291485E-005
                    28  0.000000000000000E+000
                    29  0.000000000000000E+000
                    30  6.729385594172195E-005
                    31 -1.484378507550319E-004
                    32  -1.00090455911387     
                    33 -9.089210968679986E-003
                    34 -2.766745042815638E-003
                    35  8.053905807489395E-003
                    36  1.890115718826263E-004
                    37  3.009723374980603E-003
                    38  0.000000000000000E+000
                    39  6.393971216041877E-005
                    40 -1.651822403025581E-004
                    41  0.000000000000000E+000
                    42  1.161144777596877E-004
                    43 -3.950744217473512E-003
                    44  0.000000000000000E+000
                    45  5.323641866168726E-004
                    46  0.000000000000000E+000
                    47  0.000000000000000E+000
                    48  1.959070517798772E-004
                    49 -3.478219604137298E-005
                    50 -5.480879785379841E-004
                    51  0.000000000000000E+000
                    52  0.000000000000000E+000
                    53  6.625096583155000E-004
                    54  3.633549939966311E-004
                    55  0.000000000000000E+000
                    56 -1.002589635598414E-005
                    57 -1.000878816491057E-004
                    58  0.000000000000000E+000
                    59  0.000000000000000E+000
                    60  2.933748144026204E-005
                    61 -3.849027674026343E-004
                    62 -1.214139565574568E-002
                    63  1.991548311302334E-003
                    64  2.431098674554932E-004
                    65 -2.713113005945679E-003
                    66 -5.739114922740972E-005
                    67 -5.735102179540667E-005
                    68  0.000000000000000E+000
                    69 -5.499504489513501E-004
                    70 -1.373562570395726E-004
                    71  0.000000000000000E+000
                    72  2.086242537474018E-003
                    73 -2.796382564920608E-004
                    74  0.000000000000000E+000
                    75 -3.262487310813160E-005
                    76  0.000000000000000E+000
                    77  0.000000000000000E+000
                    78  5.590223192289227E-007
                    79 -2.015389640897884E-006
                    80  4.294123180239771E-004
                    81  0.000000000000000E+000
                    82  0.000000000000000E+000
                    83  6.438045820332231E-004
                    84  2.580237423052803E-004
                    85  0.000000000000000E+000
                    86 -2.724682272051895E-005
                    87  5.839690271654814E-005
                    88  0.000000000000000E+000
                    89  0.000000000000000E+000
                    90 -3.924606064417336E-005
                    91 -1.498393087475793E-004
                    92 -1.493088110352226E-002
                    93  2.049175804159111E-003
                    94  2.980031479682655E-004
                    95 -3.160074941601577E-003
                    96 -9.714323803244063E-005
                    97 -8.347014841889958E-005
                    98  0.000000000000000E+000
                    99  9.042484014684237E-004
                   100 -4.037766647569483E-005
                   101  0.000000000000000E+000
                   102 -1.715165086342711E-003
                   103 -1.649143443189334E-005
                   104  0.000000000000000E+000
                   105 -2.440830084601602E-005
                   106  0.000000000000000E+000
                   107  0.000000000000000E+000
                   108  4.340141249704906E-006
                   109 -5.056445208031544E-006
                   110  4.225369728821529E-004
                   111  0.000000000000000E+000
                   112  0.000000000000000E+000
                   113  3.958592265207682E-004
                   114 -2.431620712365555E-004
                   115  0.000000000000000E+000
                   116  3.060650664096804E-005
                   117  7.232833273076761E-005
                   118  0.000000000000000E+000
                   119  0.000000000000000E+000
                   120  4.179055201709856E-006
                   121 -1.325756693547574E-004
                   122  9.814849403351933E-005
                   123  6.920337458572912E-004
                   124 -2.294997991614401E-004
                   125  1.237172333871604E-004
                   126 -1.875677282772671E-006
                   127  3.496733237051600E-004
                   128  0.000000000000000E+000
                   129  8.154873015933504E-005
                   130 -6.083589035505209E-004
                   131  0.000000000000000E+000
                   132 -3.738952628570903E-004
                   133 -8.886883578852229E-004
                   134  0.000000000000000E+000
                   135 -1.838005385601104E-005
                   136  0.000000000000000E+000
                   137  0.000000000000000E+000
                   138 -4.597733190604290E-006
                   139 -4.248081621200503E-005
                   140 -1.298046706435680E-004
                   141  0.000000000000000E+000
                   142  0.000000000000000E+000
                   143 -2.484701959404628E-004
                   144  1.111753054534549E-004
                   145  0.000000000000000E+000
                   146 -9.176501238835133E-006
                   147  3.714092173220652E-005
                   148  0.000000000000000E+000
                   149  0.000000000000000E+000
                   150  4.413856439606556E-005
                   151 -3.659237498883569E-005
                   152 -4.953452578875856E-005
                   153  6.693503358133085E-004
                   154 -2.315781550404178E-004
                   155  5.013163737071268E-005
                   156  3.268038127347214E-005
                   157  3.726496963202729E-004
                   158  0.000000000000000E+000
                   159 -1.297244190305564E-004
                   160 -5.544443419744972E-004