[Molden Format]
[Atoms] AU
  N     1    7     0.0000000000   -4.2904406200    0.0000000000        
  C     2    6     0.0000000000   -1.7771725700    0.0000000000        
  C     3    6    -2.3389117100   -0.4110649700    0.0000000000        
  C     4    6     2.3389117100   -0.4110649700    0.0000000000        
  C     5    6    -2.2998981300    2.1637782300    0.0000000000        
  C     6    6     2.2998981300    2.1637782300    0.0000000000        
  C     7    6     0.0000000000    3.4754627700    0.0000000000        
  H     8    1    -1.6523397500   -5.3100069400    0.0000000000        
  H     9    1     1.6523397500   -5.3100069400    0.0000000000        
  H    10    1    -4.0745248900   -1.4446836500    0.0000000000        
  H    11    1     4.0745248900   -1.4446836500    0.0000000000        
  H    12    1    -4.0420871700    3.1962444400    0.0000000000        
  H    13    1     4.0420871700    3.1962444400    0.0000000000        
  H    14    1     0.0000000000    5.5019532100    0.0000000000        
[5D]
[7F]
[GTO]
  1  0
   s    12 1.00
  0.114200D+05  0.172695D-04
  0.171200D+04  0.134411D-03
  0.389300D+03  0.694561D-03
  0.110000D+03  0.278531D-02
  0.355700D+02  0.863457D-02
  0.125400D+02  0.199805D-01
  0.464400D+01  0.262908D-01
  0.129300D+01 -0.243845D-01
  0.511800D+00 -0.924934D-01
  0.178700D+00 -0.339683D+00
  0.246240D-01  0.345111D+00
  0.112530D-01  0.752750D+00
   s    10 1.00
  0.114200D+05  0.523000D-03
  0.171200D+04  0.404500D-02
  0.389300D+03  0.207750D-01
  0.110000D+03  0.807269D-01
  0.355700D+02  0.233074D+00
  0.125400D+02  0.433501D+00
  0.464400D+01  0.347472D+00
  0.129300D+01  0.412620D-01
  0.511800D+00 -0.850799D-02
  0.178700D+00  0.238400D-02
   s    10 1.00
  0.114200D+05 -0.115000D-03
  0.171200D+04 -0.895000D-03
  0.389300D+03 -0.462400D-02
  0.110000D+03 -0.185280D-01
  0.355700D+02 -0.573390D-01
  0.125400D+02 -0.132076D+00
  0.464400D+01 -0.172510D+00
  0.129300D+01  0.151814D+00
  0.511800D+00  0.599944D+00
  0.178700D+00  0.387462D+00
   s     1 1.00
  0.129300D+01  0.100000D+01
   s     1 1.00
  0.178700D+00  0.100000D+01
   p     5 1.00
  0.266300D+02  0.146700D-01
  0.594800D+01  0.917640D-01
  0.174200D+01  0.298683D+00
  0.555000D+00  0.498487D+00
  0.172500D+00  0.337023D+00
   p     1 1.00
  0.174200D+01  0.100000D+01
   p     1 1.00
  0.555000D+00  0.100000D+01
   d     1 1.00
  0.165400D+01  0.100000D+01
   d     1 1.00
  0.469000D+00  0.100000D+01
   f     1 1.00
  0.109300D+01  0.100000D+01
  
  2  0
   s    10 1.00
  0.823600D+04  0.531000D-03
  0.123500D+04  0.410800D-02
  0.280800D+03  0.210870D-01
  0.792700D+02  0.818530D-01
  0.255900D+02  0.234817D+00
  0.899700D+01  0.434401D+00
  0.331900D+01  0.346129D+00
  0.905900D+00  0.393780D-01
  0.364300D+00 -0.898300D-02
  0.128500D+00  0.238500D-02
   s    10 1.00
  0.823600D+04 -0.113000D-03
  0.123500D+04 -0.878000D-03
  0.280800D+03 -0.454000D-02
  0.792700D+02 -0.181330D-01
  0.255900D+02 -0.557600D-01
  0.899700D+01 -0.126895D+00
  0.331900D+01 -0.170352D+00
  0.905900D+00  0.140382D+00
  0.364300D+00  0.598684D+00
  0.128500D+00  0.395389D+00
   s     1 1.00
  0.905900D+00  0.100000D+01
   s     1 1.00
  0.364300D+00  0.100000D+01
   p     5 1.00
  0.187100D+02  0.140310D-01
  0.413300D+01  0.868660D-01
  0.120000D+01  0.290216D+00
  0.382700D+00  0.501008D+00
  0.120900D+00  0.343406D+00
   p     1 1.00
  0.382700D+00  0.100000D+01
   p     1 1.00
  0.120900D+00  0.100000D+01
   d     1 1.00
  0.109700D+01  0.100000D+01
   d     1 1.00
  0.318000D+00  0.100000D+01
   f     1 1.00
  0.761000D+00  0.100000D+01
  
  3  0
   s    10 1.00
  0.823600D+04  0.531000D-03
  0.123500D+04  0.410800D-02
  0.280800D+03  0.210870D-01
  0.792700D+02  0.818530D-01
  0.255900D+02  0.234817D+00
  0.899700D+01  0.434401D+00
  0.331900D+01  0.346129D+00
  0.905900D+00  0.393780D-01
  0.364300D+00 -0.898300D-02
  0.128500D+00  0.238500D-02
   s    10 1.00
  0.823600D+04 -0.113000D-03
  0.123500D+04 -0.878000D-03
  0.280800D+03 -0.454000D-02
  0.792700D+02 -0.181330D-01
  0.255900D+02 -0.557600D-01
  0.899700D+01 -0.126895D+00
  0.331900D+01 -0.170352D+00
  0.905900D+00  0.140382D+00
  0.364300D+00  0.598684D+00
  0.128500D+00  0.395389D+00
   s     1 1.00
  0.905900D+00  0.100000D+01
   s     1 1.00
  0.364300D+00  0.100000D+01
   p     5 1.00
  0.187100D+02  0.140310D-01
  0.413300D+01  0.868660D-01
  0.120000D+01  0.290216D+00
  0.382700D+00  0.501008D+00
  0.120900D+00  0.343406D+00
   p     1 1.00
  0.382700D+00  0.100000D+01
   p     1 1.00
  0.120900D+00  0.100000D+01
   d     1 1.00
  0.109700D+01  0.100000D+01
   d     1 1.00
  0.318000D+00  0.100000D+01
   f     1 1.00
  0.761000D+00  0.100000D+01
  
  4  0
   s    10 1.00
  0.823600D+04  0.531000D-03
  0.123500D+04  0.410800D-02
  0.280800D+03  0.210870D-01
  0.792700D+02  0.818530D-01
  0.255900D+02  0.234817D+00
  0.899700D+01  0.434401D+00
  0.331900D+01  0.346129D+00
  0.905900D+00  0.393780D-01
  0.364300D+00 -0.898300D-02
  0.128500D+00  0.238500D-02
   s    10 1.00
  0.823600D+04 -0.113000D-03
  0.123500D+04 -0.878000D-03
  0.280800D+03 -0.454000D-02
  0.792700D+02 -0.181330D-01
  0.255900D+02 -0.557600D-01
  0.899700D+01 -0.126895D+00
  0.331900D+01 -0.170352D+00
  0.905900D+00  0.140382D+00
  0.364300D+00  0.598684D+00
  0.128500D+00  0.395389D+00
   s     1 1.00
  0.905900D+00  0.100000D+01
   s     1 1.00
  0.364300D+00  0.100000D+01
   p     5 1.00
  0.187100D+02  0.140310D-01
  0.413300D+01  0.868660D-01
  0.120000D+01  0.290216D+00
  0.382700D+00  0.501008D+00
  0.120900D+00  0.343406D+00
   p     1 1.00
  0.382700D+00  0.100000D+01
   p     1 1.00
  0.120900D+00  0.100000D+01
   d     1 1.00
  0.109700D+01  0.100000D+01
   d     1 1.00
  0.318000D+00  0.100000D+01
   f     1 1.00
  0.761000D+00  0.100000D+01
  
  5  0
   s    10 1.00
  0.823600D+04  0.531000D-03
  0.123500D+04  0.410800D-02
  0.280800D+03  0.210870D-01
  0.792700D+02  0.818530D-01
  0.255900D+02  0.234817D+00
  0.899700D+01  0.434401D+00
  0.331900D+01  0.346129D+00
  0.905900D+00  0.393780D-01
  0.364300D+00 -0.898300D-02
  0.128500D+00  0.238500D-02
   s    10 1.00
  0.823600D+04 -0.113000D-03
  0.123500D+04 -0.878000D-03
  0.280800D+03 -0.454000D-02
  0.792700D+02 -0.181330D-01
  0.255900D+02 -0.557600D-01
  0.899700D+01 -0.126895D+00
  0.331900D+01 -0.170352D+00
  0.905900D+00  0.140382D+00
  0.364300D+00  0.598684D+00
  0.128500D+00  0.395389D+00
   s     1 1.00
  0.905900D+00  0.100000D+01
   s     1 1.00
  0.364300D+00  0.100000D+01
   p     5 1.00
  0.187100D+02  0.140310D-01
  0.413300D+01  0.868660D-01
  0.120000D+01  0.290216D+00
  0.382700D+00  0.501008D+00
  0.120900D+00  0.343406D+00
   p     1 1.00
  0.382700D+00  0.100000D+01
   p     1 1.00
  0.120900D+00  0.100000D+01
   d     1 1.00
  0.109700D+01  0.100000D+01
   d     1 1.00
  0.318000D+00  0.100000D+01
   f     1 1.00
  0.761000D+00  0.100000D+01
  
  6  0
   s    10 1.00
  0.823600D+04  0.531000D-03
  0.123500D+04  0.410800D-02
  0.280800D+03  0.210870D-01
  0.792700D+02  0.818530D-01
  0.255900D+02  0.234817D+00
  0.899700D+01  0.434401D+00
  0.331900D+01  0.346129D+00
  0.905900D+00  0.393780D-01
  0.364300D+00 -0.898300D-02
  0.128500D+00  0.238500D-02
   s    10 1.00
  0.823600D+04 -0.113000D-03
  0.123500D+04 -0.878000D-03
  0.280800D+03 -0.454000D-02
  0.792700D+02 -0.181330D-01
  0.255900D+02 -0.557600D-01
  0.899700D+01 -0.126895D+00
  0.331900D+01 -0.170352D+00
  0.905900D+00  0.140382D+00
  0.364300D+00  0.598684D+00
  0.128500D+00  0.395389D+00
   s     1 1.00
  0.905900D+00  0.100000D+01
   s     1 1.00
  0.364300D+00  0.100000D+01
   p     5 1.00
  0.187100D+02  0.140310D-01
  0.413300D+01  0.868660D-01
  0.120000D+01  0.290216D+00
  0.382700D+00  0.501008D+00
  0.120900D+00  0.343406D+00
   p     1 1.00
  0.382700D+00  0.100000D+01
   p     1 1.00
  0.120900D+00  0.100000D+01
   d     1 1.00
  0.109700D+01  0.100000D+01
   d     1 1.00
  0.318000D+00  0.100000D+01
   f     1 1.00
  0.761000D+00  0.100000D+01
  
  7  0
   s    10 1.00
  0.823600D+04  0.531000D-03
  0.123500D+04  0.410800D-02
  0.280800D+03  0.210870D-01
  0.792700D+02  0.818530D-01
  0.255900D+02  0.234817D+00
  0.899700D+01  0.434401D+00
  0.331900D+01  0.346129D+00
  0.905900D+00  0.393780D-01
  0.364300D+00 -0.898300D-02
  0.128500D+00  0.238500D-02
   s    10 1.00
  0.823600D+04 -0.113000D-03
  0.123500D+04 -0.878000D-03
  0.280800D+03 -0.454000D-02
  0.792700D+02 -0.181330D-01
  0.255900D+02 -0.557600D-01
  0.899700D+01 -0.126895D+00
  0.331900D+01 -0.170352D+00
  0.905900D+00  0.140382D+00
  0.364300D+00  0.598684D+00
  0.128500D+00  0.395389D+00
   s     1 1.00
  0.905900D+00  0.100000D+01
   s     1 1.00
  0.364300D+00  0.100000D+01
   p     5 1.00
  0.187100D+02  0.140310D-01
  0.413300D+01  0.868660D-01
  0.120000D+01  0.290216D+00
  0.382700D+00  0.501008D+00
  0.120900D+00  0.343406D+00
   p     1 1.00
  0.382700D+00  0.100000D+01
   p     1 1.00
  0.120900D+00  0.100000D+01
   d     1 1.00
  0.109700D+01  0.100000D+01
   d     1 1.00
  0.318000D+00  0.100000D+01
   f     1 1.00
  0.761000D+00  0.100000D+01
  
  8  0
   s     4 1.00
  0.130100D+02  0.196850D-01
  0.196200D+01  0.137977D+00
  0.444600D+00  0.478148D+00
  0.122000D+00  0.501240D+00
   s     1 1.00
  0.122000D+00  0.100000D+01
   p     1 1.00
  0.727000D+00  0.100000D+01
  
  9  0
   s     4 1.00
  0.130100D+02  0.196850D-01
  0.196200D+01  0.137977D+00
  0.444600D+00  0.478148D+00
  0.122000D+00  0.501240D+00
   s     1 1.00
  0.122000D+00  0.100000D+01
   p     1 1.00
  0.727000D+00  0.100000D+01
  
 10  0
   s     4 1.00
  0.130100D+02  0.196850D-01
  0.196200D+01  0.137977D+00
  0.444600D+00  0.478148D+00
  0.122000D+00  0.501240D+00
   s     1 1.00
  0.122000D+00  0.100000D+01
   p     1 1.00
  0.727000D+00  0.100000D+01
  
 11  0
   s     4 1.00
  0.130100D+02  0.196850D-01
  0.196200D+01  0.137977D+00
  0.444600D+00  0.478148D+00
  0.122000D+00  0.501240D+00
   s     1 1.00
  0.122000D+00  0.100000D+01
   p     1 1.00
  0.727000D+00  0.100000D+01
  
 12  0
   s     4 1.00
  0.130100D+02  0.196850D-01
  0.196200D+01  0.137977D+00
  0.444600D+00  0.478148D+00
  0.122000D+00  0.501240D+00
   s     1 1.00
  0.122000D+00  0.100000D+01
   p     1 1.00
  0.727000D+00  0.100000D+01
  
 13  0
   s     4 1.00
  0.130100D+02  0.196850D-01
  0.196200D+01  0.137977D+00
  0.444600D+00  0.478148D+00
  0.122000D+00  0.501240D+00
   s     1 1.00
  0.122000D+00  0.100000D+01
   p     1 1.00
  0.727000D+00  0.100000D+01
  
 14  0
   s     4 1.00
  0.130100D+02  0.196850D-01
  0.196200D+01  0.137977D+00
  0.444600D+00  0.478148D+00
  0.122000D+00  0.501240D+00
   s     1 1.00
  0.122000D+00  0.100000D+01
   p     1 1.00
  0.727000D+00  0.100000D+01
  
[MO]
 Sym= __1_A'_
 Ene=   1.00000000000000     
 Spin= Alpha
 Occup=    1.00000000000000     
                     1  4.186212888233892E-005
                     2  0.998069913079125     
                     3  9.281819449665617E-003
                     4  2.062165978784011E-003
                     5  1.523460800348502E-003
                     6  3.335075249341119E-009
                     7  4.485840604749040E-003
                     8  0.000000000000000E+000
                     9  1.094840903547914E-008
                    10 -1.185206805478086E-004
                    11  0.000000000000000E+000
                    12 -6.044514690303488E-008
                    13 -7.688489508613508E-005
                    14  0.000000000000000E+000
                    15 -2.374440118080698E-004
                    16  0.000000000000000E+000
                    17  0.000000000000000E+000
                    18 -1.743595681293453E-004
                    19 -3.555017961791850E-010
                    20  4.232194899013171E-004
                    21  0.000000000000000E+000
                    22  0.000000000000000E+000
                    23 -4.345521882003834E-004
                    24 -7.216686686511241E-009
                    25  0.000000000000000E+000
                    26  1.553690265075687E-010
                    27 -4.353229674841392E-005
                    28  0.000000000000000E+000
                    29  0.000000000000000E+000
                    30  6.741110613163766E-010
                    31 -2.067506476219641E-004
                    32 -3.716355797417243E-004
                    33  2.715517435778767E-003
                    34  1.463585278624538E-004
                    35 -2.441937328350643E-004
                    36  3.120154540371372E-008
                    37 -7.119463174849240E-003
                    38  0.000000000000000E+000
                    39 -1.274321384294691E-007
                    40  3.904996497765139E-004
                    41  0.000000000000000E+000
                    42 -1.360217585891033E-007
                    43  4.409981494728338E-003
                    44  0.000000000000000E+000
                    45 -5.452564236785106E-005
                    46  0.000000000000000E+000
                    47  0.000000000000000E+000
                    48 -3.719941369820342E-004
                    49  7.201605192332208E-009
                    50 -4.216698129428420E-004
                    51  0.000000000000000E+000
                    52  0.000000000000000E+000
                    53  1.934289132553958E-004
                    54 -1.694832041978996E-007
                    55  0.000000000000000E+000
                    56  3.105531123708727E-009
                    57 -6.543600787019250E-006
                    58  0.000000000000000E+000
                    59  0.000000000000000E+000
                    60  9.833549130865267E-010
                    61 -1.363114305240594E-004
                    62 -2.113588889475841E-004
                    63 -1.682499124625703E-003
                    64  6.066041109600736E-005
                    65  5.535090522831385E-004
                    66 -8.414765293920576E-004
                    67  1.016087073525655E-003
                    68  0.000000000000000E+000
                    69 -3.630102498712861E-005
                    70  6.253343078466235E-004
                    71  0.000000000000000E+000
                    72 -5.629698846179522E-004
                    73 -1.303257058443347E-004
                    74  0.000000000000000E+000
                    75 -9.848649837854269E-006
                    76  0.000000000000000E+000
                    77  0.000000000000000E+000
                    78 -1.013019579439761E-004
                    79 -8.445681967617566E-006
                    80 -1.435816223936027E-005
                    81  0.000000000000000E+000
                    82  0.000000000000000E+000
                    83  3.769381265253818E-005
                    84  2.133516047619906E-004
                    85  0.000000000000000E+000
                    86  1.987779058350587E-005
                    87 -4.142237372791150E-005
                    88  0.000000000000000E+000
                    89  0.000000000000000E+000
                    90 -2.579993790103435E-005
                    91 -8.609708600291945E-005
                    92 -2.113441993160039E-004
                    93 -1.682427269856533E-003
                    94  6.082091913934508E-005
                    95  5.529945029414422E-004
                    96  8.415136519046400E-004
                    97  1.016214357294778E-003
                    98  0.000000000000000E+000
                    99  3.609799982551648E-005
                   100  6.245856577589774E-004
                   101  0.000000000000000E+000
                   102  5.624241544509523E-004
                   103 -1.305053302565738E-004
                   104  0.000000000000000E+000
                   105 -9.829711590704801E-006
                   106  0.000000000000000E+000
                   107  0.000000000000000E+000
                   108 -1.012739637201149E-004
                   109  8.459034418142225E-006
                   110 -1.422933698181439E-005
                   111  0.000000000000000E+000
                   112  0.000000000000000E+000
                   113  3.816674314696654E-005
                   114 -2.133830613472898E-004
                   115  0.000000000000000E+000
                   116 -1.987135727755258E-005
                   117 -4.137946593759954E-005
                   118  0.000000000000000E+000
                   119  0.000000000000000E+000
                   120  2.578844988310398E-005
                   121 -8.604605089136994E-005
                   122 -1.479331234542988E-004
                   123  6.874536958415487E-006
                   124  1.109236025553372E-004
                   125  1.286601749545738E-004
                   126  4.140528090180334E-005
                   127 -8.004565191238293E-004
                   128  0.000000000000000E+000
                   129  1.998766751141678E-005
                   130  3.516714408824036E-004
                   131  0.000000000000000E+000
                   132 -1.722264512912106E-004
                   133  7.087251534593856E-004
                   134  0.000000000000000E+000
                   135  1.001709518425375E-005
                   136  0.000000000000000E+000
                   137  0.000000000000000E+000
                   138  1.431501957983445E-005
                   139  1.823286928462771E-006
                   140  1.053764711573720E-004
                   141  0.000000000000000E+000
                   142  0.000000000000000E+000
                   143  1.574665083334280E-004
                   144  1.701544627120128E-004
                   145  0.000000000000000E+000
                   146 -3.888581393779159E-006
                   147 -3.173621582569401E-005
                   148  0.000000000000000E+000
                   149  0.000000000000000E+000
                   150  4.421227792931084E-007
                   151 -2.511978687408524E-005
                   152 -1.482739290946900E-004
                   153  5.657407784943740E-006
                   154  1.105348812379953E-004
                   155  1.309910768952309E-004
                   156 -4.144699742418256E-005
                   157 -8.003735366726367E-004
                   158  0.000000000000000E+000
                   159 -1.996852657786446E-005
                   160  3.510809137024821E-004
                   161  0.000000000000000E+000
                   162  1.727734990385024E-004
                   163  7.085837016027117E-004
                   164  0.000000000000000E+000
                   165  9.963801257468314E-006
                   166  0.000000000000000E+000
                   167  0.000000000000000E+000
                   168  1.428612400089234E-005
                   169 -1.818800630768398E-006
                   170  1.052873715581289E-004
                   171  0.000000000000000E+000
                   172  0.000000000000000E+000
                   173  1.572570654869280E-004
                   174 -1.702360741253553E-004
                   175  0.000000000000000E+000
                   176  3.875202559133751E-006
                   177 -3.171124675099866E-005
                   178  0.000000000000000E+000
                   179  0.000000000000000E+000
                   180 -4.168419448211881E-007
                   181 -2.503908118426437E-005
                   182 -1.217699956226659E-004
                   183 -3.265532710716994E-004
                   184  3.234203390114843E-005
                   185  1.468851341734274E-004
                   186  9.525158330301878E-009
                   187 -4.074620527584295E-005
                   188  0.000000000000000E+000
                   189 -1.044656838000645E-007
                   190  1.809182183763457E-005
                   191  0.000000000000000E+000
                   192  1.125734946030868E-007
                   193  5.480344632042458E-005
                   194  0.000000000000000E+000
                   195 -1.678449819088713E-006
                   196  0.000000000000000E+000
                   197  0.000000000000000E+000
                   198 -2.122159627924236E-005
                   199  7.422218501883491E-009
                   200  1.374387218417844E-005
                   201  0.000000000000000E+000
                   202  0.000000000000000E+000
                   203 -7.635505510078174E-005
                   204  7.548674214090823E-008
                   205  0.000000000000000E+000
                   206  1.023960145164003E-008
                   207 -4.624379197723071E-006
                   208  0.000000000000000E+000
                   209  0.000000000000000E+000
                   210 -8.711293124579202E-009
                   211 -1.115834575209506E-005
                   212  3.859935126045798E-003
                   213 -2.327940065922170E-003
                   214  4.678779097321629E-004
                   215  3.807258728568308E-004
                   216  0.000000000000000E+000
                   217  3.859983243932135E-003
                   218 -2.327956541995141E-003
                   219 -4.679008402172545E-004
                   220  3.807383136396297E-004
                   221  0.000000000000000E+000
                   222 -6.704642082456297E-004
                   223 -1.193281447441977E-004
                   224 -1.699462125889316E-005
                   225 -4.530284936548338E-005
                   226  0.000000000000000E+000
                   227 -6.705306071652330E-004
                   228 -1.190671753357294E-004
                   229  1.697059431263695E-005
                   230 -4.533461262230648E-005
                   231  0.000000000000000E+000
                   232 -2.341007483438748E-004
                   233 -4.094771300786683E-004
                   234 -5.683489167738731E-006
                   235  5.950768891760742E-006
                   236  0.000000000000000E+000
                   237 -2.342304799019916E-004
                   238 -4.095175793304779E-004
                   239  5.748765626714941E-006
                   240  5.985068757975838E-006
                   241  0.000000000000000E+000
                   242  6.900898507928069E-005
                   243 -1.309878458244021E-004
                   244 -8.385333191475607E-009
                   245  1.438817786672193E-005
                   246  0.000000000000000E+000
 Sym= __2_A'_
 Ene=   2.00000000000000     
 Spin= Alpha
 Occup=    1.00000000000000     
                     1 -4.666017307377700E-005
                     2 -2.160967297462159E-004
                     3  2.293938362745592E-003
                     4  1.020149567056207E-004
                     5  1.264186249215501E-003
                     6  3.750499679585712E-009
                     7  3.013010034403096E-003
                     8  0.000000000000000E+000
                     9 -3.304059895653570E-009
                    10 -4.981600696959983E-005
                    11  0.000000000000000E+000
                    12  6.271343288667175E-009
                    13 -5.496426420671297E-004
                    14  0.000000000000000E+000
                    15  3.529654152219661E-005
                    16  0.000000000000000E+000
                    17  0.000000000000000E+000
                    18 -6.961439740579852E-005
                    19  2.603404648104974E-010
                    20 -1.490677154305893E-004
                    21  0.000000000000000E+000
                    22  0.000000000000000E+000
                    23  4.163253213268620E-004
                    24  2.791656866776657E-009
                    25  0.000000000000000E+000
                    26  4.857410002370250E-010
                    27  1.098029814493704E-004
                    28  0.000000000000000E+000
                    29  0.000000000000000E+000
                    30  1.381401896618557E-009
                    31  1.426846202440870E-004
                    32   1.00106028740813     
                    33  9.291419578651561E-003
                    34  2.632515687811874E-003
                    35 -7.762900493447879E-003
                    36 -3.648737302117169E-009
                    37 -4.152855557198781E-003
                    38  0.000000000000000E+000
                    39  2.532975998986720E-009
                    40  1.004000044172902E-003
                    41  0.000000000000000E+000
                    42 -2.504786392933493E-008
                    43  4.450719516302512E-003
                    44  0.000000000000000E+000
                    45 -6.121197650809659E-004
                    46  0.000000000000000E+000
                    47  0.000000000000000E+000
                    48 -1.975113459472497E-004
                    49 -2.766400828443337E-009
                    50  5.225324542520061E-004
                    51  0.000000000000000E+000
                    52  0.000000000000000E+000
                    53 -9.748344064601854E-004
                    54  1.700666151254945E-008
                    55  0.000000000000000E+000
                    56  1.505028232420125E-009
                    57  7.394063098547599E-005
                    58  0.000000000000000E+000
                    59  0.000000000000000E+000
                    60 -1.043772889079431E-009
                    61  4.324500966378064E-004
                    62  7.185669406095042E-003
                    63 -2.059287754369473E-003
                    64 -2.763693106269978E-004
                    65  3.040984875236464E-003
                    66  9.386277130606240E-005
                    67 -7.485439611633587E-006
                    68  0.000000000000000E+000
                    69  6.014458926761994E-004
                    70  1.685683872527687E-005
                    71  0.000000000000000E+000
                    72 -2.098926533086579E-003
                    73  9.586778335763979E-005
                    74  0.000000000000000E+000
                    75  3.259917354638438E-005
                    76  0.000000000000000E+000
                    77  0.000000000000000E+000
                    78 -1.500853294276257E-006
                    79  1.368500797919728E-005
                    80 -3.915873016187127E-004
                    81  0.000000000000000E+000
                    82  0.000000000000000E+000
                    83 -6.555998069749382E-004
                    84 -4.229410654112213E-004
                    85  0.000000000000000E+000
                    86  3.701245113826182E-005
                    87 -5.563315789548701E-005
                    88  0.000000000000000E+000
                    89  0.000000000000000E+000
                    90  5.732654066045963E-005
                    91  1.359571984531517E-004
                    92  7.185646296286517E-003
                    93 -2.059369536526121E-003
                    94 -2.764103109634894E-004
                    95  3.041175481161334E-003
                    96 -9.386532561895911E-005
                    97 -7.509765684092616E-006
                    98  0.000000000000000E+000
                    99 -6.014359589393823E-004
                   100  1.698961111289043E-005
                   101  0.000000000000000E+000
                   102  2.099071295276229E-003
                   103  9.578660487574471E-005
                   104  0.000000000000000E+000
                   105  3.259114817046923E-005
                   106  0.000000000000000E+000
                   107  0.000000000000000E+000
                   108 -1.511907446144663E-006
                   109 -1.369116504122190E-005
                   110 -3.916016606810203E-004
                   111  0.000000000000000E+000
                   112  0.000000000000000E+000
                   113 -6.556655300872748E-004
                   114  4.229832608802244E-004
                   115  0.000000000000000E+000
                   116 -3.701171541800673E-005
                   117 -5.563966989558530E-005
                   118  0.000000000000000E+000
                   119  0.000000000000000E+000
                   120 -5.732386454249407E-005
                   121  1.359453219605768E-004
                   122 -2.332692597504447E-004
                   123 -7.538995013358394E-004
                   124  2.243714147210291E-004
                   125 -1.097053507461650E-004
                   126 -1.798411776282491E-005
                   127 -2.559491429623484E-004
                   128  0.000000000000000E+000
                   129 -9.690132632965515E-006
                   130  5.352737016224219E-004
                   131  0.000000000000000E+000
                   132  3.289008157290006E-004
                   133  7.515618815652706E-004
                   134  0.000000000000000E+000
                   135  1.898776294366021E-005
                   136  0.000000000000000E+000
                   137  0.000000000000000E+000
                   138  5.066135013143520E-006
                   139  5.169070623139297E-005
                   140  1.333159417599657E-004
                   141  0.000000000000000E+000
                   142  0.000000000000000E+000
                   143  2.569025024102716E-004
                   144 -2.182427605334295E-004
                   145  0.000000000000000E+000
                   146  4.979771829280712E-006
                   147 -3.069905791609796E-005
                   148  0.000000000000000E+000
                   149  0.000000000000000E+000
                   150 -4.136257511775606E-005
                   151  2.546764049103572E-005
                   152 -2.330507402791140E-004
                   153 -7.531665114833842E-004
                   154  2.244357101707896E-004
                   155 -1.105261112183220E-004
                   156  1.797603427861083E-005
                   157 -2.559543911069112E-004
                   158  0.000000000000000E+000
                   159  9.725112764767136E-006
                   160  5.353406381180189E-004