[Molden Format]
[Atoms] AU
  N     1    7     0.0000000000   -4.2904406200    0.0000000000        
  C     2    6     0.0000000000   -1.7771725700    0.0000000000        
  C     3    6    -2.3389117100   -0.4110649700    0.0000000000        
  C     4    6     2.3389117100   -0.4110649700    0.0000000000        
  C     5    6    -2.2998981300    2.1637782300    0.0000000000        
  C     6    6     2.2998981300    2.1637782300    0.0000000000        
  C     7    6     0.0000000000    3.4754627700    0.0000000000        
  H     8    1    -1.6523397500   -5.3100069400    0.0000000000        
  H     9    1     1.6523397500   -5.3100069400    0.0000000000        
  H    10    1    -4.0745248900   -1.4446836500    0.0000000000        
  H    11    1     4.0745248900   -1.4446836500    0.0000000000        
  H    12    1    -4.0420871700    3.1962444400    0.0000000000        
  H    13    1     4.0420871700    3.1962444400    0.0000000000        
  H    14    1     0.0000000000    5.5019532100    0.0000000000        
[5D]
[7F]
[GTO]
  1  0
   s    12 1.00
  0.114200D+05  0.172695D-04
  0.171200D+04  0.134411D-03
  0.389300D+03  0.694561D-03
  0.110000D+03  0.278531D-02
  0.355700D+02  0.863457D-02
  0.125400D+02  0.199805D-01
  0.464400D+01  0.262908D-01
  0.129300D+01 -0.243845D-01
  0.511800D+00 -0.924934D-01
  0.178700D+00 -0.339683D+00
  0.246240D-01  0.345111D+00
  0.112530D-01  0.752750D+00
   s    10 1.00
  0.114200D+05  0.523000D-03
  0.171200D+04  0.404500D-02
  0.389300D+03  0.207750D-01
  0.110000D+03  0.807269D-01
  0.355700D+02  0.233074D+00
  0.125400D+02  0.433501D+00
  0.464400D+01  0.347472D+00
  0.129300D+01  0.412620D-01
  0.511800D+00 -0.850799D-02
  0.178700D+00  0.238400D-02
   s    10 1.00
  0.114200D+05 -0.115000D-03
  0.171200D+04 -0.895000D-03
  0.389300D+03 -0.462400D-02
  0.110000D+03 -0.185280D-01
  0.355700D+02 -0.573390D-01
  0.125400D+02 -0.132076D+00
  0.464400D+01 -0.172510D+00
  0.129300D+01  0.151814D+00
  0.511800D+00  0.599944D+00
  0.178700D+00  0.387462D+00
   s     1 1.00
  0.129300D+01  0.100000D+01
   s     1 1.00
  0.178700D+00  0.100000D+01
   p     5 1.00
  0.266300D+02  0.146700D-01
  0.594800D+01  0.917640D-01
  0.174200D+01  0.298683D+00
  0.555000D+00  0.498487D+00
  0.172500D+00  0.337023D+00
   p     1 1.00
  0.174200D+01  0.100000D+01
   p     1 1.00
  0.555000D+00  0.100000D+01
   d     1 1.00
  0.165400D+01  0.100000D+01
   d     1 1.00
  0.469000D+00  0.100000D+01
   f     1 1.00
  0.109300D+01  0.100000D+01
  
  2  0
   s    10 1.00
  0.823600D+04  0.531000D-03
  0.123500D+04  0.410800D-02
  0.280800D+03  0.210870D-01
  0.792700D+02  0.818530D-01
  0.255900D+02  0.234817D+00
  0.899700D+01  0.434401D+00
  0.331900D+01  0.346129D+00
  0.905900D+00  0.393780D-01
  0.364300D+00 -0.898300D-02
  0.128500D+00  0.238500D-02
   s    10 1.00
  0.823600D+04 -0.113000D-03
  0.123500D+04 -0.878000D-03
  0.280800D+03 -0.454000D-02
  0.792700D+02 -0.181330D-01
  0.255900D+02 -0.557600D-01
  0.899700D+01 -0.126895D+00
  0.331900D+01 -0.170352D+00
  0.905900D+00  0.140382D+00
  0.364300D+00  0.598684D+00
  0.128500D+00  0.395389D+00
   s     1 1.00
  0.905900D+00  0.100000D+01
   s     1 1.00
  0.364300D+00  0.100000D+01
   p     5 1.00
  0.187100D+02  0.140310D-01
  0.413300D+01  0.868660D-01
  0.120000D+01  0.290216D+00
  0.382700D+00  0.501008D+00
  0.120900D+00  0.343406D+00
   p     1 1.00
  0.382700D+00  0.100000D+01
   p     1 1.00
  0.120900D+00  0.100000D+01
   d     1 1.00
  0.109700D+01  0.100000D+01
   d     1 1.00
  0.318000D+00  0.100000D+01
   f     1 1.00
  0.761000D+00  0.100000D+01
  
  3  0
   s    10 1.00
  0.823600D+04  0.531000D-03
  0.123500D+04  0.410800D-02
  0.280800D+03  0.210870D-01
  0.792700D+02  0.818530D-01
  0.255900D+02  0.234817D+00
  0.899700D+01  0.434401D+00
  0.331900D+01  0.346129D+00
  0.905900D+00  0.393780D-01
  0.364300D+00 -0.898300D-02
  0.128500D+00  0.238500D-02
   s    10 1.00
  0.823600D+04 -0.113000D-03
  0.123500D+04 -0.878000D-03
  0.280800D+03 -0.454000D-02
  0.792700D+02 -0.181330D-01
  0.255900D+02 -0.557600D-01
  0.899700D+01 -0.126895D+00
  0.331900D+01 -0.170352D+00
  0.905900D+00  0.140382D+00
  0.364300D+00  0.598684D+00
  0.128500D+00  0.395389D+00
   s     1 1.00
  0.905900D+00  0.100000D+01
   s     1 1.00
  0.364300D+00  0.100000D+01
   p     5 1.00
  0.187100D+02  0.140310D-01
  0.413300D+01  0.868660D-01
  0.120000D+01  0.290216D+00
  0.382700D+00  0.501008D+00
  0.120900D+00  0.343406D+00
   p     1 1.00
  0.382700D+00  0.100000D+01
   p     1 1.00
  0.120900D+00  0.100000D+01
   d     1 1.00
  0.109700D+01  0.100000D+01
   d     1 1.00
  0.318000D+00  0.100000D+01
   f     1 1.00
  0.761000D+00  0.100000D+01
  
  4  0
   s    10 1.00
  0.823600D+04  0.531000D-03
  0.123500D+04  0.410800D-02
  0.280800D+03  0.210870D-01
  0.792700D+02  0.818530D-01
  0.255900D+02  0.234817D+00
  0.899700D+01  0.434401D+00
  0.331900D+01  0.346129D+00
  0.905900D+00  0.393780D-01
  0.364300D+00 -0.898300D-02
  0.128500D+00  0.238500D-02
   s    10 1.00
  0.823600D+04 -0.113000D-03
  0.123500D+04 -0.878000D-03
  0.280800D+03 -0.454000D-02
  0.792700D+02 -0.181330D-01
  0.255900D+02 -0.557600D-01
  0.899700D+01 -0.126895D+00
  0.331900D+01 -0.170352D+00
  0.905900D+00  0.140382D+00
  0.364300D+00  0.598684D+00
  0.128500D+00  0.395389D+00
   s     1 1.00
  0.905900D+00  0.100000D+01
   s     1 1.00
  0.364300D+00  0.100000D+01
   p     5 1.00
  0.187100D+02  0.140310D-01
  0.413300D+01  0.868660D-01
  0.120000D+01  0.290216D+00
  0.382700D+00  0.501008D+00
  0.120900D+00  0.343406D+00
   p     1 1.00
  0.382700D+00  0.100000D+01
   p     1 1.00
  0.120900D+00  0.100000D+01
   d     1 1.00
  0.109700D+01  0.100000D+01
   d     1 1.00
  0.318000D+00  0.100000D+01
   f     1 1.00
  0.761000D+00  0.100000D+01
  
  5  0
   s    10 1.00
  0.823600D+04  0.531000D-03
  0.123500D+04  0.410800D-02
  0.280800D+03  0.210870D-01
  0.792700D+02  0.818530D-01
  0.255900D+02  0.234817D+00
  0.899700D+01  0.434401D+00
  0.331900D+01  0.346129D+00
  0.905900D+00  0.393780D-01
  0.364300D+00 -0.898300D-02
  0.128500D+00  0.238500D-02
   s    10 1.00
  0.823600D+04 -0.113000D-03
  0.123500D+04 -0.878000D-03
  0.280800D+03 -0.454000D-02
  0.792700D+02 -0.181330D-01
  0.255900D+02 -0.557600D-01
  0.899700D+01 -0.126895D+00
  0.331900D+01 -0.170352D+00
  0.905900D+00  0.140382D+00
  0.364300D+00  0.598684D+00
  0.128500D+00  0.395389D+00
   s     1 1.00
  0.905900D+00  0.100000D+01
   s     1 1.00
  0.364300D+00  0.100000D+01
   p     5 1.00
  0.187100D+02  0.140310D-01
  0.413300D+01  0.868660D-01
  0.120000D+01  0.290216D+00
  0.382700D+00  0.501008D+00
  0.120900D+00  0.343406D+00
   p     1 1.00
  0.382700D+00  0.100000D+01
   p     1 1.00
  0.120900D+00  0.100000D+01
   d     1 1.00
  0.109700D+01  0.100000D+01
   d     1 1.00
  0.318000D+00  0.100000D+01
   f     1 1.00
  0.761000D+00  0.100000D+01
  
  6  0
   s    10 1.00
  0.823600D+04  0.531000D-03
  0.123500D+04  0.410800D-02
  0.280800D+03  0.210870D-01
  0.792700D+02  0.818530D-01
  0.255900D+02  0.234817D+00
  0.899700D+01  0.434401D+00
  0.331900D+01  0.346129D+00
  0.905900D+00  0.393780D-01
  0.364300D+00 -0.898300D-02
  0.128500D+00  0.238500D-02
   s    10 1.00
  0.823600D+04 -0.113000D-03
  0.123500D+04 -0.878000D-03
  0.280800D+03 -0.454000D-02
  0.792700D+02 -0.181330D-01
  0.255900D+02 -0.557600D-01
  0.899700D+01 -0.126895D+00
  0.331900D+01 -0.170352D+00
  0.905900D+00  0.140382D+00
  0.364300D+00  0.598684D+00
  0.128500D+00  0.395389D+00
   s     1 1.00
  0.905900D+00  0.100000D+01
   s     1 1.00
  0.364300D+00  0.100000D+01
   p     5 1.00
  0.187100D+02  0.140310D-01
  0.413300D+01  0.868660D-01
  0.120000D+01  0.290216D+00
  0.382700D+00  0.501008D+00
  0.120900D+00  0.343406D+00
   p     1 1.00
  0.382700D+00  0.100000D+01
   p     1 1.00
  0.120900D+00  0.100000D+01
   d     1 1.00
  0.109700D+01  0.100000D+01
   d     1 1.00
  0.318000D+00  0.100000D+01
   f     1 1.00
  0.761000D+00  0.100000D+01
  
  7  0
   s    10 1.00
  0.823600D+04  0.531000D-03
  0.123500D+04  0.410800D-02
  0.280800D+03  0.210870D-01
  0.792700D+02  0.818530D-01
  0.255900D+02  0.234817D+00
  0.899700D+01  0.434401D+00
  0.331900D+01  0.346129D+00
  0.905900D+00  0.393780D-01
  0.364300D+00 -0.898300D-02
  0.128500D+00  0.238500D-02
   s    10 1.00
  0.823600D+04 -0.113000D-03
  0.123500D+04 -0.878000D-03
  0.280800D+03 -0.454000D-02
  0.792700D+02 -0.181330D-01
  0.255900D+02 -0.557600D-01
  0.899700D+01 -0.126895D+00
  0.331900D+01 -0.170352D+00
  0.905900D+00  0.140382D+00
  0.364300D+00  0.598684D+00
  0.128500D+00  0.395389D+00
   s     1 1.00
  0.905900D+00  0.100000D+01
   s     1 1.00
  0.364300D+00  0.100000D+01
   p     5 1.00
  0.187100D+02  0.140310D-01
  0.413300D+01  0.868660D-01
  0.120000D+01  0.290216D+00
  0.382700D+00  0.501008D+00
  0.120900D+00  0.343406D+00
   p     1 1.00
  0.382700D+00  0.100000D+01
   p     1 1.00
  0.120900D+00  0.100000D+01
   d     1 1.00
  0.109700D+01  0.100000D+01
   d     1 1.00
  0.318000D+00  0.100000D+01
   f     1 1.00
  0.761000D+00  0.100000D+01
  
  8  0
   s     4 1.00
  0.130100D+02  0.196850D-01
  0.196200D+01  0.137977D+00
  0.444600D+00  0.478148D+00
  0.122000D+00  0.501240D+00
   s     1 1.00
  0.122000D+00  0.100000D+01
   p     1 1.00
  0.727000D+00  0.100000D+01
  
  9  0
   s     4 1.00
  0.130100D+02  0.196850D-01
  0.196200D+01  0.137977D+00
  0.444600D+00  0.478148D+00
  0.122000D+00  0.501240D+00
   s     1 1.00
  0.122000D+00  0.100000D+01
   p     1 1.00
  0.727000D+00  0.100000D+01
  
 10  0
   s     4 1.00
  0.130100D+02  0.196850D-01
  0.196200D+01  0.137977D+00
  0.444600D+00  0.478148D+00
  0.122000D+00  0.501240D+00
   s     1 1.00
  0.122000D+00  0.100000D+01
   p     1 1.00
  0.727000D+00  0.100000D+01
  
 11  0
   s     4 1.00
  0.130100D+02  0.196850D-01
  0.196200D+01  0.137977D+00
  0.444600D+00  0.478148D+00
  0.122000D+00  0.501240D+00
   s     1 1.00
  0.122000D+00  0.100000D+01
   p     1 1.00
  0.727000D+00  0.100000D+01
  
 12  0
   s     4 1.00
  0.130100D+02  0.196850D-01
  0.196200D+01  0.137977D+00
  0.444600D+00  0.478148D+00
  0.122000D+00  0.501240D+00
   s     1 1.00
  0.122000D+00  0.100000D+01
   p     1 1.00
  0.727000D+00  0.100000D+01
  
 13  0
   s     4 1.00
  0.130100D+02  0.196850D-01
  0.196200D+01  0.137977D+00
  0.444600D+00  0.478148D+00
  0.122000D+00  0.501240D+00
   s     1 1.00
  0.122000D+00  0.100000D+01
   p     1 1.00
  0.727000D+00  0.100000D+01
  
 14  0
   s     4 1.00
  0.130100D+02  0.196850D-01
  0.196200D+01  0.137977D+00
  0.444600D+00  0.478148D+00
  0.122000D+00  0.501240D+00
   s     1 1.00
  0.122000D+00  0.100000D+01
   p     1 1.00
  0.727000D+00  0.100000D+01
  
[MO]
 Sym= __1_A'_
 Ene=  0.000000000000000E+000
 Spin= Alpha
 Occup=    2.00000000000000     
                     1  4.186211671422750E-005
                     2  0.998069913075323     
                     3  9.281819869572130E-003
                     4  2.062165967802279E-003
                     5  1.523460176650435E-003
                     6  3.335084823795902E-009
                     7  4.485840738010705E-003
                     8  0.000000000000000E+000
                     9  1.094840576927111E-008
                    10 -1.185206086512030E-004
                    11  0.000000000000000E+000
                    12 -6.044514137267123E-008
                    13 -7.688485950270309E-005
                    14  0.000000000000000E+000
                    15 -2.374440197527677E-004
                    16  0.000000000000000E+000
                    17  0.000000000000000E+000
                    18 -1.743595729692787E-004
                    19 -3.554985843223318E-010
                    20  4.232195405103366E-004
                    21  0.000000000000000E+000
                    22  0.000000000000000E+000
                    23 -4.345522845119906E-004
                    24 -7.216673420698878E-009
                    25  0.000000000000000E+000
                    26  1.553670122445678E-010
                    27 -4.353230396990695E-005
                    28  0.000000000000000E+000
                    29  0.000000000000000E+000
                    30  6.741193148228884E-010
                    31 -2.067506362377721E-004
                    32 -3.716413094547651E-004
                    33  2.715525992978358E-003
                    34  1.463583677029472E-004
                    35 -2.441935312936454E-004
                    36  3.120193625947714E-008
                    37 -7.119458844442170E-003
                    38  0.000000000000000E+000
                    39 -1.274321665068056E-007
                    40  3.904994260917142E-004
                    41  0.000000000000000E+000
                    42 -1.360219428037691E-007
                    43  4.409980804535168E-003
                    44  0.000000000000000E+000
                    45 -5.452579161003293E-005
                    46  0.000000000000000E+000
                    47  0.000000000000000E+000
                    48 -3.719941158626872E-004
                    49  7.201616462261593E-009
                    50 -4.216700492249087E-004
                    51  0.000000000000000E+000
                    52  0.000000000000000E+000
                    53  1.934291008416597E-004
                    54 -1.694831798922441E-007
                    55  0.000000000000000E+000
                    56  3.105528798240778E-009
                    57 -6.543636914229191E-006
                    58  0.000000000000000E+000
                    59  0.000000000000000E+000
                    60  9.833508964874499E-010
                    61 -1.363112649704873E-004
                    62 -2.113589443312997E-004
                    63 -1.682497900352544E-003
                    64  6.066039388135966E-005
                    65  5.535092118194203E-004
                    66 -8.414700288857581E-004
                    67  1.016088770007961E-003
                    68  0.000000000000000E+000
                    69 -3.630163523662290E-005
                    70  6.253343200437131E-004
                    71  0.000000000000000E+000
                    72 -5.629718337501746E-004
                    73 -1.303255556836208E-004
                    74  0.000000000000000E+000
                    75 -9.848699999805763E-006
                    76  0.000000000000000E+000
                    77  0.000000000000000E+000
                    78 -1.013019498126088E-004
                    79 -8.445854289053075E-006
                    80 -1.435831449597200E-005
                    81  0.000000000000000E+000
                    82  0.000000000000000E+000
                    83  3.769397050889160E-005
                    84  2.133517886530372E-004
                    85  0.000000000000000E+000
                    86  1.987774754003356E-005
                    87 -4.142238821823638E-005
                    88  0.000000000000000E+000
                    89  0.000000000000000E+000
                    90 -2.579996108119186E-005
                    91 -8.609715218668499E-005
                    92 -2.113442547006271E-004
                    93 -1.682426045231497E-003
                    94  6.082090191031049E-005
                    95  5.529946624658183E-004
                    96  8.415071509681149E-004
                    97  1.016216053557329E-003
                    98  0.000000000000000E+000
                    99  3.609861011146254E-005
                   100  6.245856699829503E-004
                   101  0.000000000000000E+000
                   102  5.624261035134282E-004
                   103 -1.305051801803120E-004
                   104  0.000000000000000E+000
                   105 -9.829761758904165E-006
                   106  0.000000000000000E+000
                   107  0.000000000000000E+000
                   108 -1.012739555863993E-004
                   109  8.459206754584187E-006
                   110 -1.422948925891635E-005
                   111  0.000000000000000E+000
                   112  0.000000000000000E+000
                   113  3.816690099171148E-005
                   114 -2.133832452179771E-004
                   115  0.000000000000000E+000
                   116 -1.987131422928359E-005
                   117 -4.137948042699749E-005
                   118  0.000000000000000E+000
                   119  0.000000000000000E+000
                   120  2.578847306302421E-005
                   121 -8.604611708447643E-005
                   122 -1.479332476659963E-004
                   123  6.874388118425678E-006
                   124  1.109236329619673E-004
                   125  1.286604846992258E-004
                   126  4.140571900704288E-005
                   127 -8.004586305974243E-004
                   128  0.000000000000000E+000
                   129  1.998760824559296E-005
                   130  3.516716827614924E-004
                   131  0.000000000000000E+000
                   132 -1.722268134252089E-004
                   133  7.087262417117065E-004
                   134  0.000000000000000E+000
                   135  1.001707881643307E-005
                   136  0.000000000000000E+000
                   137  0.000000000000000E+000
                   138  1.431495019085088E-005
                   139  1.823197444163804E-006
                   140  1.053764666430083E-004
                   141  0.000000000000000E+000
                   142  0.000000000000000E+000
                   143  1.574664627643927E-004
                   144  1.701543943790289E-004
                   145  0.000000000000000E+000
                   146 -3.888588720224733E-006
                   147 -3.173621094619116E-005
                   148  0.000000000000000E+000
                   149  0.000000000000000E+000
                   150  4.421636682558126E-007
                   151 -2.511976947109238E-005
                   152 -1.482740533245927E-004
                   153  5.657258832815057E-006
                   154  1.105349116815965E-004
                   155  1.309913864811687E-004
                   156 -4.144743553600713E-005
                   157 -8.003756481980450E-004
                   158  0.000000000000000E+000
                   159 -1.996846727019091E-005
                   160  3.510811555849199E-004
                   161  0.000000000000000E+000
                   162  1.727738613634041E-004
                   163  7.085847897468298E-004
                   164  0.000000000000000E+000
                   165  9.963784895431198E-006
                   166  0.000000000000000E+000
                   167  0.000000000000000E+000
                   168  1.428605461203687E-005
                   169 -1.818711138301634E-006
                   170  1.052873670573004E-004
                   171  0.000000000000000E+000
                   172  0.000000000000000E+000
                   173  1.572570198940663E-004
                   174 -1.702360057590027E-004
                   175  0.000000000000000E+000
                   176  3.875209883371622E-006
                   177 -3.171124187107620E-005
                   178  0.000000000000000E+000
                   179  0.000000000000000E+000
                   180 -4.168828379975468E-007
                   181 -2.503906378916892E-005
                   182 -1.217701693882600E-004
                   183 -3.265549572973287E-004
                   184  3.234207858465717E-005
                   185  1.468855094326500E-004
                   186  9.525069542108233E-009
                   187 -4.074555132516233E-005
                   188  0.000000000000000E+000
                   189 -1.044656310623244E-007
                   190  1.809168216512207E-005
                   191  0.000000000000000E+000
                   192  1.125736107477928E-007
                   193  5.480383470542565E-005
                   194  0.000000000000000E+000
                   195 -1.678447310766783E-006
                   196  0.000000000000000E+000
                   197  0.000000000000000E+000
                   198 -2.122167541941666E-005
                   199  7.422219169430866E-009
                   200  1.374389291087220E-005
                   201  0.000000000000000E+000
                   202  0.000000000000000E+000
                   203 -7.635524773653257E-005
                   204  7.548671274841149E-008
                   205  0.000000000000000E+000
                   206  1.023959980084324E-008
                   207 -4.624374763844002E-006
                   208  0.000000000000000E+000
                   209  0.000000000000000E+000
                   210 -8.711290911333122E-009
                   211 -1.115832931329883E-005
                   212  3.859935166986822E-003
                   213 -2.327939936794658E-003
                   214  4.678779349719340E-004
                   215  3.807258774908083E-004
                   216  0.000000000000000E+000
                   217  3.859983284821456E-003
                   218 -2.327956412881231E-003
                   219 -4.679008654535032E-004
                   220  3.807383182755644E-004
                   221  0.000000000000000E+000
                   222 -6.704696929349290E-004
                   223 -1.193268763488370E-004
                   224 -1.699488714362557E-005
                   225 -4.530302040795154E-005
                   226  0.000000000000000E+000
                   227 -6.705360919959520E-004
                   228 -1.190659069092110E-004
                   229  1.697086020054827E-005
                   230 -4.533478366975241E-005
                   231  0.000000000000000E+000
                   232 -2.341014868174475E-004
                   233 -4.094772989563097E-004
                   234 -5.683556365445370E-006
                   235  5.950798538045217E-006
                   236  0.000000000000000E+000
                   237 -2.342312184310865E-004
                   238 -4.095177482313694E-004
                   239  5.748832826797099E-006
                   240  5.985098404189509E-006
                   241  0.000000000000000E+000
                   242  6.900950563063739E-005
                   243 -1.309882368481955E-004
                   244 -8.385332133656500E-009
                   245  1.438817624727994E-005
                   246  0.000000000000000E+000
 Sym= __2_A'_
 Ene=  0.000000000000000E+000
 Spin= Alpha
 Occup=    2.00000000000000     
                     1 -4.666019527200437E-005
                     2 -2.160912494412339E-004
                     3  2.293938338956358E-003
                     4  1.020149785730033E-004
                     5  1.264186375255917E-003
                     6  3.750501702895853E-009
                     7  3.013010069278095E-003
                     8  0.000000000000000E+000
                     9 -3.304061788133498E-009
                    10 -4.981600737968359E-005
                    11  0.000000000000000E+000
                    12  6.271347972831289E-009
                    13 -5.496426148904846E-004
                    14  0.000000000000000E+000
                    15  3.529654640260590E-005
                    16  0.000000000000000E+000
                    17  0.000000000000000E+000
                    18 -6.961439572885884E-005
                    19  2.603402845693497E-010
                    20 -1.490676768144709E-004
                    21  0.000000000000000E+000
                    22  0.000000000000000E+000
                    23  4.163253401949192E-004
                    24  2.791660546814059E-009
                    25  0.000000000000000E+000
                    26  4.857397666119211E-010
                    27  1.098029905519281E-004
                    28  0.000000000000000E+000
                    29  0.000000000000000E+000
                    30  1.381406649498195E-009
                    31  1.426846228549307E-004
                    32   1.00106028694477     
                    33  9.291417215181645E-003
                    34  2.632515669496306E-003
                    35 -7.762900032574510E-003
                    36 -3.648725642732914E-009
                    37 -4.152856060546620E-003
                    38  0.000000000000000E+000
                    39  2.532977202797401E-009
                    40  1.004000049082467E-003
                    41  0.000000000000000E+000
                    42 -2.504786325948083E-008
                    43  4.450719208437863E-003
                    44  0.000000000000000E+000
                    45 -6.121197363349667E-004
                    46  0.000000000000000E+000
                    47  0.000000000000000E+000
                    48 -1.975114487513133E-004
                    49 -2.766400286311136E-009
                    50  5.225325082183792E-004
                    51  0.000000000000000E+000
                    52  0.000000000000000E+000
                    53 -9.748343604925028E-004
                    54  1.700667495085634E-008
                    55  0.000000000000000E+000
                    56  1.505029186048398E-009
                    57  7.394063638410641E-005
                    58  0.000000000000000E+000
                    59  0.000000000000000E+000
                    60 -1.043775559966487E-009
                    61  4.324500571285805E-004
                    62  7.185698995838132E-003
                    63 -2.059288272909062E-003
                    64 -2.763692068783954E-004
                    65  3.040984634867775E-003
                    66  9.386347965179289E-005
                    67 -7.482140396381978E-006
                    68  0.000000000000000E+000
                    69  6.014457103043552E-004
                    70  1.685651292206874E-005
                    71  0.000000000000000E+000
                    72 -2.098926374135222E-003
                    73  9.586711721164357E-005
                    74  0.000000000000000E+000
                    75  3.259917055197211E-005
                    76  0.000000000000000E+000
                    77  0.000000000000000E+000
                    78 -1.500955644211886E-006
                    79  1.368499973776159E-005
                    80 -3.915872934742111E-004
                    81  0.000000000000000E+000
                    82  0.000000000000000E+000
                    83 -6.555997390946226E-004
                    84 -4.229408520047646E-004
                    85  0.000000000000000E+000
                    86  3.701245630727940E-005
                    87 -5.563318123545102E-005
                    88  0.000000000000000E+000
                    89  0.000000000000000E+000
                    90  5.732653635330735E-005
                    91  1.359571907212967E-004
                    92  7.185675888966075E-003
                    93 -2.059370055014401E-003
                    94 -2.764102072185462E-004
                    95  3.041175240803309E-003
                    96 -9.386603399156660E-005
                    97 -7.506466447348618E-006
                    98  0.000000000000000E+000
                    99 -6.014357765538875E-004
                   100  1.698928534959517E-005
                   101  0.000000000000000E+000
                   102  2.099071136369127E-003
                   103  9.578593872856918E-005
                   104  0.000000000000000E+000
                   105  3.259114517295377E-005
                   106  0.000000000000000E+000
                   107  0.000000000000000E+000
                   108 -1.512009798538195E-006
                   109 -1.369115680052352E-005
                   110 -3.916016525457633E-004
                   111  0.000000000000000E+000
                   112  0.000000000000000E+000
                   113 -6.556654622350315E-004
                   114  4.229830474795143E-004
                   115  0.000000000000000E+000
                   116 -3.701172058664842E-005
                   117 -5.563969323812671E-005
                   118  0.000000000000000E+000
                   119  0.000000000000000E+000
                   120 -5.732386023398167E-005
                   121  1.359453142236663E-004
                   122 -2.332691565672663E-004
                   123 -7.538984633440013E-004
                   124  2.243713671645206E-004
                   125 -1.097052001133916E-004
                   126 -1.798378075452903E-005
                   127 -2.559515770489688E-004
                   128  0.000000000000000E+000
                   129 -9.690215864081420E-006
                   130  5.352738019121043E-004
                   131  0.000000000000000E+000
                   132  3.289006500417453E-004
                   133  7.515621908620370E-004
                   134  0.000000000000000E+000
                   135  1.898773950149259E-005
                   136  0.000000000000000E+000
                   137  0.000000000000000E+000
                   138  5.066061182163700E-006
                   139  5.169070618785165E-005
                   140  1.333158878669461E-004
                   141  0.000000000000000E+000
                   142  0.000000000000000E+000
                   143  2.569024010577102E-004
                   144 -2.182427325417980E-004
                   145  0.000000000000000E+000
                   146  4.979768602845184E-006
                   147 -3.069904274039369E-005
                   148  0.000000000000000E+000
                   149  0.000000000000000E+000
                   150 -4.136257436588708E-005
                   151  2.546766528567542E-005
                   152 -2.330506374906376E-004
                   153 -7.531654734329210E-004
                   154  2.244356626416143E-004
                   155 -1.105259607392534E-004
                   156  1.797569725390238E-005
                   157 -2.559568252531852E-004
                   158  0.000000000000000E+000
                   159  9.725196015945731E-006
                   160  5.353407384386586E-004