[Molden Format]
[Atoms] AU
  N     1    7     0.0000000000   -4.2907334100    0.0000000000        
  C     2    6     0.0000000000   -1.7772236300    0.0000000000        
  C     3    6    -2.3389203600   -0.4111016300    0.0000000000        
  C     4    6     2.3389203600   -0.4111016300    0.0000000000        
  C     5    6    -2.2998668500    2.1639215300    0.0000000000        
  C     6    6     2.2998668500    2.1639215300    0.0000000000        
  C     7    6     0.0000000000    3.4755251800    0.0000000000        
  H     8    1    -3.5382613300   -6.4735436800    0.0000000000        
  H     9    1     1.6528040300   -5.3103747800    0.0000000000        
  H    10    1    -4.0745407300   -1.4447408500    0.0000000000        
  H    11    1     4.0745407300   -1.4447408500    0.0000000000        
  H    12    1    -4.0420632100    3.1963889500    0.0000000000        
  H    13    1     4.0420632100    3.1963889500    0.0000000000        
  H    14    1     0.0000000000    5.5020335600    0.0000000000        
[5D]
[7F]
[GTO]
  1  0
   s    12 1.00
  0.114200D+05  0.172695D-04
  0.171200D+04  0.134411D-03
  0.389300D+03  0.694561D-03
  0.110000D+03  0.278531D-02
  0.355700D+02  0.863457D-02
  0.125400D+02  0.199805D-01
  0.464400D+01  0.262908D-01
  0.129300D+01 -0.243845D-01
  0.511800D+00 -0.924934D-01
  0.178700D+00 -0.339683D+00
  0.246240D-01  0.345111D+00
  0.112530D-01  0.752750D+00
   s    10 1.00
  0.114200D+05  0.523000D-03
  0.171200D+04  0.404500D-02
  0.389300D+03  0.207750D-01
  0.110000D+03  0.807269D-01
  0.355700D+02  0.233074D+00
  0.125400D+02  0.433501D+00
  0.464400D+01  0.347472D+00
  0.129300D+01  0.412620D-01
  0.511800D+00 -0.850799D-02
  0.178700D+00  0.238400D-02
   s    10 1.00
  0.114200D+05 -0.115000D-03
  0.171200D+04 -0.895000D-03
  0.389300D+03 -0.462400D-02
  0.110000D+03 -0.185280D-01
  0.355700D+02 -0.573390D-01
  0.125400D+02 -0.132076D+00
  0.464400D+01 -0.172510D+00
  0.129300D+01  0.151814D+00
  0.511800D+00  0.599944D+00
  0.178700D+00  0.387462D+00
   s     1 1.00
  0.129300D+01  0.100000D+01
   s     1 1.00
  0.178700D+00  0.100000D+01
   p     5 1.00
  0.266300D+02  0.146700D-01
  0.594800D+01  0.917640D-01
  0.174200D+01  0.298683D+00
  0.555000D+00  0.498487D+00
  0.172500D+00  0.337023D+00
   p     1 1.00
  0.174200D+01  0.100000D+01
   p     1 1.00
  0.555000D+00  0.100000D+01
   d     1 1.00
  0.165400D+01  0.100000D+01
   d     1 1.00
  0.469000D+00  0.100000D+01
   f     1 1.00
  0.109300D+01  0.100000D+01
  
  2  0
   s    10 1.00
  0.823600D+04  0.531000D-03
  0.123500D+04  0.410800D-02
  0.280800D+03  0.210870D-01
  0.792700D+02  0.818530D-01
  0.255900D+02  0.234817D+00
  0.899700D+01  0.434401D+00
  0.331900D+01  0.346129D+00
  0.905900D+00  0.393780D-01
  0.364300D+00 -0.898300D-02
  0.128500D+00  0.238500D-02
   s    10 1.00
  0.823600D+04 -0.113000D-03
  0.123500D+04 -0.878000D-03
  0.280800D+03 -0.454000D-02
  0.792700D+02 -0.181330D-01
  0.255900D+02 -0.557600D-01
  0.899700D+01 -0.126895D+00
  0.331900D+01 -0.170352D+00
  0.905900D+00  0.140382D+00
  0.364300D+00  0.598684D+00
  0.128500D+00  0.395389D+00
   s     1 1.00
  0.905900D+00  0.100000D+01
   s     1 1.00
  0.364300D+00  0.100000D+01
   p     5 1.00
  0.187100D+02  0.140310D-01
  0.413300D+01  0.868660D-01
  0.120000D+01  0.290216D+00
  0.382700D+00  0.501008D+00
  0.120900D+00  0.343406D+00
   p     1 1.00
  0.382700D+00  0.100000D+01
   p     1 1.00
  0.120900D+00  0.100000D+01
   d     1 1.00
  0.109700D+01  0.100000D+01
   d     1 1.00
  0.318000D+00  0.100000D+01
   f     1 1.00
  0.761000D+00  0.100000D+01
  
  3  0
   s    10 1.00
  0.823600D+04  0.531000D-03
  0.123500D+04  0.410800D-02
  0.280800D+03  0.210870D-01
  0.792700D+02  0.818530D-01
  0.255900D+02  0.234817D+00
  0.899700D+01  0.434401D+00
  0.331900D+01  0.346129D+00
  0.905900D+00  0.393780D-01
  0.364300D+00 -0.898300D-02
  0.128500D+00  0.238500D-02
   s    10 1.00
  0.823600D+04 -0.113000D-03
  0.123500D+04 -0.878000D-03
  0.280800D+03 -0.454000D-02
  0.792700D+02 -0.181330D-01
  0.255900D+02 -0.557600D-01
  0.899700D+01 -0.126895D+00
  0.331900D+01 -0.170352D+00
  0.905900D+00  0.140382D+00
  0.364300D+00  0.598684D+00
  0.128500D+00  0.395389D+00
   s     1 1.00
  0.905900D+00  0.100000D+01
   s     1 1.00
  0.364300D+00  0.100000D+01
   p     5 1.00
  0.187100D+02  0.140310D-01
  0.413300D+01  0.868660D-01
  0.120000D+01  0.290216D+00
  0.382700D+00  0.501008D+00
  0.120900D+00  0.343406D+00
   p     1 1.00
  0.382700D+00  0.100000D+01
   p     1 1.00
  0.120900D+00  0.100000D+01
   d     1 1.00
  0.109700D+01  0.100000D+01
   d     1 1.00
  0.318000D+00  0.100000D+01
   f     1 1.00
  0.761000D+00  0.100000D+01
  
  4  0
   s    10 1.00
  0.823600D+04  0.531000D-03
  0.123500D+04  0.410800D-02
  0.280800D+03  0.210870D-01
  0.792700D+02  0.818530D-01
  0.255900D+02  0.234817D+00
  0.899700D+01  0.434401D+00
  0.331900D+01  0.346129D+00
  0.905900D+00  0.393780D-01
  0.364300D+00 -0.898300D-02
  0.128500D+00  0.238500D-02
   s    10 1.00
  0.823600D+04 -0.113000D-03
  0.123500D+04 -0.878000D-03
  0.280800D+03 -0.454000D-02
  0.792700D+02 -0.181330D-01
  0.255900D+02 -0.557600D-01
  0.899700D+01 -0.126895D+00
  0.331900D+01 -0.170352D+00
  0.905900D+00  0.140382D+00
  0.364300D+00  0.598684D+00
  0.128500D+00  0.395389D+00
   s     1 1.00
  0.905900D+00  0.100000D+01
   s     1 1.00
  0.364300D+00  0.100000D+01
   p     5 1.00
  0.187100D+02  0.140310D-01
  0.413300D+01  0.868660D-01
  0.120000D+01  0.290216D+00
  0.382700D+00  0.501008D+00
  0.120900D+00  0.343406D+00
   p     1 1.00
  0.382700D+00  0.100000D+01
   p     1 1.00
  0.120900D+00  0.100000D+01
   d     1 1.00
  0.109700D+01  0.100000D+01
   d     1 1.00
  0.318000D+00  0.100000D+01
   f     1 1.00
  0.761000D+00  0.100000D+01
  
  5  0
   s    10 1.00
  0.823600D+04  0.531000D-03
  0.123500D+04  0.410800D-02
  0.280800D+03  0.210870D-01
  0.792700D+02  0.818530D-01
  0.255900D+02  0.234817D+00
  0.899700D+01  0.434401D+00
  0.331900D+01  0.346129D+00
  0.905900D+00  0.393780D-01
  0.364300D+00 -0.898300D-02
  0.128500D+00  0.238500D-02
   s    10 1.00
  0.823600D+04 -0.113000D-03
  0.123500D+04 -0.878000D-03
  0.280800D+03 -0.454000D-02
  0.792700D+02 -0.181330D-01
  0.255900D+02 -0.557600D-01
  0.899700D+01 -0.126895D+00
  0.331900D+01 -0.170352D+00
  0.905900D+00  0.140382D+00
  0.364300D+00  0.598684D+00
  0.128500D+00  0.395389D+00
   s     1 1.00
  0.905900D+00  0.100000D+01
   s     1 1.00
  0.364300D+00  0.100000D+01
   p     5 1.00
  0.187100D+02  0.140310D-01
  0.413300D+01  0.868660D-01
  0.120000D+01  0.290216D+00
  0.382700D+00  0.501008D+00
  0.120900D+00  0.343406D+00
   p     1 1.00
  0.382700D+00  0.100000D+01
   p     1 1.00
  0.120900D+00  0.100000D+01
   d     1 1.00
  0.109700D+01  0.100000D+01
   d     1 1.00
  0.318000D+00  0.100000D+01
   f     1 1.00
  0.761000D+00  0.100000D+01
  
  6  0
   s    10 1.00
  0.823600D+04  0.531000D-03
  0.123500D+04  0.410800D-02
  0.280800D+03  0.210870D-01
  0.792700D+02  0.818530D-01
  0.255900D+02  0.234817D+00
  0.899700D+01  0.434401D+00
  0.331900D+01  0.346129D+00
  0.905900D+00  0.393780D-01
  0.364300D+00 -0.898300D-02
  0.128500D+00  0.238500D-02
   s    10 1.00
  0.823600D+04 -0.113000D-03
  0.123500D+04 -0.878000D-03
  0.280800D+03 -0.454000D-02
  0.792700D+02 -0.181330D-01
  0.255900D+02 -0.557600D-01
  0.899700D+01 -0.126895D+00
  0.331900D+01 -0.170352D+00
  0.905900D+00  0.140382D+00
  0.364300D+00  0.598684D+00
  0.128500D+00  0.395389D+00
   s     1 1.00
  0.905900D+00  0.100000D+01
   s     1 1.00
  0.364300D+00  0.100000D+01
   p     5 1.00
  0.187100D+02  0.140310D-01
  0.413300D+01  0.868660D-01
  0.120000D+01  0.290216D+00
  0.382700D+00  0.501008D+00
  0.120900D+00  0.343406D+00
   p     1 1.00
  0.382700D+00  0.100000D+01
   p     1 1.00
  0.120900D+00  0.100000D+01
   d     1 1.00
  0.109700D+01  0.100000D+01
   d     1 1.00
  0.318000D+00  0.100000D+01
   f     1 1.00
  0.761000D+00  0.100000D+01
  
  7  0
   s    10 1.00
  0.823600D+04  0.531000D-03
  0.123500D+04  0.410800D-02
  0.280800D+03  0.210870D-01
  0.792700D+02  0.818530D-01
  0.255900D+02  0.234817D+00
  0.899700D+01  0.434401D+00
  0.331900D+01  0.346129D+00
  0.905900D+00  0.393780D-01
  0.364300D+00 -0.898300D-02
  0.128500D+00  0.238500D-02
   s    10 1.00
  0.823600D+04 -0.113000D-03
  0.123500D+04 -0.878000D-03
  0.280800D+03 -0.454000D-02
  0.792700D+02 -0.181330D-01
  0.255900D+02 -0.557600D-01
  0.899700D+01 -0.126895D+00
  0.331900D+01 -0.170352D+00
  0.905900D+00  0.140382D+00
  0.364300D+00  0.598684D+00
  0.128500D+00  0.395389D+00
   s     1 1.00
  0.905900D+00  0.100000D+01
   s     1 1.00
  0.364300D+00  0.100000D+01
   p     5 1.00
  0.187100D+02  0.140310D-01
  0.413300D+01  0.868660D-01
  0.120000D+01  0.290216D+00
  0.382700D+00  0.501008D+00
  0.120900D+00  0.343406D+00
   p     1 1.00
  0.382700D+00  0.100000D+01
   p     1 1.00
  0.120900D+00  0.100000D+01
   d     1 1.00
  0.109700D+01  0.100000D+01
   d     1 1.00
  0.318000D+00  0.100000D+01
   f     1 1.00
  0.761000D+00  0.100000D+01
  
  8  0
   s     4 1.00
  0.130100D+02  0.196850D-01
  0.196200D+01  0.137977D+00
  0.444600D+00  0.478148D+00
  0.122000D+00  0.501240D+00
   s     1 1.00
  0.122000D+00  0.100000D+01
   p     1 1.00
  0.727000D+00  0.100000D+01
  
  9  0
   s     4 1.00
  0.130100D+02  0.196850D-01
  0.196200D+01  0.137977D+00
  0.444600D+00  0.478148D+00
  0.122000D+00  0.501240D+00
   s     1 1.00
  0.122000D+00  0.100000D+01
   p     1 1.00
  0.727000D+00  0.100000D+01
  
 10  0
   s     4 1.00
  0.130100D+02  0.196850D-01
  0.196200D+01  0.137977D+00
  0.444600D+00  0.478148D+00
  0.122000D+00  0.501240D+00
   s     1 1.00
  0.122000D+00  0.100000D+01
   p     1 1.00
  0.727000D+00  0.100000D+01
  
 11  0
   s     4 1.00
  0.130100D+02  0.196850D-01
  0.196200D+01  0.137977D+00
  0.444600D+00  0.478148D+00
  0.122000D+00  0.501240D+00
   s     1 1.00
  0.122000D+00  0.100000D+01
   p     1 1.00
  0.727000D+00  0.100000D+01
  
 12  0
   s     4 1.00
  0.130100D+02  0.196850D-01
  0.196200D+01  0.137977D+00
  0.444600D+00  0.478148D+00
  0.122000D+00  0.501240D+00
   s     1 1.00
  0.122000D+00  0.100000D+01
   p     1 1.00
  0.727000D+00  0.100000D+01
  
 13  0
   s     4 1.00
  0.130100D+02  0.196850D-01
  0.196200D+01  0.137977D+00
  0.444600D+00  0.478148D+00
  0.122000D+00  0.501240D+00
   s     1 1.00
  0.122000D+00  0.100000D+01
   p     1 1.00
  0.727000D+00  0.100000D+01
  
 14  0
   s     4 1.00
  0.130100D+02  0.196850D-01
  0.196200D+01  0.137977D+00
  0.444600D+00  0.478148D+00
  0.122000D+00  0.501240D+00
   s     1 1.00
  0.122000D+00  0.100000D+01
   p     1 1.00
  0.727000D+00  0.100000D+01
  
[MO]
 Sym= __1_A__
 Ene=   1.00000000000000     
 Spin= Alpha
 Occup=    1.00000000000000     
                     1  9.336124725709345E-005
                     2  0.998367188203824     
                     3 -4.770512920342551E-003
                     4  1.970653061415047E-003
                     5  6.314869598777774E-003
                     6  2.652112882235911E-003
                     7  5.232572955844187E-003
                     8  0.000000000000000E+000
                     9 -7.640237245564029E-004
                    10 -5.647554844285042E-004
                    11  0.000000000000000E+000
                    12 -2.487781598304073E-003
                    13 -1.593060717584970E-003
                    14  0.000000000000000E+000
                    15 -4.341148342029964E-005
                    16  0.000000000000000E+000
                    17  0.000000000000000E+000
                    18 -1.708660831550574E-004
                    19 -6.860674954266040E-005
                    20  1.774242014159835E-004
                    21  0.000000000000000E+000
                    22  0.000000000000000E+000
                    23 -9.567169380067286E-005
                    24  5.589007749224980E-004
                    25  0.000000000000000E+000
                    26  5.670599683444132E-006
                    27 -4.134846727585200E-005
                    28  0.000000000000000E+000
                    29  0.000000000000000E+000
                    30  1.665762168508550E-005
                    31 -8.591194104943922E-005
                    32 -2.184184571405128E-004
                    33  2.460491415556914E-004
                    34  2.830168955024769E-004
                    35 -4.716969345230955E-005
                    36 -9.122348735531327E-005
                    37 -1.751236640113129E-003
                    38  0.000000000000000E+000
                    39  4.787484562220208E-004
                    40 -3.939895170540214E-005
                    41  0.000000000000000E+000
                    42 -2.144204644605760E-003
                    43  4.595520600332460E-003
                    44  0.000000000000000E+000
                    45  1.012332877397378E-005
                    46  0.000000000000000E+000
                    47  0.000000000000000E+000
                    48 -9.751591930150659E-005
                    49  9.936204769794470E-006
                    50 -1.694450232049703E-004
                    51  0.000000000000000E+000
                    52  0.000000000000000E+000
                    53  1.084924789086127E-004
                    54  8.059933259253622E-004
                    55  0.000000000000000E+000
                    56 -1.051095186649414E-005
                    57 -8.672646753640767E-005
                    58  0.000000000000000E+000
                    59  0.000000000000000E+000
                    60 -2.090317327288121E-005
                    61 -1.478793300373650E-004
                    62 -5.237169099427532E-004
                    63 -1.889447097111290E-003
                    64 -1.110943191093211E-004
                    65  2.204405184437461E-003
                    66 -2.735203651280783E-004
                    67 -1.084806559035877E-004
                    68  0.000000000000000E+000
                    69  4.537854397939473E-004
                    70  8.385505020687478E-004
                    71  0.000000000000000E+000
                    72 -1.699066695712988E-003
                    73  6.348899655029438E-004
                    74  0.000000000000000E+000
                    75 -5.017791781250672E-005
                    76  0.000000000000000E+000
                    77  0.000000000000000E+000
                    78 -4.896007642371804E-005
                    79 -3.462920164741052E-005
                    80 -1.578052027721731E-004
                    81  0.000000000000000E+000
                    82  0.000000000000000E+000
                    83  9.856870526159824E-005
                    84  2.402961385882816E-005
                    85  0.000000000000000E+000
                    86  5.427250995705539E-006
                    87 -4.103986783739241E-005
                    88  0.000000000000000E+000
                    89  0.000000000000000E+000
                    90 -2.042010836828190E-005
                    91 -1.610796226648418E-004
                    92 -1.083648854212352E-004
                    93 -2.639605120644093E-004
                    94  1.836983360399533E-004
                    95 -3.373253883366575E-004
                    96  2.570977749571973E-005
                    97 -1.641997348202339E-004
                    98  0.000000000000000E+000
                    99  4.002272926251946E-004
                   100  3.013307213680001E-004
                   101  0.000000000000000E+000
                   102  5.721622093395243E-004
                   103 -1.366478060308657E-003
                   104  0.000000000000000E+000
                   105 -1.544599934638649E-005
                   106  0.000000000000000E+000
                   107  0.000000000000000E+000
                   108 -1.972357806178671E-005
                   109 -1.092811209907368E-005
                   110  1.359350913781479E-004
                   111  0.000000000000000E+000
                   112  0.000000000000000E+000
                   113 -7.721098745228956E-005
                   114  2.869634911932269E-005
                   115  0.000000000000000E+000
                   116 -1.857786649062559E-005
                   117 -2.509279476972336E-005
                   118  0.000000000000000E+000
                   119  0.000000000000000E+000
                   120  2.553434866008234E-005
                   121 -3.337273453893465E-005
                   122 -2.557039713977968E-004
                   123 -7.439902129765179E-004
                   124  1.742888516781775E-004
                   125  3.455805712716978E-004
                   126 -3.834268524746414E-005
                   127 -1.574809833523993E-004
                   128  0.000000000000000E+000
                   129  2.157567660884675E-004
                   130  5.965829061523698E-004
                   131  0.000000000000000E+000
                   132  3.223167753356073E-004
                   133  1.830737415042432E-003
                   134  0.000000000000000E+000
                   135  1.516059753295708E-005
                   136  0.000000000000000E+000
                   137  0.000000000000000E+000
                   138  5.256730709906446E-005
                   139 -8.357231700571891E-006
                   140  2.137665968669695E-004
                   141  0.000000000000000E+000
                   142  0.000000000000000E+000
                   143  3.702127207486844E-004
                   144  2.137168644234241E-004
                   145  0.000000000000000E+000
                   146 -1.119796638726860E-005
                   147 -6.247884265134259E-005
                   148  0.000000000000000E+000
                   149  0.000000000000000E+000
                   150 -1.255317670931301E-005
                   151 -5.897815598251297E-005
                   152 -1.627278752018214E-004
                   153 -5.395681996278082E-004
                   154  2.598495653758978E-005
                   155  4.067566313119196E-004
                   156  4.935782280371360E-006
                   157  3.098730111138530E-005
                   158  0.000000000000000E+000
                   159 -6.344265718755608E-006
                   160 -9.850357341890819E-006
                   161  0.000000000000000E+000
                   162  6.761956111632998E-004
                   163 -2.865971249947613E-004
                   164  0.000000000000000E+000
                   165 -5.951797271317539E-007
                   166  0.000000000000000E+000
                   167  0.000000000000000E+000
                   168  8.469946084759778E-007
                   169  1.761209058347065E-005
                   170  6.491174382206524E-005
                   171  0.000000000000000E+000
                   172  0.000000000000000E+000
                   173  1.724583924074298E-005
                   174  1.014003802916321E-005
                   175  0.000000000000000E+000
                   176  6.835126288047079E-006
                   177 -9.715584904464504E-006
                   178  0.000000000000000E+000
                   179  0.000000000000000E+000
                   180 -3.264082272795008E-005
                   181 -1.688777774190382E-005
                   182 -1.531475011672676E-004
                   183 -4.573090935071281E-004
                   184  3.923380511891207E-005
                   185  2.462343268910011E-004
                   186 -3.544872739664229E-005
                   187 -4.969489891171851E-005
                   188  0.000000000000000E+000
                   189  2.025688802692184E-004
                   190  8.214343444048150E-005
                   191  0.000000000000000E+000
                   192  1.184903092264206E-003
                   193 -2.392702447069569E-004
                   194  0.000000000000000E+000
                   195 -9.660590469194863E-007
                   196  0.000000000000000E+000
                   197  0.000000000000000E+000
                   198 -4.282959954913802E-006
                   199  7.631027212378669E-006
                   200  1.238129651721195E-005
                   201  0.000000000000000E+000
                   202  0.000000000000000E+000
                   203 -7.423394539019956E-005
                   204 -1.755221026881941E-004
                   205  0.000000000000000E+000
                   206 -5.501696515071388E-006
                   207 -4.102979588151708E-006
                   208  0.000000000000000E+000
                   209  0.000000000000000E+000
                   210  1.015547581883286E-005
                   211 -2.382335671421639E-006
                   212 -3.493370209345670E-005
                   213  1.383930607058368E-004
                   214  9.014634468613983E-006
                   215  2.824738009909078E-005
                   216  0.000000000000000E+000
                   217 -1.736302484688309E-003
                   218 -1.956419529131583E-004
                   219 -2.016095017391464E-004
                   220  2.793253433555819E-005
                   221  0.000000000000000E+000
                   222 -1.796086881493499E-004
                   223 -6.598582645531448E-004
                   224  2.451577459204769E-005
                   225 -6.840909472965395E-005
                   226  0.000000000000000E+000
                   227  1.075076988213401E-004
                   228 -5.993515051508819E-004
                   229 -3.268268311148839E-005
                   230 -1.610626854962262E-005
                   231  0.000000000000000E+000
                   232  8.807738925324603E-005
                   233 -5.240995600825146E-004
                   234  1.695638636927803E-005
                   235 -3.361068704394918E-006
                   236  0.000000000000000E+000
                   237  3.636497222504610E-005
                   238 -3.662311553801841E-004
                   239 -3.777203262181290E-006
                   240  3.615190949563288E-006
                   241  0.000000000000000E+000
                   242 -5.806772147117496E-005
                   243  1.774592982442486E-005
                   244  2.801928135796363E-007
                   245  2.402263038916769E-005
                   246  0.000000000000000E+000
 Sym= __2_A__
 Ene=   2.00000000000000     
 Spin= Alpha
 Occup=    1.00000000000000     
                     1  4.701158355718281E-005
                     2  3.845838883000582E-004
                     3 -2.812956836336141E-003
                     4 -1.381025762512500E-004
                     5 -1.332640971920954E-003
                     6  2.619613337677712E-004
                     7 -2.760250224325670E-003
                     8  0.000000000000000E+000
                     9  8.939116580004057E-005
                    10  1.029863680294027E-004
                    11  0.000000000000000E+000
                    12 -8.779844501951909E-005
                    13  4.068308962041160E-004
                    14  0.000000000000000E+000
                    15 -2.790619151691943E-005
                    16  0.000000000000000E+000
                    17  0.000000000000000E+000
                    18  3.841985932846368E-005
                    19 -9.703073867942916E-006
                    20  1.118500060209135E-004
                    21  0.000000000000000E+000
                    22  0.000000000000000E+000
                    23 -1.661794260022318E-004
                    24  3.777692848815426E-005
                    25  0.000000000000000E+000
                    26  2.287327325786705E-005
                    27 -8.802592126191501E-005
                    28  0.000000000000000E+000
                    29  0.000000000000000E+000
                    30  2.424306236105557E-005
                    31 -1.478958799341928E-004
                    32  -1.00092665929176     
                    33 -9.205625303788484E-003
                    34 -2.799944351060159E-003
                    35  8.170691112554978E-003
                    36  2.469359693984906E-004
                    37  3.416343067441261E-003
                    38  0.000000000000000E+000
                    39 -1.972111794189385E-004
                    40 -3.639469221059606E-004
                    41  0.000000000000000E+000
                    42 -3.709344771896682E-005
                    43 -4.144377004784172E-003
                    44  0.000000000000000E+000
                    45  5.395664796440191E-004
                    46  0.000000000000000E+000
                    47  0.000000000000000E+000
                    48  1.939073936209685E-004
                    49  1.512330573773796E-005
                    50 -5.633727865233117E-004
                    51  0.000000000000000E+000
                    52  0.000000000000000E+000
                    53  9.038091613288270E-004
                    54 -6.870566283234694E-005
                    55  0.000000000000000E+000
                    56  4.969642301593768E-006
                    57 -1.020205258748959E-004
                    58  0.000000000000000E+000
                    59  0.000000000000000E+000
                    60 -5.170438395821423E-006
                    61 -3.910625920438025E-004
                    62 -1.243193027798075E-002
                    63  2.021852104016384E-003
                    64  2.981425792473969E-004
                    65 -3.066578510067306E-003
                    66 -2.390433166905134E-006
                    67 -1.205117822668213E-004
                    68  0.000000000000000E+000
                    69 -7.563173079088695E-004
                    70  2.850031684870386E-007
                    71  0.000000000000000E+000
                    72  2.067073856855384E-003
                    73 -6.294598772472027E-005
                    74  0.000000000000000E+000
                    75 -2.254004611317589E-005
                    76  0.000000000000000E+000
                    77  0.000000000000000E+000
                    78  8.609771995540714E-007
                    79  1.721326218562751E-006
                    80  4.232825600997579E-004
                    81  0.000000000000000E+000
                    82  0.000000000000000E+000
                    83  5.901804395307154E-004
                    84  3.763738521662050E-004
                    85  0.000000000000000E+000
                    86 -3.253110484646546E-005
                    87  6.068910916426723E-005
                    88  0.000000000000000E+000
                    89  0.000000000000000E+000
                    90 -4.916254772361995E-005
                    91 -1.396180255519538E-004
                    92 -1.399263145291387E-002
                    93  2.059387998184978E-003
                    94  2.693804200404019E-004
                    95 -2.975382560077698E-003
                    96 -9.336691726045065E-005
                    97 -1.602391405563832E-004
                    98  0.000000000000000E+000
                    99  6.554212732423877E-004
                   100 -5.566133021811194E-005
                   101  0.000000000000000E+000
                   102 -1.989790889374125E-003
                   103 -2.211696303599922E-005
                   104  0.000000000000000E+000
                   105 -3.031995258548992E-005
                   106  0.000000000000000E+000
                   107  0.000000000000000E+000
                   108  6.992273633715512E-006
                   109  1.105123428966418E-005
                   110  4.119827082845441E-004
                   111  0.000000000000000E+000
                   112  0.000000000000000E+000
                   113  6.209667942549167E-004
                   114 -3.545988130497447E-004
                   115  0.000000000000000E+000
                   116  3.379008568826060E-005
                   117  6.212334859278718E-005
                   118  0.000000000000000E+000
                   119  0.000000000000000E+000
                   120  4.686549656137936E-005
                   121 -1.370156971744066E-004
                   122  5.754070325765299E-005
                   123  6.533878652547185E-004
                   124 -2.285379136984726E-004
                   125  1.228816226213639E-004
                   126  5.210055680466517E-006
                   127  3.605715067344557E-004
                   128  0.000000000000000E+000
                   129  6.440474028455009E-005
                   130 -5.545499523768967E-004
                   131  0.000000000000000E+000
                   132 -3.337228592160637E-004
                   133 -7.645316569933257E-004
                   134  0.000000000000000E+000
                   135 -1.926670091417735E-005
                   136  0.000000000000000E+000
                   137  0.000000000000000E+000
                   138 -4.539019497291062E-006
                   139 -5.204190032300878E-005
                   140 -1.387290221047935E-004
                   141  0.000000000000000E+000
                   142  0.000000000000000E+000
                   143 -2.447363605567642E-004
                   144  1.794006595664216E-004
                   145  0.000000000000000E+000
                   146 -7.231735614661403E-006
                   147  3.495814841573986E-005
                   148  0.000000000000000E+000
                   149  0.000000000000000E+000
                   150  4.757099940713482E-005
                   151 -2.829108653437822E-005
                   152 -4.242638979646966E-005
                   153  6.467714994822285E-004
                   154 -2.303374646398133E-004
                   155  1.434150380795197E-004
                   156  7.973629046005426E-006
                   157  3.814368861064481E-004
                   158  0.000000000000000E+000
                   159 -4.846410351740440E-005
                   160 -5.760000784885151E-004