[Molden Format]
[Atoms] AU
  N     1    7    -4.5007026400    0.0276635100   -0.3575033500        
  C     2    6    -1.7531723400   -0.0334383200   -0.1587724500        
  C     3    6    -0.3565005500    0.2170634600   -2.3688250400        
  C     4    6    -0.4755680500   -0.2392751800    2.1357859300        
  C     5    6     2.2591424900    0.2292198300   -2.2886798400        
  C     6    6     2.1377443600   -0.1964347800    2.2073273200        
  C     7    6     3.5114851800    0.0313738900   -0.0048928600        
  H     8    1    -5.1102094500   -1.8222848700   -0.0497787100        
  H     9    1    -5.1050035800    0.8881079300    1.2686160100        
  H    10    1    -1.3363487000    0.4154663800   -4.1297239200        
  H    11    1    -1.5301992700   -0.4456513300    3.8563305400        
  H    12    1     3.3173882600    0.4178774800   -4.0089795900        
  H    13    1     3.0985794600   -0.3538751600    3.9877616700        
  H    14    1     5.5394470300    0.0563027100    0.0527684800        
[5D]
[7F]
[GTO]
  1  0
   s    12 1.00
  0.114200D+05  0.172695D-04
  0.171200D+04  0.134411D-03
  0.389300D+03  0.694561D-03
  0.110000D+03  0.278531D-02
  0.355700D+02  0.863457D-02
  0.125400D+02  0.199805D-01
  0.464400D+01  0.262908D-01
  0.129300D+01 -0.243845D-01
  0.511800D+00 -0.924934D-01
  0.178700D+00 -0.339683D+00
  0.246240D-01  0.345111D+00
  0.112530D-01  0.752750D+00
   s    10 1.00
  0.114200D+05  0.523000D-03
  0.171200D+04  0.404500D-02
  0.389300D+03  0.207750D-01
  0.110000D+03  0.807269D-01
  0.355700D+02  0.233074D+00
  0.125400D+02  0.433501D+00
  0.464400D+01  0.347472D+00
  0.129300D+01  0.412620D-01
  0.511800D+00 -0.850799D-02
  0.178700D+00  0.238400D-02
   s    10 1.00
  0.114200D+05 -0.115000D-03
  0.171200D+04 -0.895000D-03
  0.389300D+03 -0.462400D-02
  0.110000D+03 -0.185280D-01
  0.355700D+02 -0.573390D-01
  0.125400D+02 -0.132076D+00
  0.464400D+01 -0.172510D+00
  0.129300D+01  0.151814D+00
  0.511800D+00  0.599944D+00
  0.178700D+00  0.387462D+00
   s     1 1.00
  0.129300D+01  0.100000D+01
   s     1 1.00
  0.178700D+00  0.100000D+01
   p     5 1.00
  0.266300D+02  0.146700D-01
  0.594800D+01  0.917640D-01
  0.174200D+01  0.298683D+00
  0.555000D+00  0.498487D+00
  0.172500D+00  0.337023D+00
   p     1 1.00
  0.174200D+01  0.100000D+01
   p     1 1.00
  0.555000D+00  0.100000D+01
   d     1 1.00
  0.165400D+01  0.100000D+01
   d     1 1.00
  0.469000D+00  0.100000D+01
   f     1 1.00
  0.109300D+01  0.100000D+01
  
  2  0
   s    10 1.00
  0.823600D+04  0.531000D-03
  0.123500D+04  0.410800D-02
  0.280800D+03  0.210870D-01
  0.792700D+02  0.818530D-01
  0.255900D+02  0.234817D+00
  0.899700D+01  0.434401D+00
  0.331900D+01  0.346129D+00
  0.905900D+00  0.393780D-01
  0.364300D+00 -0.898300D-02
  0.128500D+00  0.238500D-02
   s    10 1.00
  0.823600D+04 -0.113000D-03
  0.123500D+04 -0.878000D-03
  0.280800D+03 -0.454000D-02
  0.792700D+02 -0.181330D-01
  0.255900D+02 -0.557600D-01
  0.899700D+01 -0.126895D+00
  0.331900D+01 -0.170352D+00
  0.905900D+00  0.140382D+00
  0.364300D+00  0.598684D+00
  0.128500D+00  0.395389D+00
   s     1 1.00
  0.905900D+00  0.100000D+01
   s     1 1.00
  0.364300D+00  0.100000D+01
   p     5 1.00
  0.187100D+02  0.140310D-01
  0.413300D+01  0.868660D-01
  0.120000D+01  0.290216D+00
  0.382700D+00  0.501008D+00
  0.120900D+00  0.343406D+00
   p     1 1.00
  0.382700D+00  0.100000D+01
   p     1 1.00
  0.120900D+00  0.100000D+01
   d     1 1.00
  0.109700D+01  0.100000D+01
   d     1 1.00
  0.318000D+00  0.100000D+01
   f     1 1.00
  0.761000D+00  0.100000D+01
  
  3  0
   s    10 1.00
  0.823600D+04  0.531000D-03
  0.123500D+04  0.410800D-02
  0.280800D+03  0.210870D-01
  0.792700D+02  0.818530D-01
  0.255900D+02  0.234817D+00
  0.899700D+01  0.434401D+00
  0.331900D+01  0.346129D+00
  0.905900D+00  0.393780D-01
  0.364300D+00 -0.898300D-02
  0.128500D+00  0.238500D-02
   s    10 1.00
  0.823600D+04 -0.113000D-03
  0.123500D+04 -0.878000D-03
  0.280800D+03 -0.454000D-02
  0.792700D+02 -0.181330D-01
  0.255900D+02 -0.557600D-01
  0.899700D+01 -0.126895D+00
  0.331900D+01 -0.170352D+00
  0.905900D+00  0.140382D+00
  0.364300D+00  0.598684D+00
  0.128500D+00  0.395389D+00
   s     1 1.00
  0.905900D+00  0.100000D+01
   s     1 1.00
  0.364300D+00  0.100000D+01
   p     5 1.00
  0.187100D+02  0.140310D-01
  0.413300D+01  0.868660D-01
  0.120000D+01  0.290216D+00
  0.382700D+00  0.501008D+00
  0.120900D+00  0.343406D+00
   p     1 1.00
  0.382700D+00  0.100000D+01
   p     1 1.00
  0.120900D+00  0.100000D+01
   d     1 1.00
  0.109700D+01  0.100000D+01
   d     1 1.00
  0.318000D+00  0.100000D+01
   f     1 1.00
  0.761000D+00  0.100000D+01
  
  4  0
   s    10 1.00
  0.823600D+04  0.531000D-03
  0.123500D+04  0.410800D-02
  0.280800D+03  0.210870D-01
  0.792700D+02  0.818530D-01
  0.255900D+02  0.234817D+00
  0.899700D+01  0.434401D+00
  0.331900D+01  0.346129D+00
  0.905900D+00  0.393780D-01
  0.364300D+00 -0.898300D-02
  0.128500D+00  0.238500D-02
   s    10 1.00
  0.823600D+04 -0.113000D-03
  0.123500D+04 -0.878000D-03
  0.280800D+03 -0.454000D-02
  0.792700D+02 -0.181330D-01
  0.255900D+02 -0.557600D-01
  0.899700D+01 -0.126895D+00
  0.331900D+01 -0.170352D+00
  0.905900D+00  0.140382D+00
  0.364300D+00  0.598684D+00
  0.128500D+00  0.395389D+00
   s     1 1.00
  0.905900D+00  0.100000D+01
   s     1 1.00
  0.364300D+00  0.100000D+01
   p     5 1.00
  0.187100D+02  0.140310D-01
  0.413300D+01  0.868660D-01
  0.120000D+01  0.290216D+00
  0.382700D+00  0.501008D+00
  0.120900D+00  0.343406D+00
   p     1 1.00
  0.382700D+00  0.100000D+01
   p     1 1.00
  0.120900D+00  0.100000D+01
   d     1 1.00
  0.109700D+01  0.100000D+01
   d     1 1.00
  0.318000D+00  0.100000D+01
   f     1 1.00
  0.761000D+00  0.100000D+01
  
  5  0
   s    10 1.00
  0.823600D+04  0.531000D-03
  0.123500D+04  0.410800D-02
  0.280800D+03  0.210870D-01
  0.792700D+02  0.818530D-01
  0.255900D+02  0.234817D+00
  0.899700D+01  0.434401D+00
  0.331900D+01  0.346129D+00
  0.905900D+00  0.393780D-01
  0.364300D+00 -0.898300D-02
  0.128500D+00  0.238500D-02
   s    10 1.00
  0.823600D+04 -0.113000D-03
  0.123500D+04 -0.878000D-03
  0.280800D+03 -0.454000D-02
  0.792700D+02 -0.181330D-01
  0.255900D+02 -0.557600D-01
  0.899700D+01 -0.126895D+00
  0.331900D+01 -0.170352D+00
  0.905900D+00  0.140382D+00
  0.364300D+00  0.598684D+00
  0.128500D+00  0.395389D+00
   s     1 1.00
  0.905900D+00  0.100000D+01
   s     1 1.00
  0.364300D+00  0.100000D+01
   p     5 1.00
  0.187100D+02  0.140310D-01
  0.413300D+01  0.868660D-01
  0.120000D+01  0.290216D+00
  0.382700D+00  0.501008D+00
  0.120900D+00  0.343406D+00
   p     1 1.00
  0.382700D+00  0.100000D+01
   p     1 1.00
  0.120900D+00  0.100000D+01
   d     1 1.00
  0.109700D+01  0.100000D+01
   d     1 1.00
  0.318000D+00  0.100000D+01
   f     1 1.00
  0.761000D+00  0.100000D+01
  
  6  0
   s    10 1.00
  0.823600D+04  0.531000D-03
  0.123500D+04  0.410800D-02
  0.280800D+03  0.210870D-01
  0.792700D+02  0.818530D-01
  0.255900D+02  0.234817D+00
  0.899700D+01  0.434401D+00
  0.331900D+01  0.346129D+00
  0.905900D+00  0.393780D-01
  0.364300D+00 -0.898300D-02
  0.128500D+00  0.238500D-02
   s    10 1.00
  0.823600D+04 -0.113000D-03
  0.123500D+04 -0.878000D-03
  0.280800D+03 -0.454000D-02
  0.792700D+02 -0.181330D-01
  0.255900D+02 -0.557600D-01
  0.899700D+01 -0.126895D+00
  0.331900D+01 -0.170352D+00
  0.905900D+00  0.140382D+00
  0.364300D+00  0.598684D+00
  0.128500D+00  0.395389D+00
   s     1 1.00
  0.905900D+00  0.100000D+01
   s     1 1.00
  0.364300D+00  0.100000D+01
   p     5 1.00
  0.187100D+02  0.140310D-01
  0.413300D+01  0.868660D-01
  0.120000D+01  0.290216D+00
  0.382700D+00  0.501008D+00
  0.120900D+00  0.343406D+00
   p     1 1.00
  0.382700D+00  0.100000D+01
   p     1 1.00
  0.120900D+00  0.100000D+01
   d     1 1.00
  0.109700D+01  0.100000D+01
   d     1 1.00
  0.318000D+00  0.100000D+01
   f     1 1.00
  0.761000D+00  0.100000D+01
  
  7  0
   s    10 1.00
  0.823600D+04  0.531000D-03
  0.123500D+04  0.410800D-02
  0.280800D+03  0.210870D-01
  0.792700D+02  0.818530D-01
  0.255900D+02  0.234817D+00
  0.899700D+01  0.434401D+00
  0.331900D+01  0.346129D+00
  0.905900D+00  0.393780D-01
  0.364300D+00 -0.898300D-02
  0.128500D+00  0.238500D-02
   s    10 1.00
  0.823600D+04 -0.113000D-03
  0.123500D+04 -0.878000D-03
  0.280800D+03 -0.454000D-02
  0.792700D+02 -0.181330D-01
  0.255900D+02 -0.557600D-01
  0.899700D+01 -0.126895D+00
  0.331900D+01 -0.170352D+00
  0.905900D+00  0.140382D+00
  0.364300D+00  0.598684D+00
  0.128500D+00  0.395389D+00
   s     1 1.00
  0.905900D+00  0.100000D+01
   s     1 1.00
  0.364300D+00  0.100000D+01
   p     5 1.00
  0.187100D+02  0.140310D-01
  0.413300D+01  0.868660D-01
  0.120000D+01  0.290216D+00
  0.382700D+00  0.501008D+00
  0.120900D+00  0.343406D+00
   p     1 1.00
  0.382700D+00  0.100000D+01
   p     1 1.00
  0.120900D+00  0.100000D+01
   d     1 1.00
  0.109700D+01  0.100000D+01
   d     1 1.00
  0.318000D+00  0.100000D+01
   f     1 1.00
  0.761000D+00  0.100000D+01
  
  8  0
   s     4 1.00
  0.130100D+02  0.196850D-01
  0.196200D+01  0.137977D+00
  0.444600D+00  0.478148D+00
  0.122000D+00  0.501240D+00
   s     1 1.00
  0.122000D+00  0.100000D+01
   p     1 1.00
  0.727000D+00  0.100000D+01
  
  9  0
   s     4 1.00
  0.130100D+02  0.196850D-01
  0.196200D+01  0.137977D+00
  0.444600D+00  0.478148D+00
  0.122000D+00  0.501240D+00
   s     1 1.00
  0.122000D+00  0.100000D+01
   p     1 1.00
  0.727000D+00  0.100000D+01
  
 10  0
   s     4 1.00
  0.130100D+02  0.196850D-01
  0.196200D+01  0.137977D+00
  0.444600D+00  0.478148D+00
  0.122000D+00  0.501240D+00
   s     1 1.00
  0.122000D+00  0.100000D+01
   p     1 1.00
  0.727000D+00  0.100000D+01
  
 11  0
   s     4 1.00
  0.130100D+02  0.196850D-01
  0.196200D+01  0.137977D+00
  0.444600D+00  0.478148D+00
  0.122000D+00  0.501240D+00
   s     1 1.00
  0.122000D+00  0.100000D+01
   p     1 1.00
  0.727000D+00  0.100000D+01
  
 12  0
   s     4 1.00
  0.130100D+02  0.196850D-01
  0.196200D+01  0.137977D+00
  0.444600D+00  0.478148D+00
  0.122000D+00  0.501240D+00
   s     1 1.00
  0.122000D+00  0.100000D+01
   p     1 1.00
  0.727000D+00  0.100000D+01
  
 13  0
   s     4 1.00
  0.130100D+02  0.196850D-01
  0.196200D+01  0.137977D+00
  0.444600D+00  0.478148D+00
  0.122000D+00  0.501240D+00
   s     1 1.00
  0.122000D+00  0.100000D+01
   p     1 1.00
  0.727000D+00  0.100000D+01
  
 14  0
   s     4 1.00
  0.130100D+02  0.196850D-01
  0.196200D+01  0.137977D+00
  0.444600D+00  0.478148D+00
  0.122000D+00  0.501240D+00
   s     1 1.00
  0.122000D+00  0.100000D+01
   p     1 1.00
  0.727000D+00  0.100000D+01
  
[MO]
 Sym= __1_A__
 Ene=  0.000000000000000E+000
 Spin= Alpha
 Occup=    2.00000000000000     
                     1  9.148185904647421E-005
                     2  0.998141354805624     
                     3 -8.755404788528189E-003
                     4  1.993572112929264E-003
                     5  7.165052660014214E-003
                     6  7.856059353830314E-003
                     7 -3.559790661148777E-003
                     8  1.023238706245742E-002
                     9 -1.156347927988628E-003
                    10  3.335688667678361E-004
                    11 -1.079799513334900E-003
                    12 -2.568223908991314E-003
                    13  1.800621494905334E-003
                    14 -4.335928174970569E-003
                    15  6.863132368407000E-005
                    16 -5.638304975867258E-005
                    17 -3.495521774690477E-005
                    18  3.459441276344464E-005
                    19 -5.667576490404848E-006
                    20  8.061113813651921E-005
                    21  6.512315828065221E-004
                    22 -2.253900468762213E-004
                    23  2.488540850830152E-004
                    24 -2.567034615047256E-004
                    25  2.563085124203845E-005
                    26 -8.745885312651853E-005
                    27  4.970026468277602E-005
                    28  1.887436165611487E-005
                    29  5.960906255116516E-006
                    30 -6.423710607035167E-005
                    31 -1.014300884567729E-005
                    32 -3.082844564732623E-004
                    33  1.859694249101189E-004
                    34  2.756353514216349E-004
                    35  1.215226062687418E-005
                    36 -1.713517994235588E-003
                    37 -8.976157460215548E-004
                    38 -5.314897770406757E-004
                    39  7.717674214662030E-005
                    40 -1.200155987359483E-004
                    41  1.025420653636725E-003
                    42  4.471779879664690E-003
                    43  5.122254446964837E-004
                    44 -3.277256263827472E-003
                    45 -1.099114021040852E-004
                    46 -3.917219252681836E-005
                    47  1.424592942729743E-005
                    48  1.139315738880282E-004
                    49  2.946570053822883E-005
                    50  5.129078099396106E-004
                    51  7.549058302894795E-004
                    52 -8.281761548367392E-005
                    53 -1.950319705259925E-004
                    54 -2.058720785887347E-004
                    55  6.153050681715677E-005
                    56 -2.599419899598704E-005
                    57 -6.860716530087948E-006
                    58  6.993465752932181E-005
                    59 -4.239865033796259E-006
                    60 -3.946473033926558E-005
                    61 -8.447102116848591E-006
                    62 -8.210363889205331E-004
                    63 -2.370195700778422E-003
                    64 -1.035170034956200E-004
                    65  3.004839744335418E-003
                    66 -5.880978934110508E-004
                    67 -4.259141389000802E-004
                    68 -1.294226844033665E-004
                    69  8.349811649604109E-004
                    70 -5.159805557713673E-005
                    71  7.352774006534461E-004
                    72  1.632550725737723E-003
                    73  2.045760973401806E-004
                    74 -1.616808619296088E-003
                    75 -2.454078136572627E-005
                    76 -5.338880694068697E-005
                    77 -1.387000836553545E-005
                    78  7.028772372386858E-005
                    79  1.412490520329471E-005
                    80  4.755427751907045E-004
                    81  9.433583743364960E-005
                    82 -9.873452613723653E-005
                    83 -7.027097932678808E-005
                    84  9.171740764167601E-006
                    85 -2.598492344968614E-005
                    86 -1.568808734201022E-004
                    87 -5.966349295563890E-006
                    88  1.017234036212246E-005
                    89  2.426314166408490E-005
                    90 -7.525255948300047E-005
                    91 -6.161234389680180E-006
                    92  5.638262787224038E-005
                    93 -1.907144925540883E-004
                    94  3.400463904543680E-004
                    95 -1.426318670975090E-003
                    96  3.021447636247298E-004
                    97 -3.876175568026557E-004
                    98  2.688908060780144E-004
                    99  1.638868852160111E-004
                   100 -1.680105969402339E-005
                   101  5.365331478203395E-004
                   102 -2.302260830036675E-003
                   103 -3.460467995418894E-005
                   104  1.745401312912137E-004
                   105 -4.919197527804334E-005
                   106 -1.044894271862465E-005
                   107  1.429289555875598E-005
                   108  3.097717329495128E-005
                   109  6.784486565866466E-006
                   110 -1.329464631876673E-004
                   111 -1.495721925472554E-004
                   112  4.420986960137818E-005
                   113 -2.346525464886344E-004
                   114  1.852008008146864E-005
                   115 -3.253556443663499E-005
                   116  5.663447775356075E-005
                   117 -1.467765606049080E-007
                   118  9.481321584823022E-006
                   119 -1.269275728446803E-005
                   120  5.599299006492560E-007
                   121 -6.956491593043901E-006
                   122 -3.260728559912177E-004
                   123 -1.121905627484484E-003
                   124  1.251365798337279E-004
                   125  9.234354091968393E-004
                   126  2.263844306173247E-005
                   127 -3.373277455272093E-005
                   128 -7.216879450642222E-005
                   129  5.544119268440993E-004
                   130 -2.382217564674008E-005
                   131  3.080119914120870E-004
                   132  2.601990050575482E-003
                   133  1.789921362109268E-005
                   134  5.018878081536713E-004
                   135  4.289295547237670E-005
                   136 -7.138547618820966E-006
                   137 -3.954144150977019E-006
                   138 -2.704206113187300E-005
                   139  9.541288922402608E-006
                   140  2.535994531412991E-004
                   141  3.467634353071706E-004
                   142  5.700274245402230E-006
                   143 -3.977694324008698E-004
                   144 -2.714757595265877E-005
                   145 -3.460195797608366E-005
                   146 -3.003534319897384E-005
                   147 -5.550023734248955E-006
                   148 -1.010926539256882E-005
                   149 -4.284113480450378E-006
                   150 -9.140104127706865E-005
                   151  1.635620788153980E-006
                   152 -1.448402134457349E-004
                   153 -3.149456590902252E-004
                   154 -7.021984590216252E-005
                   155  6.378514301106837E-004
                   156 -1.704257619577504E-004
                   157  3.834462445886786E-006
                   158 -4.403814942454609E-005
                   159 -2.939983325294381E-004
                   160 -2.800280352329575E-005
                   161  2.245087322326489E-004
                   162 -1.036868575580726E-003
                   163 -7.324937647670017E-005
                   164  9.013224760767518E-004
                   165 -2.381667476961668E-005
                   166  7.359033399848965E-006
                   167  3.155805068921264E-007
                   168  2.564422531799038E-005
                   169  7.969305787521736E-006
                   170 -8.495368673497880E-005
                   171  1.903919348912121E-005
                   172  1.313304289270961E-005
                   173  5.375784958716066E-005
                   174  8.456486013279464E-006
                   175 -1.216593384611229E-005
                   176 -1.475988992171117E-006
                   177 -1.221045539541727E-006
                   178 -8.755159766317777E-006
                   179 -1.003969111946498E-006
                   180  9.242244336484284E-006
                   181 -7.149574721016062E-007
                   182 -1.567527500995486E-004
                   183 -4.712679192269264E-004
                   184  3.938638846625545E-005
                   185  2.157853023010535E-004
                   186 -4.211881895742839E-005
                   187  1.294596333715274E-004
                   188 -8.127352741195069E-005
                   189  1.006934308797639E-004
                   190 -3.284208117296873E-005
                   191  4.254648496183436E-004
                   192 -4.793974339295771E-004
                   193 -1.773936890041820E-004
                   194  2.026595432499963E-003
                   195 -8.563997589000389E-009
                   196  4.043067465381122E-006
                   197  6.989070830668300E-007
                   198 -1.696469523054267E-006
                   199  1.469657426816248E-007
                   200 -1.238635428700652E-004
                   201 -3.306638631040436E-004
                   202  1.576805801071082E-005
                   203  5.623055594153628E-005
                   204  3.127976085140900E-005
                   205  2.102664648306425E-006
                   206  5.723475102754465E-006
                   207 -1.729731716271291E-006
                   208  2.299043034978244E-005
                   209 -2.032140015931129E-006
                   210 -4.183839576381603E-006
                   211 -2.450060247840069E-006
                   212 -7.796685455106431E-004
                   213 -3.243028630841187E-004
                   214  1.077942351297963E-004
                   215  1.602170487242835E-004
                   216 -3.765454342316166E-005
                   217  5.897321628102153E-004
                   218 -8.156586395965457E-004
                   219  1.371262985216942E-004
                   220 -6.622817342335177E-005
                   221 -2.258624125304721E-004
                   222 -1.668072164133530E-004
                   223 -4.344303909612119E-004
                   224 -9.705522187828246E-005
                   225 -1.093959146165066E-005
                   226  6.144426142411940E-005
                   227 -1.196153376653404E-004
                   228 -5.305001100468045E-004
                   229 -2.585489063121452E-005
                   230  5.971168615758241E-006
                   231 -6.220381296037469E-005
                   232  2.111027072482351E-004
                   233 -6.420183452402087E-004
                   234 -1.819676718433176E-006
                   235 -1.339632111396999E-006
                   236  1.506011912247007E-005
                   237 -1.114586534610275E-004
                   238 -2.670040280823475E-004
                   239  1.373266326137502E-005
                   240 -1.457354090453582E-006
                   241  2.232132273729866E-005
                   242 -7.035257587908188E-005
                   243  1.470903778144745E-004
                   244  3.155735025177433E-005
                   245  4.265688845441267E-006
                   246  1.527370939143680E-006
 Sym= __2_A__
 Ene=  0.000000000000000E+000
 Spin= Alpha
 Occup=    2.00000000000000     
                     1 -2.101198459681881E-006
                     2 -9.207214386003613E-005
                     3  5.852779058242494E-004
                     4 -1.794462661893994E-005
                     5  1.182479178604936E-003
                     6  1.283394155253573E-003
                     7 -2.200564934281592E-004
                     8  1.839664301007643E-004
                     9 -1.555629680486726E-004
                    10  9.097974235453641E-005
                    11 -7.942877882342380E-005
                    12  2.017030025360627E-004
                    13  1.282946884518279E-004
                    14 -7.382768995482443E-005
                    15 -5.085817573396124E-005
                    16  2.206145628709567E-005
                    17 -1.859879923917223E-006
                    18  4.780583391765480E-005
                    19 -8.936096780745502E-007
                    20  5.687764222670835E-005
                    21 -6.176655170403169E-005
                    22  4.910737128111484E-006
                    23  1.121305959317702E-004
                    24 -3.845305414236509E-005
                    25 -4.203558774193224E-005
                    26  1.254335873347937E-004
                    27  2.014772592867044E-005
                    28 -4.786604130626198E-005
                    29 -1.208382551512574E-005
                    30  1.174047037932047E-004
                    31  2.163618462370306E-005
                    32   1.00084660530008     
                    33  8.488772312012997E-003
                    34  2.859818217111947E-003
                    35 -8.429543953792300E-003
                    36 -1.472299813668979E-003
                    37  1.004202335979381E-004
                    38  1.322102823644508E-004
                    39  9.125384596604206E-004
                    40 -4.304993442706982E-005
                    41 -3.494736114132245E-004
                    42  2.565168301681530E-003
                    43 -7.991347159967835E-005
                    44  1.643872267895920E-004
                    45  3.157104294503033E-004
                    46  2.603096606920750E-006
                    47 -7.742515488867923E-005
                    48  3.249704307589552E-004
                    49  6.475764440079167E-006
                    50 -9.672930587853180E-004
                    51 -3.057821373624785E-004
                    52  1.809442953281354E-004
                    53 -1.578528728478660E-004
                    54  2.362234532661534E-005
                    55 -1.988388006559189E-005
                    56  2.582370894925904E-004
                    57 -4.442476685415545E-006
                    58 -3.025369878990764E-005
                    59 -3.070163664372394E-005
                    60  6.617094086965570E-005
                    61  6.027740360591374E-006
                    62  1.598480671085468E-002
                    63 -1.526855870703204E-003
                    64 -2.875192606764733E-004
                    65  2.797337225274071E-003
                    66 -2.891078715556232E-004
                    67 -4.599598766721061E-005
                    68  4.131660987030522E-004
                    69  3.991948271302654E-005
                    70 -3.686204071186835E-005
                    71  3.129450529388678E-004
                    72  2.819779683206023E-004
                    73  2.170820922876489E-004
                    74 -1.726305110391127E-003
                    75  7.840485091761433E-006
                    76  2.512292958494493E-005
                    77  1.771743941496430E-006
                    78 -4.618827613385818E-005
                    79 -2.579894269349304E-006
                    80 -5.114057238502948E-004
                    81 -3.731581055163072E-004
                    82  1.822033240207391E-005
                    83  8.023139636778644E-004
                    84  5.004313782036331E-005
                    85  3.514980606545250E-005
                    86  1.050468944618674E-004
                    87  1.729652300116774E-005
                    88 -2.747690477781690E-005
                    89 -2.301371480547945E-005
                    90 -2.591743201309996E-005
                    91  4.358302061661446E-006
                    92  1.839078269039801E-002
                    93 -1.652447079511407E-003
                    94 -3.364498598446790E-004
                    95  3.329740234290079E-003
                    96 -2.768974759747331E-004
                    97  2.952347262165154E-005
                    98 -3.725981031800777E-004
                    99 -1.026498413219316E-004
                   100  7.783151333084474E-005
                   101 -7.507238742410659E-004
                   102  3.026887122891456E-004
                   103 -1.252431104761870E-004
                   104  1.555945927053597E-003
                   105  1.038755181106716E-005
                   106 -4.370896802783997E-006
                   107  1.991224588071115E-006
                   108 -2.611811270016560E-005
                   109 -2.019918061857323E-007
                   110 -1.970366908888690E-004
                   111  4.937608640683140E-004
                   112 -3.619892457187711E-005
                   113  6.231536595271002E-004
                   114 -3.910112308259170E-005
                   115 -4.651374661029244E-005
                   116  8.742799304464843E-005
                   117 -1.022865536706125E-005
                   118  1.937426312910803E-005
                   119 -1.272671250040235E-005
                   120 -2.975985412194959E-005
                   121 -8.481817725467833E-007
                   122 -6.938010550893643E-005
                   123 -7.506443259739588E-004
                   124  2.434998818925308E-004
                   125 -3.715456852353105E-004
                   126 -9.473965025317979E-005
                   127  5.941718359832469E-006
                   128 -5.448293986172041E-005
                   129  6.217106578870767E-004
                   130 -8.872829743061070E-007
                   131  6.094327748413522E-005
                   132  4.125293441435572E-004
                   133 -4.600629279361021E-005
                   134  3.979485494454083E-004
                   135  1.579772601731487E-006
                   136  3.616256558412883E-005
                   137  3.944701435634524E-006
                   138 -3.870991745913640E-005
                   139 -4.887816479620359E-006
                   140  1.893594369653228E-004
                   141 -2.821682490638585E-004
                   142 -1.331438157793512E-005
                   143 -2.283845944188054E-004
                   144  2.581997277325149E-005
                   145 -9.987570744670683E-006
                   146  1.197712688100440E-005
                   147 -2.047322343346987E-006
                   148 -3.237378574156320E-006
                   149 -3.906670638066522E-006
                   150 -2.024290476401470E-005
                   151  1.489239651333795E-006
                   152 -2.455375783211312E-006
                   153 -7.919567177340995E-004
                   154  2.318167801981810E-004
                   155 -1.627350274414952E-004
                   156 -8.736794442354201E-005
                   157 -8.986989809490164E-006
                   158  3.730891252183032E-005
                   159  4.893169762368613E-004
                   160  1.321348154634515E-005