[Molden Format]
[Atoms] AU
  N     1    7    -0.0915059100   -4.3437728000    0.0000000000        
  C     2    6     0.0298670300   -1.8299099900    0.0000000000        
  C     3    6    -2.2991427200   -0.4299594000    0.0000000000        
  C     4    6     2.3386281800   -0.4015387700    0.0000000000        
  C     5    6    -2.2806301800    2.1531503200    0.0000000000        
  C     6    6     2.2979003900    2.1821826100    0.0000000000        
  C     7    6     0.0007353800    3.4886564700    0.0000000000        
  H     8    1    -2.9724942800   -6.1521301300    0.0000000000        
  H     9    1     1.6930544200   -5.1061046600    0.0000000000        
  H    10    1    -4.0326037600   -1.4728701200    0.0000000000        
  H    11    1     4.1020400100   -1.4050519400    0.0000000000        
  H    12    1    -4.0339020700    3.1747884200    0.0000000000        
  H    13    1     4.0403484000    3.2221645200    0.0000000000        
  H    14    1    -0.0105546100    5.5162347200    0.0000000000        
[5D]
[7F]
[GTO]
  1  0
   s    12 1.00
  0.114200D+05  0.172695D-04
  0.171200D+04  0.134411D-03
  0.389300D+03  0.694561D-03
  0.110000D+03  0.278531D-02
  0.355700D+02  0.863457D-02
  0.125400D+02  0.199805D-01
  0.464400D+01  0.262908D-01
  0.129300D+01 -0.243845D-01
  0.511800D+00 -0.924934D-01
  0.178700D+00 -0.339683D+00
  0.246240D-01  0.345111D+00
  0.112530D-01  0.752750D+00
   s    10 1.00
  0.114200D+05  0.523000D-03
  0.171200D+04  0.404500D-02
  0.389300D+03  0.207750D-01
  0.110000D+03  0.807269D-01
  0.355700D+02  0.233074D+00
  0.125400D+02  0.433501D+00
  0.464400D+01  0.347472D+00
  0.129300D+01  0.412620D-01
  0.511800D+00 -0.850799D-02
  0.178700D+00  0.238400D-02
   s    10 1.00
  0.114200D+05 -0.115000D-03
  0.171200D+04 -0.895000D-03
  0.389300D+03 -0.462400D-02
  0.110000D+03 -0.185280D-01
  0.355700D+02 -0.573390D-01
  0.125400D+02 -0.132076D+00
  0.464400D+01 -0.172510D+00
  0.129300D+01  0.151814D+00
  0.511800D+00  0.599944D+00
  0.178700D+00  0.387462D+00
   s     1 1.00
  0.129300D+01  0.100000D+01
   s     1 1.00
  0.178700D+00  0.100000D+01
   p     5 1.00
  0.266300D+02  0.146700D-01
  0.594800D+01  0.917640D-01
  0.174200D+01  0.298683D+00
  0.555000D+00  0.498487D+00
  0.172500D+00  0.337023D+00
   p     1 1.00
  0.174200D+01  0.100000D+01
   p     1 1.00
  0.555000D+00  0.100000D+01
   d     1 1.00
  0.165400D+01  0.100000D+01
   d     1 1.00
  0.469000D+00  0.100000D+01
   f     1 1.00
  0.109300D+01  0.100000D+01
  
  2  0
   s    10 1.00
  0.823600D+04  0.531000D-03
  0.123500D+04  0.410800D-02
  0.280800D+03  0.210870D-01
  0.792700D+02  0.818530D-01
  0.255900D+02  0.234817D+00
  0.899700D+01  0.434401D+00
  0.331900D+01  0.346129D+00
  0.905900D+00  0.393780D-01
  0.364300D+00 -0.898300D-02
  0.128500D+00  0.238500D-02
   s    10 1.00
  0.823600D+04 -0.113000D-03
  0.123500D+04 -0.878000D-03
  0.280800D+03 -0.454000D-02
  0.792700D+02 -0.181330D-01
  0.255900D+02 -0.557600D-01
  0.899700D+01 -0.126895D+00
  0.331900D+01 -0.170352D+00
  0.905900D+00  0.140382D+00
  0.364300D+00  0.598684D+00
  0.128500D+00  0.395389D+00
   s     1 1.00
  0.905900D+00  0.100000D+01
   s     1 1.00
  0.364300D+00  0.100000D+01
   p     5 1.00
  0.187100D+02  0.140310D-01
  0.413300D+01  0.868660D-01
  0.120000D+01  0.290216D+00
  0.382700D+00  0.501008D+00
  0.120900D+00  0.343406D+00
   p     1 1.00
  0.382700D+00  0.100000D+01
   p     1 1.00
  0.120900D+00  0.100000D+01
   d     1 1.00
  0.109700D+01  0.100000D+01
   d     1 1.00
  0.318000D+00  0.100000D+01
   f     1 1.00
  0.761000D+00  0.100000D+01
  
  3  0
   s    10 1.00
  0.823600D+04  0.531000D-03
  0.123500D+04  0.410800D-02
  0.280800D+03  0.210870D-01
  0.792700D+02  0.818530D-01
  0.255900D+02  0.234817D+00
  0.899700D+01  0.434401D+00
  0.331900D+01  0.346129D+00
  0.905900D+00  0.393780D-01
  0.364300D+00 -0.898300D-02
  0.128500D+00  0.238500D-02
   s    10 1.00
  0.823600D+04 -0.113000D-03
  0.123500D+04 -0.878000D-03
  0.280800D+03 -0.454000D-02
  0.792700D+02 -0.181330D-01
  0.255900D+02 -0.557600D-01
  0.899700D+01 -0.126895D+00
  0.331900D+01 -0.170352D+00
  0.905900D+00  0.140382D+00
  0.364300D+00  0.598684D+00
  0.128500D+00  0.395389D+00
   s     1 1.00
  0.905900D+00  0.100000D+01
   s     1 1.00
  0.364300D+00  0.100000D+01
   p     5 1.00
  0.187100D+02  0.140310D-01
  0.413300D+01  0.868660D-01
  0.120000D+01  0.290216D+00
  0.382700D+00  0.501008D+00
  0.120900D+00  0.343406D+00
   p     1 1.00
  0.382700D+00  0.100000D+01
   p     1 1.00
  0.120900D+00  0.100000D+01
   d     1 1.00
  0.109700D+01  0.100000D+01
   d     1 1.00
  0.318000D+00  0.100000D+01
   f     1 1.00
  0.761000D+00  0.100000D+01
  
  4  0
   s    10 1.00
  0.823600D+04  0.531000D-03
  0.123500D+04  0.410800D-02
  0.280800D+03  0.210870D-01
  0.792700D+02  0.818530D-01
  0.255900D+02  0.234817D+00
  0.899700D+01  0.434401D+00
  0.331900D+01  0.346129D+00
  0.905900D+00  0.393780D-01
  0.364300D+00 -0.898300D-02
  0.128500D+00  0.238500D-02
   s    10 1.00
  0.823600D+04 -0.113000D-03
  0.123500D+04 -0.878000D-03
  0.280800D+03 -0.454000D-02
  0.792700D+02 -0.181330D-01
  0.255900D+02 -0.557600D-01
  0.899700D+01 -0.126895D+00
  0.331900D+01 -0.170352D+00
  0.905900D+00  0.140382D+00
  0.364300D+00  0.598684D+00
  0.128500D+00  0.395389D+00
   s     1 1.00
  0.905900D+00  0.100000D+01
   s     1 1.00
  0.364300D+00  0.100000D+01
   p     5 1.00
  0.187100D+02  0.140310D-01
  0.413300D+01  0.868660D-01
  0.120000D+01  0.290216D+00
  0.382700D+00  0.501008D+00
  0.120900D+00  0.343406D+00
   p     1 1.00
  0.382700D+00  0.100000D+01
   p     1 1.00
  0.120900D+00  0.100000D+01
   d     1 1.00
  0.109700D+01  0.100000D+01
   d     1 1.00
  0.318000D+00  0.100000D+01
   f     1 1.00
  0.761000D+00  0.100000D+01
  
  5  0
   s    10 1.00
  0.823600D+04  0.531000D-03
  0.123500D+04  0.410800D-02
  0.280800D+03  0.210870D-01
  0.792700D+02  0.818530D-01
  0.255900D+02  0.234817D+00
  0.899700D+01  0.434401D+00
  0.331900D+01  0.346129D+00
  0.905900D+00  0.393780D-01
  0.364300D+00 -0.898300D-02
  0.128500D+00  0.238500D-02
   s    10 1.00
  0.823600D+04 -0.113000D-03
  0.123500D+04 -0.878000D-03
  0.280800D+03 -0.454000D-02
  0.792700D+02 -0.181330D-01
  0.255900D+02 -0.557600D-01
  0.899700D+01 -0.126895D+00
  0.331900D+01 -0.170352D+00
  0.905900D+00  0.140382D+00
  0.364300D+00  0.598684D+00
  0.128500D+00  0.395389D+00
   s     1 1.00
  0.905900D+00  0.100000D+01
   s     1 1.00
  0.364300D+00  0.100000D+01
   p     5 1.00
  0.187100D+02  0.140310D-01
  0.413300D+01  0.868660D-01
  0.120000D+01  0.290216D+00
  0.382700D+00  0.501008D+00
  0.120900D+00  0.343406D+00
   p     1 1.00
  0.382700D+00  0.100000D+01
   p     1 1.00
  0.120900D+00  0.100000D+01
   d     1 1.00
  0.109700D+01  0.100000D+01
   d     1 1.00
  0.318000D+00  0.100000D+01
   f     1 1.00
  0.761000D+00  0.100000D+01
  
  6  0
   s    10 1.00
  0.823600D+04  0.531000D-03
  0.123500D+04  0.410800D-02
  0.280800D+03  0.210870D-01
  0.792700D+02  0.818530D-01
  0.255900D+02  0.234817D+00
  0.899700D+01  0.434401D+00
  0.331900D+01  0.346129D+00
  0.905900D+00  0.393780D-01
  0.364300D+00 -0.898300D-02
  0.128500D+00  0.238500D-02
   s    10 1.00
  0.823600D+04 -0.113000D-03
  0.123500D+04 -0.878000D-03
  0.280800D+03 -0.454000D-02
  0.792700D+02 -0.181330D-01
  0.255900D+02 -0.557600D-01
  0.899700D+01 -0.126895D+00
  0.331900D+01 -0.170352D+00
  0.905900D+00  0.140382D+00
  0.364300D+00  0.598684D+00
  0.128500D+00  0.395389D+00
   s     1 1.00
  0.905900D+00  0.100000D+01
   s     1 1.00
  0.364300D+00  0.100000D+01
   p     5 1.00
  0.187100D+02  0.140310D-01
  0.413300D+01  0.868660D-01
  0.120000D+01  0.290216D+00
  0.382700D+00  0.501008D+00
  0.120900D+00  0.343406D+00
   p     1 1.00
  0.382700D+00  0.100000D+01
   p     1 1.00
  0.120900D+00  0.100000D+01
   d     1 1.00
  0.109700D+01  0.100000D+01
   d     1 1.00
  0.318000D+00  0.100000D+01
   f     1 1.00
  0.761000D+00  0.100000D+01
  
  7  0
   s    10 1.00
  0.823600D+04  0.531000D-03
  0.123500D+04  0.410800D-02
  0.280800D+03  0.210870D-01
  0.792700D+02  0.818530D-01
  0.255900D+02  0.234817D+00
  0.899700D+01  0.434401D+00
  0.331900D+01  0.346129D+00
  0.905900D+00  0.393780D-01
  0.364300D+00 -0.898300D-02
  0.128500D+00  0.238500D-02
   s    10 1.00
  0.823600D+04 -0.113000D-03
  0.123500D+04 -0.878000D-03
  0.280800D+03 -0.454000D-02
  0.792700D+02 -0.181330D-01
  0.255900D+02 -0.557600D-01
  0.899700D+01 -0.126895D+00
  0.331900D+01 -0.170352D+00
  0.905900D+00  0.140382D+00
  0.364300D+00  0.598684D+00
  0.128500D+00  0.395389D+00
   s     1 1.00
  0.905900D+00  0.100000D+01
   s     1 1.00
  0.364300D+00  0.100000D+01
   p     5 1.00
  0.187100D+02  0.140310D-01
  0.413300D+01  0.868660D-01
  0.120000D+01  0.290216D+00
  0.382700D+00  0.501008D+00
  0.120900D+00  0.343406D+00
   p     1 1.00
  0.382700D+00  0.100000D+01
   p     1 1.00
  0.120900D+00  0.100000D+01
   d     1 1.00
  0.109700D+01  0.100000D+01
   d     1 1.00
  0.318000D+00  0.100000D+01
   f     1 1.00
  0.761000D+00  0.100000D+01
  
  8  0
   s     4 1.00
  0.130100D+02  0.196850D-01
  0.196200D+01  0.137977D+00
  0.444600D+00  0.478148D+00
  0.122000D+00  0.501240D+00
   s     1 1.00
  0.122000D+00  0.100000D+01
   p     1 1.00
  0.727000D+00  0.100000D+01
  
  9  0
   s     4 1.00
  0.130100D+02  0.196850D-01
  0.196200D+01  0.137977D+00
  0.444600D+00  0.478148D+00
  0.122000D+00  0.501240D+00
   s     1 1.00
  0.122000D+00  0.100000D+01
   p     1 1.00
  0.727000D+00  0.100000D+01
  
 10  0
   s     4 1.00
  0.130100D+02  0.196850D-01
  0.196200D+01  0.137977D+00
  0.444600D+00  0.478148D+00
  0.122000D+00  0.501240D+00
   s     1 1.00
  0.122000D+00  0.100000D+01
   p     1 1.00
  0.727000D+00  0.100000D+01
  
 11  0
   s     4 1.00
  0.130100D+02  0.196850D-01
  0.196200D+01  0.137977D+00
  0.444600D+00  0.478148D+00
  0.122000D+00  0.501240D+00
   s     1 1.00
  0.122000D+00  0.100000D+01
   p     1 1.00
  0.727000D+00  0.100000D+01
  
 12  0
   s     4 1.00
  0.130100D+02  0.196850D-01
  0.196200D+01  0.137977D+00
  0.444600D+00  0.478148D+00
  0.122000D+00  0.501240D+00
   s     1 1.00
  0.122000D+00  0.100000D+01
   p     1 1.00
  0.727000D+00  0.100000D+01
  
 13  0
   s     4 1.00
  0.130100D+02  0.196850D-01
  0.196200D+01  0.137977D+00
  0.444600D+00  0.478148D+00
  0.122000D+00  0.501240D+00
   s     1 1.00
  0.122000D+00  0.100000D+01
   p     1 1.00
  0.727000D+00  0.100000D+01
  
 14  0
   s     4 1.00
  0.130100D+02  0.196850D-01
  0.196200D+01  0.137977D+00
  0.444600D+00  0.478148D+00
  0.122000D+00  0.501240D+00
   s     1 1.00
  0.122000D+00  0.100000D+01
   p     1 1.00
  0.727000D+00  0.100000D+01
  
[MO]
 Sym= __1_A__
 Ene=  0.000000000000000E+000
 Spin= Alpha
 Occup=    2.00000000000000     
                     1  7.685211423999241E-005
                     2  0.998338321570065     
                     3  2.844337015433303E-003
                     4  1.707720535333485E-003
                     5  5.228998251425199E-003
                     6  3.458854168430966E-003
                     7  6.265406402282150E-003
                     8  0.000000000000000E+000
                     9 -6.028483912497684E-004
                    10 -5.829124737043851E-004
                    11  0.000000000000000E+000
                    12 -2.398520384908221E-003
                    13 -1.595982101088036E-003
                    14  0.000000000000000E+000
                    15 -1.146883790856196E-004
                    16  0.000000000000000E+000
                    17  0.000000000000000E+000
                    18 -1.839885438498087E-004
                    19 -8.155158475955636E-005
                    20  9.401070847166107E-005
                    21  0.000000000000000E+000
                    22  0.000000000000000E+000
                    23 -3.258728494054162E-004
                    24  5.651313843783495E-004
                    25  0.000000000000000E+000
                    26 -1.365326350128792E-005
                    27 -6.346709713956422E-005
                    28  0.000000000000000E+000
                    29  0.000000000000000E+000
                    30  3.599416890402240E-005
                    31 -1.540929560472570E-004
                    32 -3.932410465730555E-004
                    33  1.293299403869853E-003
                    34  3.262444068392170E-004
                    35 -4.019657224766868E-004
                    36 -3.202448363397215E-004
                    37 -5.073388755445058E-003
                    38  0.000000000000000E+000
                    39  4.600639272860262E-004
                    40  5.208701486853608E-004
                    41  0.000000000000000E+000
                    42 -2.136553488775222E-003
                    43  5.500414890625092E-003
                    44  0.000000000000000E+000
                    45 -1.668107573090635E-005
                    46  0.000000000000000E+000
                    47  0.000000000000000E+000
                    48 -2.306353811258402E-004
                    49 -8.896451625891492E-006
                    50 -2.555045064155316E-004
                    51  0.000000000000000E+000
                    52  0.000000000000000E+000
                    53  4.498202244977238E-005
                    54  8.440495494757256E-004
                    55  0.000000000000000E+000
                    56 -1.077882358472835E-005
                    57 -5.676826500008137E-005
                    58  0.000000000000000E+000
                    59  0.000000000000000E+000
                    60  3.218633171952712E-005
                    61 -1.214997801933319E-004
                    62 -4.869932937878807E-004
                    63 -2.312688906343028E-003
                    64 -8.833375647415077E-005
                    65  2.107857027645129E-003
                    66 -6.973640860342318E-004
                    67  5.562417574432940E-004
                    68  0.000000000000000E+000
                    69  4.253082106121316E-004
                    70  8.422692995080416E-004
                    71  0.000000000000000E+000
                    72 -1.919069578897126E-003
                    73  8.797102247447980E-004
                    74  0.000000000000000E+000
                    75 -4.067778796076747E-005
                    76  0.000000000000000E+000
                    77  0.000000000000000E+000
                    78 -8.377822920994898E-005
                    79 -2.694617862221454E-005
                    80 -1.235379796440492E-004
                    81  0.000000000000000E+000
                    82  0.000000000000000E+000
                    83  4.236145282719628E-005
                    84  8.716044361658896E-005
                    85  0.000000000000000E+000
                    86  1.385553860884283E-005
                    87 -5.059477525267370E-005
                    88  0.000000000000000E+000
                    89  0.000000000000000E+000
                    90 -1.993875204684162E-005
                    91 -1.509113332941112E-004
                    92 -1.781838663904600E-004
                    93 -1.255969387843639E-003
                    94  2.089741627862013E-004
                    95 -1.987557178353080E-004
                    96  6.116833140971119E-004
                    97  7.786779074908996E-004
                    98  0.000000000000000E+000
                    99  4.235223119128248E-004
                   100  3.644311154412473E-004
                   101  0.000000000000000E+000
                   102  4.595600472580218E-004
                   103 -1.769253065591889E-003
                   104  0.000000000000000E+000
                   105  1.961738003298691E-006
                   106  0.000000000000000E+000
                   107  0.000000000000000E+000
                   108 -8.186095076661472E-005
                   109 -2.273268425527265E-005
                   110  9.842396793793178E-005
                   111  0.000000000000000E+000
                   112  0.000000000000000E+000
                   113 -1.801266894042865E-004
                   114 -2.465464206835619E-005
                   115  0.000000000000000E+000
                   116 -2.675341198245364E-005
                   117 -2.625965428038442E-005
                   118  0.000000000000000E+000
                   119  0.000000000000000E+000
                   120 -1.789725359181726E-005
                   121 -2.502416570868224E-005
                   122 -2.543516401471218E-004
                   123 -4.729015845125607E-004
                   124  1.732543332517888E-004
                   125  3.197098185402589E-004
                   126 -1.513049989663825E-005
                   127 -6.052602340167339E-004
                   128  0.000000000000000E+000
                   129  1.878037882175591E-004
                   130  6.430658166628162E-004
                   131  0.000000000000000E+000
                   132  5.832990525959980E-004
                   133  2.122454382070059E-003
                   134  0.000000000000000E+000
                   135  1.373407735983282E-005
                   136  0.000000000000000E+000
                   137  0.000000000000000E+000
                   138  3.891098220879780E-005
                   139  2.214654609704345E-006
                   140  1.893154507115760E-004
                   141  0.000000000000000E+000
                   142  0.000000000000000E+000
                   143  3.860429954165680E-004
                   144  2.439305089445275E-004
                   145  0.000000000000000E+000
                   146 -9.340902226764460E-006
                   147 -6.152524168319168E-005
                   148  0.000000000000000E+000
                   149  0.000000000000000E+000
                   150 -1.878386167082061E-005
                   151 -4.670035078558029E-005
                   152 -1.551804602156504E-004
                   153 -1.557358479953491E-004
                   154  5.483090317068669E-005
                   155  2.383477651815389E-004
                   156 -3.076338305838124E-005
                   157 -5.409984142687854E-004
                   158  0.000000000000000E+000
                   159  4.195381362303199E-005
                   160  6.056606311807800E-005
                   161  0.000000000000000E+000
                   162  8.056441414187306E-004
                   163 -3.832740962117009E-004
                   164  0.000000000000000E+000
                   165 -1.990246072670816E-006
                   166  0.000000000000000E+000
                   167  0.000000000000000E+000
                   168 -8.855819936528556E-006
                   169  1.197482780717593E-006
                   170  8.848742950976708E-005
                   171  0.000000000000000E+000
                   172  0.000000000000000E+000
                   173  2.251331396013384E-005
                   174 -9.049373093687068E-006
                   175  0.000000000000000E+000
                   176  1.139832174574950E-006
                   177 -9.293667525321347E-006
                   178  0.000000000000000E+000
                   179  0.000000000000000E+000
                   180 -1.554166536951132E-005
                   181 -1.838263932122832E-005
                   182 -1.619421208629561E-004
                   183 -4.757588116215117E-004
                   184  3.845754564013948E-005
                   185  2.328680126402403E-004
                   186 -4.589071533056187E-005
                   187 -4.464411846262116E-005
                   188  0.000000000000000E+000
                   189  2.524609847690829E-004
                   190  8.579673307309462E-005
                   191  0.000000000000000E+000
                   192  1.439337023832684E-003
                   193 -2.396237282228823E-004
                   194  0.000000000000000E+000
                   195  1.143706456415363E-006
                   196  0.000000000000000E+000
                   197  0.000000000000000E+000
                   198 -1.198877879655049E-005
                   199  3.778221860191650E-006
                   200 -1.021422427589739E-005
                   201  0.000000000000000E+000
                   202  0.000000000000000E+000
                   203 -8.236711373977150E-005
                   204 -2.007374067971218E-004
                   205  0.000000000000000E+000
                   206 -8.745512855673919E-006
                   207 -4.340254396322204E-006
                   208  0.000000000000000E+000
                   209  0.000000000000000E+000
                   210  8.939336516937990E-006
                   211 -8.000048880707510E-006
                   212 -2.242179188247611E-005
                   213  9.075241799808828E-005
                   214  7.623042700911151E-005
                   215  8.913240241634867E-005
                   216  0.000000000000000E+000
                   217  1.722467905294171E-003
                   218 -1.759793923159848E-003
                   219 -4.510028968303361E-004
                   220  1.766797410165747E-004
                   221  0.000000000000000E+000
                   222 -4.858306902113864E-004
                   223 -6.618510747835017E-004
                   224  2.777898994925306E-007
                   225 -6.807095992102436E-005
                   226  0.000000000000000E+000
                   227 -3.046819297863908E-004
                   228 -4.625234620082463E-004
                   229 -1.581139973597083E-005
                   230 -1.772346985034454E-005
                   231  0.000000000000000E+000
                   232 -1.011347055705583E-004
                   233 -4.694788431145344E-004
                   234  1.159453159880711E-006
                   235 -6.220160296047934E-007
                   236  0.000000000000000E+000
                   237 -1.777209719324467E-004
                   238 -3.949117448193146E-004
                   239  4.132641384616805E-006
                   240 -5.266420142655535E-007
                   241  0.000000000000000E+000
                   242  9.237693268787621E-006
                   243  3.249150219001736E-005
                   244 -5.469420012136190E-007
                   245  2.789875773795765E-005
                   246  0.000000000000000E+000
 Sym= __2_A__
 Ene=  0.000000000000000E+000
 Spin= Alpha
 Occup=    2.00000000000000     
                     1 -5.020242636022557E-005
                     2 -2.911808337251595E-004
                     3  2.665485815579600E-003
                     4  1.352222819546891E-004
                     5  1.380177742535110E-003
                     6 -3.640021866205906E-004
                     7  3.013309091379322E-003
                     8  0.000000000000000E+000
                     9 -3.967900503773183E-005
                    10 -1.159581419028370E-004
                    11  0.000000000000000E+000
                    12 -2.701557370662554E-005
                    13 -3.852287767150515E-004
                    14  0.000000000000000E+000
                    15  3.346069687821961E-005
                    16  0.000000000000000E+000
                    17  0.000000000000000E+000
                    18 -4.459113957250346E-005
                    19  2.203607059137958E-005
                    20 -1.146113678836901E-004
                    21  0.000000000000000E+000
                    22  0.000000000000000E+000
                    23  1.355958227673060E-004
                    24 -1.391779528591312E-004
                    25  0.000000000000000E+000
                    26 -1.769768670487043E-005
                    27  9.275740850321751E-005
                    28  0.000000000000000E+000
                    29  0.000000000000000E+000
                    30 -6.378395772717408E-005
                    31  1.404651432604619E-004
                    32   1.00101251677525     
                    33  9.297883974586892E-003
                    34  2.695296798328643E-003
                    35 -8.046505981699013E-003
                    36 -1.340013598954121E-005
                    37 -3.301630356210751E-003
                    38  0.000000000000000E+000
                    39 -1.979071838223559E-004
                    40  1.767023200386547E-004
                    41  0.000000000000000E+000
                    42 -1.427937910588541E-004
                    43  4.140895012896043E-003
                    44  0.000000000000000E+000
                    45 -5.589133303977676E-004
                    46  0.000000000000000E+000
                    47  0.000000000000000E+000
                    48 -2.217022114820054E-004
                    49  4.341587961705858E-005
                    50  5.252650979987972E-004
                    51  0.000000000000000E+000
                    52  0.000000000000000E+000
                    53 -6.727712423373338E-004
                    54 -3.779835946310491E-004
                    55  0.000000000000000E+000
                    56  1.235539385806424E-005
                    57  1.012360064288642E-004
                    58  0.000000000000000E+000
                    59  0.000000000000000E+000
                    60 -3.433790072091653E-005
                    61  3.963750630467374E-004
                    62  8.907223248746935E-003
                    63 -2.078394896737719E-003
                    64 -2.404974216628474E-004
                    65  2.703618458341508E-003
                    66  3.561486124308012E-006
                    67  7.553700682809108E-005
                    68  0.000000000000000E+000
                    69  5.384725644974634E-004
                    70  1.447873134963699E-004
                    71  0.000000000000000E+000
                    72 -2.133147382714161E-003
                    73  2.948175924026576E-004
                    74  0.000000000000000E+000
                    75  3.563752440113494E-005
                    76  0.000000000000000E+000
                    77  0.000000000000000E+000
                    78 -4.061975687133978E-006
                    79  2.705031593325279E-006
                    80 -4.177868334373725E-004
                    81  0.000000000000000E+000
                    82  0.000000000000000E+000
                    83 -6.369900804500123E-004
                    84 -2.406272105108059E-004
                    85  0.000000000000000E+000
                    86  2.711248327675180E-005
                    87 -5.842406749464506E-005
                    88  0.000000000000000E+000
                    89  0.000000000000000E+000
                    90  4.024088700189886E-005
                    91  1.515584651858812E-004
                    92  1.066664681601297E-002
                    93 -2.072839994411122E-003
                    94 -3.146750421386016E-004
                    95  3.207566198839984E-003
                    96  6.036995093180930E-005
                    97  3.218154645534989E-005
                    98  0.000000000000000E+000
                    99 -9.404879177241433E-004
                   100  2.068239808047416E-005
                   101  0.000000000000000E+000
                   102  1.775243925734353E-003
                   103  2.353007490816672E-005
                   104  0.000000000000000E+000
                   105  2.262348988074960E-005
                   106  0.000000000000000E+000
                   107  0.000000000000000E+000
                   108 -2.190515634916204E-006
                   109  1.124855440634346E-005
                   110 -4.242113358036519E-004
                   111  0.000000000000000E+000
                   112  0.000000000000000E+000
                   113 -3.792442295599084E-004
                   114  2.650347045769798E-004
                   115  0.000000000000000E+000
                   116 -2.704220030151477E-005
                   117 -6.956507167285281E-005
                   118  0.000000000000000E+000
                   119  0.000000000000000E+000
                   120 -9.320590701412891E-006
                   121  1.340919748755650E-004
                   122 -1.801510839668345E-004
                   123 -6.999820133619122E-004
                   124  2.269245819701650E-004
                   125 -9.828634822464647E-005
                   126  5.862225573242669E-006
                   127 -3.498290937385502E-004
                   128  0.000000000000000E+000
                   129 -8.346031509053579E-005
                   130  6.004882207031723E-004
                   131  0.000000000000000E+000
                   132  3.729204134457461E-004
                   133  9.176998687314728E-004
                   134  0.000000000000000E+000
                   135  1.745118870106215E-005
                   136  0.000000000000000E+000
                   137  0.000000000000000E+000
                   138  4.160421480480412E-006
                   139  4.345543050291794E-005
                   140  1.313942501254550E-004
                   141  0.000000000000000E+000
                   142  0.000000000000000E+000
                   143  2.475296988500790E-004
                   144 -1.032213587021448E-004
                   145  0.000000000000000E+000
                   146  9.700588498378203E-006
                   147 -3.745942685562139E-005
                   148  0.000000000000000E+000
                   149  0.000000000000000E+000
                   150 -4.590502441976138E-005
                   151  3.746784931487611E-005
                   152 -1.100163024418201E-004
                   153 -6.904914183621145E-004
                   154  2.314235095716159E-004
                   155 -3.497001430615391E-005
                   156 -2.956959457025171E-005
                   157 -3.393833056821708E-004
                   158  0.000000000000000E+000
                   159  1.370392342480643E-004
                   160  5.348487744769389E-004