[Molden Format]
[Atoms] AU
  N     1    7    -0.0725815400   -4.3248745700    0.0000000000        
  C     2    6     0.0363342000   -1.8293226400    0.0000000000        
  C     3    6    -2.3105406600   -0.4311256100    0.0000000000        
  C     4    6     2.3563646200   -0.3931111100    0.0000000000        
  C     5    6    -2.2864777100    2.1470378700    0.0000000000        
  C     6    6     2.3002167900    2.1832303600    0.0000000000        
  C     7    6    -0.0048670200    3.4854666900    0.0000000000        
  H     8    1    -2.3879010100   -5.6049460200    0.0000000000        
  H     9    1     1.6551337600   -5.2215488000    0.0000000000        
  H    10    1    -4.0351818400   -1.4826482900    0.0000000000        
  H    11    1     4.1169835100   -1.3959738100    0.0000000000        
  H    12    1    -4.0399695000    3.1675073700    0.0000000000        
  H    13    1     4.0374514300    3.2308602100    0.0000000000        
  H    14    1    -0.0188656700    5.5126160500    0.0000000000        
[5D]
[7F]
[GTO]
  1  0
   s    12 1.00
  0.114200D+05  0.172695D-04
  0.171200D+04  0.134411D-03
  0.389300D+03  0.694561D-03
  0.110000D+03  0.278531D-02
  0.355700D+02  0.863457D-02
  0.125400D+02  0.199805D-01
  0.464400D+01  0.262908D-01
  0.129300D+01 -0.243845D-01
  0.511800D+00 -0.924934D-01
  0.178700D+00 -0.339683D+00
  0.246240D-01  0.345111D+00
  0.112530D-01  0.752750D+00
   s    10 1.00
  0.114200D+05  0.523000D-03
  0.171200D+04  0.404500D-02
  0.389300D+03  0.207750D-01
  0.110000D+03  0.807269D-01
  0.355700D+02  0.233074D+00
  0.125400D+02  0.433501D+00
  0.464400D+01  0.347472D+00
  0.129300D+01  0.412620D-01
  0.511800D+00 -0.850799D-02
  0.178700D+00  0.238400D-02
   s    10 1.00
  0.114200D+05 -0.115000D-03
  0.171200D+04 -0.895000D-03
  0.389300D+03 -0.462400D-02
  0.110000D+03 -0.185280D-01
  0.355700D+02 -0.573390D-01
  0.125400D+02 -0.132076D+00
  0.464400D+01 -0.172510D+00
  0.129300D+01  0.151814D+00
  0.511800D+00  0.599944D+00
  0.178700D+00  0.387462D+00
   s     1 1.00
  0.129300D+01  0.100000D+01
   s     1 1.00
  0.178700D+00  0.100000D+01
   p     5 1.00
  0.266300D+02  0.146700D-01
  0.594800D+01  0.917640D-01
  0.174200D+01  0.298683D+00
  0.555000D+00  0.498487D+00
  0.172500D+00  0.337023D+00
   p     1 1.00
  0.174200D+01  0.100000D+01
   p     1 1.00
  0.555000D+00  0.100000D+01
   d     1 1.00
  0.165400D+01  0.100000D+01
   d     1 1.00
  0.469000D+00  0.100000D+01
   f     1 1.00
  0.109300D+01  0.100000D+01
  
  2  0
   s    10 1.00
  0.823600D+04  0.531000D-03
  0.123500D+04  0.410800D-02
  0.280800D+03  0.210870D-01
  0.792700D+02  0.818530D-01
  0.255900D+02  0.234817D+00
  0.899700D+01  0.434401D+00
  0.331900D+01  0.346129D+00
  0.905900D+00  0.393780D-01
  0.364300D+00 -0.898300D-02
  0.128500D+00  0.238500D-02
   s    10 1.00
  0.823600D+04 -0.113000D-03
  0.123500D+04 -0.878000D-03
  0.280800D+03 -0.454000D-02
  0.792700D+02 -0.181330D-01
  0.255900D+02 -0.557600D-01
  0.899700D+01 -0.126895D+00
  0.331900D+01 -0.170352D+00
  0.905900D+00  0.140382D+00
  0.364300D+00  0.598684D+00
  0.128500D+00  0.395389D+00
   s     1 1.00
  0.905900D+00  0.100000D+01
   s     1 1.00
  0.364300D+00  0.100000D+01
   p     5 1.00
  0.187100D+02  0.140310D-01
  0.413300D+01  0.868660D-01
  0.120000D+01  0.290216D+00
  0.382700D+00  0.501008D+00
  0.120900D+00  0.343406D+00
   p     1 1.00
  0.382700D+00  0.100000D+01
   p     1 1.00
  0.120900D+00  0.100000D+01
   d     1 1.00
  0.109700D+01  0.100000D+01
   d     1 1.00
  0.318000D+00  0.100000D+01
   f     1 1.00
  0.761000D+00  0.100000D+01
  
  3  0
   s    10 1.00
  0.823600D+04  0.531000D-03
  0.123500D+04  0.410800D-02
  0.280800D+03  0.210870D-01
  0.792700D+02  0.818530D-01
  0.255900D+02  0.234817D+00
  0.899700D+01  0.434401D+00
  0.331900D+01  0.346129D+00
  0.905900D+00  0.393780D-01
  0.364300D+00 -0.898300D-02
  0.128500D+00  0.238500D-02
   s    10 1.00
  0.823600D+04 -0.113000D-03
  0.123500D+04 -0.878000D-03
  0.280800D+03 -0.454000D-02
  0.792700D+02 -0.181330D-01
  0.255900D+02 -0.557600D-01
  0.899700D+01 -0.126895D+00
  0.331900D+01 -0.170352D+00
  0.905900D+00  0.140382D+00
  0.364300D+00  0.598684D+00
  0.128500D+00  0.395389D+00
   s     1 1.00
  0.905900D+00  0.100000D+01
   s     1 1.00
  0.364300D+00  0.100000D+01
   p     5 1.00
  0.187100D+02  0.140310D-01
  0.413300D+01  0.868660D-01
  0.120000D+01  0.290216D+00
  0.382700D+00  0.501008D+00
  0.120900D+00  0.343406D+00
   p     1 1.00
  0.382700D+00  0.100000D+01
   p     1 1.00
  0.120900D+00  0.100000D+01
   d     1 1.00
  0.109700D+01  0.100000D+01
   d     1 1.00
  0.318000D+00  0.100000D+01
   f     1 1.00
  0.761000D+00  0.100000D+01
  
  4  0
   s    10 1.00
  0.823600D+04  0.531000D-03
  0.123500D+04  0.410800D-02
  0.280800D+03  0.210870D-01
  0.792700D+02  0.818530D-01
  0.255900D+02  0.234817D+00
  0.899700D+01  0.434401D+00
  0.331900D+01  0.346129D+00
  0.905900D+00  0.393780D-01
  0.364300D+00 -0.898300D-02
  0.128500D+00  0.238500D-02
   s    10 1.00
  0.823600D+04 -0.113000D-03
  0.123500D+04 -0.878000D-03
  0.280800D+03 -0.454000D-02
  0.792700D+02 -0.181330D-01
  0.255900D+02 -0.557600D-01
  0.899700D+01 -0.126895D+00
  0.331900D+01 -0.170352D+00
  0.905900D+00  0.140382D+00
  0.364300D+00  0.598684D+00
  0.128500D+00  0.395389D+00
   s     1 1.00
  0.905900D+00  0.100000D+01
   s     1 1.00
  0.364300D+00  0.100000D+01
   p     5 1.00
  0.187100D+02  0.140310D-01
  0.413300D+01  0.868660D-01
  0.120000D+01  0.290216D+00
  0.382700D+00  0.501008D+00
  0.120900D+00  0.343406D+00
   p     1 1.00
  0.382700D+00  0.100000D+01
   p     1 1.00
  0.120900D+00  0.100000D+01
   d     1 1.00
  0.109700D+01  0.100000D+01
   d     1 1.00
  0.318000D+00  0.100000D+01
   f     1 1.00
  0.761000D+00  0.100000D+01
  
  5  0
   s    10 1.00
  0.823600D+04  0.531000D-03
  0.123500D+04  0.410800D-02
  0.280800D+03  0.210870D-01
  0.792700D+02  0.818530D-01
  0.255900D+02  0.234817D+00
  0.899700D+01  0.434401D+00
  0.331900D+01  0.346129D+00
  0.905900D+00  0.393780D-01
  0.364300D+00 -0.898300D-02
  0.128500D+00  0.238500D-02
   s    10 1.00
  0.823600D+04 -0.113000D-03
  0.123500D+04 -0.878000D-03
  0.280800D+03 -0.454000D-02
  0.792700D+02 -0.181330D-01
  0.255900D+02 -0.557600D-01
  0.899700D+01 -0.126895D+00
  0.331900D+01 -0.170352D+00
  0.905900D+00  0.140382D+00
  0.364300D+00  0.598684D+00
  0.128500D+00  0.395389D+00
   s     1 1.00
  0.905900D+00  0.100000D+01
   s     1 1.00
  0.364300D+00  0.100000D+01
   p     5 1.00
  0.187100D+02  0.140310D-01
  0.413300D+01  0.868660D-01
  0.120000D+01  0.290216D+00
  0.382700D+00  0.501008D+00
  0.120900D+00  0.343406D+00
   p     1 1.00
  0.382700D+00  0.100000D+01
   p     1 1.00
  0.120900D+00  0.100000D+01
   d     1 1.00
  0.109700D+01  0.100000D+01
   d     1 1.00
  0.318000D+00  0.100000D+01
   f     1 1.00
  0.761000D+00  0.100000D+01
  
  6  0
   s    10 1.00
  0.823600D+04  0.531000D-03
  0.123500D+04  0.410800D-02
  0.280800D+03  0.210870D-01
  0.792700D+02  0.818530D-01
  0.255900D+02  0.234817D+00
  0.899700D+01  0.434401D+00
  0.331900D+01  0.346129D+00
  0.905900D+00  0.393780D-01
  0.364300D+00 -0.898300D-02
  0.128500D+00  0.238500D-02
   s    10 1.00
  0.823600D+04 -0.113000D-03
  0.123500D+04 -0.878000D-03
  0.280800D+03 -0.454000D-02
  0.792700D+02 -0.181330D-01
  0.255900D+02 -0.557600D-01
  0.899700D+01 -0.126895D+00
  0.331900D+01 -0.170352D+00
  0.905900D+00  0.140382D+00
  0.364300D+00  0.598684D+00
  0.128500D+00  0.395389D+00
   s     1 1.00
  0.905900D+00  0.100000D+01
   s     1 1.00
  0.364300D+00  0.100000D+01
   p     5 1.00
  0.187100D+02  0.140310D-01
  0.413300D+01  0.868660D-01
  0.120000D+01  0.290216D+00
  0.382700D+00  0.501008D+00
  0.120900D+00  0.343406D+00
   p     1 1.00
  0.382700D+00  0.100000D+01
   p     1 1.00
  0.120900D+00  0.100000D+01
   d     1 1.00
  0.109700D+01  0.100000D+01
   d     1 1.00
  0.318000D+00  0.100000D+01
   f     1 1.00
  0.761000D+00  0.100000D+01
  
  7  0
   s    10 1.00
  0.823600D+04  0.531000D-03
  0.123500D+04  0.410800D-02
  0.280800D+03  0.210870D-01
  0.792700D+02  0.818530D-01
  0.255900D+02  0.234817D+00
  0.899700D+01  0.434401D+00
  0.331900D+01  0.346129D+00
  0.905900D+00  0.393780D-01
  0.364300D+00 -0.898300D-02
  0.128500D+00  0.238500D-02
   s    10 1.00
  0.823600D+04 -0.113000D-03
  0.123500D+04 -0.878000D-03
  0.280800D+03 -0.454000D-02
  0.792700D+02 -0.181330D-01
  0.255900D+02 -0.557600D-01
  0.899700D+01 -0.126895D+00
  0.331900D+01 -0.170352D+00
  0.905900D+00  0.140382D+00
  0.364300D+00  0.598684D+00
  0.128500D+00  0.395389D+00
   s     1 1.00
  0.905900D+00  0.100000D+01
   s     1 1.00
  0.364300D+00  0.100000D+01
   p     5 1.00
  0.187100D+02  0.140310D-01
  0.413300D+01  0.868660D-01
  0.120000D+01  0.290216D+00
  0.382700D+00  0.501008D+00
  0.120900D+00  0.343406D+00
   p     1 1.00
  0.382700D+00  0.100000D+01
   p     1 1.00
  0.120900D+00  0.100000D+01
   d     1 1.00
  0.109700D+01  0.100000D+01
   d     1 1.00
  0.318000D+00  0.100000D+01
   f     1 1.00
  0.761000D+00  0.100000D+01
  
  8  0
   s     4 1.00
  0.130100D+02  0.196850D-01
  0.196200D+01  0.137977D+00
  0.444600D+00  0.478148D+00
  0.122000D+00  0.501240D+00
   s     1 1.00
  0.122000D+00  0.100000D+01
   p     1 1.00
  0.727000D+00  0.100000D+01
  
  9  0
   s     4 1.00
  0.130100D+02  0.196850D-01
  0.196200D+01  0.137977D+00
  0.444600D+00  0.478148D+00
  0.122000D+00  0.501240D+00
   s     1 1.00
  0.122000D+00  0.100000D+01
   p     1 1.00
  0.727000D+00  0.100000D+01
  
 10  0
   s     4 1.00
  0.130100D+02  0.196850D-01
  0.196200D+01  0.137977D+00
  0.444600D+00  0.478148D+00
  0.122000D+00  0.501240D+00
   s     1 1.00
  0.122000D+00  0.100000D+01
   p     1 1.00
  0.727000D+00  0.100000D+01
  
 11  0
   s     4 1.00
  0.130100D+02  0.196850D-01
  0.196200D+01  0.137977D+00
  0.444600D+00  0.478148D+00
  0.122000D+00  0.501240D+00
   s     1 1.00
  0.122000D+00  0.100000D+01
   p     1 1.00
  0.727000D+00  0.100000D+01
  
 12  0
   s     4 1.00
  0.130100D+02  0.196850D-01
  0.196200D+01  0.137977D+00
  0.444600D+00  0.478148D+00
  0.122000D+00  0.501240D+00
   s     1 1.00
  0.122000D+00  0.100000D+01
   p     1 1.00
  0.727000D+00  0.100000D+01
  
 13  0
   s     4 1.00
  0.130100D+02  0.196850D-01
  0.196200D+01  0.137977D+00
  0.444600D+00  0.478148D+00
  0.122000D+00  0.501240D+00
   s     1 1.00
  0.122000D+00  0.100000D+01
   p     1 1.00
  0.727000D+00  0.100000D+01
  
 14  0
   s     4 1.00
  0.130100D+02  0.196850D-01
  0.196200D+01  0.137977D+00
  0.444600D+00  0.478148D+00
  0.122000D+00  0.501240D+00
   s     1 1.00
  0.122000D+00  0.100000D+01
   p     1 1.00
  0.727000D+00  0.100000D+01
  
[MO]
 Sym= __1_a__
 Ene=  0.000000000000000E+000
 Spin= Alpha
 Occup=    2.00000000000000     
                     1  4.219556444090150E-005
                     2  0.998413990800624     
                     3  3.318739080919790E-003
                     4  1.737674496424100E-003
                     5  4.127696996967130E-003
                     6  3.151974599028470E-003
                     7  6.256332150324810E-003
                     8  0.000000000000000E+000
                     9 -4.980744579408510E-004
                    10 -5.069816348787300E-004
                    11  0.000000000000000E+000
                    12 -1.877306813021660E-003
                    13 -1.265976985656900E-003
                    14  0.000000000000000E+000
                    15 -1.513318207543861E-004
                    16  0.000000000000000E+000
                    17  0.000000000000000E+000
                    18 -1.879414569356226E-004
                    19 -4.582729431891930E-005
                    20  2.371203007416596E-004
                    21  0.000000000000000E+000
                    22  0.000000000000000E+000
                    23 -4.219229004498800E-004
                    24  3.389973092176540E-004
                    25  0.000000000000000E+000
                    26 -2.013803468783357E-005
                    27 -6.881810952175099E-005
                    28  0.000000000000000E+000
                    29  0.000000000000000E+000
                    30  2.513038288710010E-005
                    31 -1.404545180112052E-004
                    32 -3.555467125907830E-004
                    33  1.788495112160770E-003
                    34  2.852542698614910E-004
                    35 -4.349264638568250E-004
                    36 -2.830786982346620E-004
                    37 -5.353206616232260E-003
                    38  0.000000000000000E+000
                    39  3.119136510813540E-004
                    40  4.997152643370950E-004
                    41  0.000000000000000E+000
                    42 -1.603748385849450E-003
                    43  5.258538321273520E-003
                    44  0.000000000000000E+000
                    45 -1.557094496457021E-005
                    46  0.000000000000000E+000
                    47  0.000000000000000E+000
                    48 -2.453504086994320E-004
                    49 -1.859376593692000E-005
                    50 -2.971868290285294E-004
                    51  0.000000000000000E+000
                    52  0.000000000000000E+000
                    53  1.296922370612866E-004
                    54  5.027547277565100E-004
                    55  0.000000000000000E+000
                    56 -1.093475246302964E-005
                    57 -4.947726776137748E-005
                    58  0.000000000000000E+000
                    59  0.000000000000000E+000
                    60  5.268105846647672E-005
                    61 -1.344145800779052E-004
                    62 -3.982004932614650E-004
                    63 -1.925492984352600E-003
                    64 -5.780259852933920E-005
                    65  1.612823032085150E-003
                    66 -6.539349845203500E-004
                    67  4.899906885571489E-004
                    68  0.000000000000000E+000
                    69  2.451316128557650E-004
                    70  8.337222064515550E-004
                    71  0.000000000000000E+000
                    72 -1.712785783983400E-003
                    73  7.020597579932420E-004
                    74  0.000000000000000E+000
                    75 -3.331241131992001E-005
                    76  0.000000000000000E+000
                    77  0.000000000000000E+000
                    78 -7.088884037155940E-005
                    79 -1.975602961219460E-005
                    80 -1.035708075786827E-004
                    81  0.000000000000000E+000
                    82  0.000000000000000E+000
                    83 -1.959558081838106E-005
                    84  1.158758529219420E-004
                    85  0.000000000000000E+000
                    86  1.256884567244379E-005
                    87 -4.908972336792181E-005
                    88  0.000000000000000E+000
                    89  0.000000000000000E+000
                    90 -3.575237907579379E-005
                    91 -1.352583461613986E-004
                    92 -1.929082947286680E-004
                    93 -1.355064745197770E-003
                    94  1.758959979541080E-004
                    95  2.023131301467480E-005
                    96  6.558982310574650E-004
                    97  7.766890044544920E-004
                    98  0.000000000000000E+000
                    99  2.861199687483190E-004
                   100  4.045257531118960E-004
                   101  0.000000000000000E+000
                   102  4.777336039816970E-004
                   103 -1.294120326244360E-003
                   104  0.000000000000000E+000
                   105 -3.744197761310792E-006
                   106  0.000000000000000E+000
                   107  0.000000000000000E+000
                   108 -8.661960769915480E-005
                   109 -1.133427591536020E-005
                   110  7.245656340269821E-005
                   111  0.000000000000000E+000
                   112  0.000000000000000E+000
                   113 -7.171582388064700E-005
                   114 -7.546898420774239E-005
                   115  0.000000000000000E+000
                   116 -2.546094363485865E-005
                   117 -2.915601949624074E-005
                   118  0.000000000000000E+000
                   119  0.000000000000000E+000
                   120 -1.396908586943893E-005
                   121 -4.555962443522072E-005
                   122 -2.382606888818140E-004
                   123 -4.504983491622280E-004
                   124  1.646166989410970E-004
                   125  2.439454894570490E-004
                   126 -8.426161253882250E-006
                   127 -5.593794216332130E-004
                   128  0.000000000000000E+000
                   129  1.670053454725840E-004
                   130  6.081338314307030E-004
                   131  0.000000000000000E+000
                   132  4.479327972477220E-004
                   133  1.753276354966470E-003
                   134  0.000000000000000E+000
                   135  1.546993370474269E-005
                   136  0.000000000000000E+000
                   137  0.000000000000000E+000
                   138  3.672937948980540E-005
                   139  3.867830522299950E-008
                   140  1.609309848213392E-004
                   141  0.000000000000000E+000
                   142  0.000000000000000E+000
                   143  3.374892844718260E-004
                   144  2.097613955298410E-004
                   145  0.000000000000000E+000
                   146 -9.501797335719941E-006
                   147 -5.348214757713366E-005
                   148  0.000000000000000E+000
                   149  0.000000000000000E+000
                   150 -5.112346855730137E-006
                   151 -3.979290911585996E-005
                   152 -1.711083477456420E-004
                   153 -2.014023134045450E-004
                   154  6.734945508837581E-005
                   155  2.924474911688230E-004
                   156 -2.736186880141940E-005
                   157 -5.448534661298040E-004
                   158  0.000000000000000E+000
                   159  2.693749941977580E-005
                   160  9.539849029190890E-005
                   161  0.000000000000000E+000
                   162  6.946158161446560E-004
                   163 -7.766917549567200E-005
                   164  0.000000000000000E+000
                   165  4.022189616082796E-007
                   166  0.000000000000000E+000
                   167  0.000000000000000E+000
                   168 -6.662478657715900E-007
                   169  2.827486356576740E-007
                   170  9.832081057736968E-005
                   171  0.000000000000000E+000
                   172  0.000000000000000E+000
                   173  4.532470996250060E-005
                   174 -5.580440013011290E-005
                   175  0.000000000000000E+000
                   176  1.092997235113131E-006
                   177 -1.474156376997977E-005
                   178  0.000000000000000E+000
                   179  0.000000000000000E+000
                   180 -8.118078963164264E-006
                   181 -2.222784069690939E-005
                   182 -1.623303962507680E-004
                   183 -4.662609859293670E-004
                   184  4.111907617174430E-005
                   185  2.344640325198780E-004
                   186 -3.754943956779680E-005
                   187 -4.683576961140210E-005
                   188  0.000000000000000E+000
                   189  2.056798443453640E-004
                   190  6.237752961522120E-005
                   191  0.000000000000000E+000
                   192  1.069915748271790E-003
                   193 -1.346801142267250E-004
                   194  0.000000000000000E+000
                   195 -8.236065280429356E-008
                   196  0.000000000000000E+000
                   197  0.000000000000000E+000
                   198 -1.309983248145190E-005
                   199  1.643310089928160E-006
                   200  1.656137172187651E-006
                   201  0.000000000000000E+000
                   202  0.000000000000000E+000
                   203 -7.920802521635819E-005
                   204 -1.559228584560640E-004
                   205  0.000000000000000E+000
                   206 -7.786605165072220E-006
                   207 -4.876314211363295E-006
                   208  0.000000000000000E+000
                   209  0.000000000000000E+000
                   210  3.006450182577942E-006
                   211 -8.379958616424497E-006
                   212  2.100694069691800E-004
                   213 -1.630986335336920E-004
                   214  2.289506143959910E-004
                   215  1.962772476940800E-004
                   216  0.000000000000000E+000
                   217  2.008077011027310E-003
                   218 -1.681164100495550E-003
                   219 -4.154138926507570E-004
                   220  2.626565068657090E-004
                   221  0.000000000000000E+000
                   222 -4.208773266758180E-004
                   223 -6.634602907477579E-004
                   224 -1.007951225876380E-005
                   225 -4.956459514442530E-005
                   226  0.000000000000000E+000
                   227 -3.653275708589090E-004
                   228 -3.735447978750940E-004
                   229 -1.096382717640730E-005
                   230 -3.344229764878570E-005
                   231  0.000000000000000E+000
                   232 -1.174364960686360E-004
                   233 -4.347408127028400E-004
                   234  3.997728767953260E-007
                   235  3.545693470397040E-006
                   236  0.000000000000000E+000
                   237 -1.644953429833860E-004
                   238 -4.429658527281500E-004
                   239  2.713471280024070E-006
                   240 -9.389093511348520E-007
                   241  0.000000000000000E+000
                   242  1.263064476531950E-005
                   243 -3.536492848206880E-005
                   244  9.445234228776040E-007
                   245  2.338112375327160E-005
                   246  0.000000000000000E+000
 Sym= __2_a__
 Ene=  0.000000000000000E+000
 Spin= Alpha
 Occup=    2.00000000000000     
                     1 -5.175555258247780E-005
                     2 -3.213753519834270E-004
                     3  2.612151502501160E-003
                     4  1.439550991027280E-004
                     5  1.407799857724280E-003
                     6 -2.584177417954130E-004
                     7  3.240750724658320E-003
                     8  0.000000000000000E+000
                     9 -8.523296493698660E-006
                    10 -9.041151727656380E-005
                    11  0.000000000000000E+000
                    12  9.842085773429869E-006
                    13 -5.112644148422840E-004
                    14  0.000000000000000E+000
                    15  4.054725322110033E-005
                    16  0.000000000000000E+000
                    17  0.000000000000000E+000
                    18 -5.794489214374340E-005
                    19  1.495954694760250E-005
                    20 -1.404080829626145E-004
                    21  0.000000000000000E+000
                    22  0.000000000000000E+000
                    23  2.393513500891540E-004
                    24 -1.173841082342290E-004
                    25  0.000000000000000E+000
                    26 -1.343272081427727E-005
                    27  9.740304992686736E-005
                    28  0.000000000000000E+000
                    29  0.000000000000000E+000
                    30 -5.391201648909837E-005
                    31  1.286486256088349E-004
                    32   1.00100706610236     
                    33  9.393605804451480E-003
                    34  2.692552311025900E-003
                    35 -7.927878812219831E-003
                    36 -3.545792468689180E-005
                    37 -3.737293007409410E-003
                    38  0.000000000000000E+000
                    39 -1.915582225710420E-004
                    40  3.359050987452560E-004
                    41  0.000000000000000E+000
                    42 -9.116351985179600E-005
                    43  4.372759769096750E-003
                    44  0.000000000000000E+000
                    45 -5.765772767637733E-004
                    46  0.000000000000000E+000
                    47  0.000000000000000E+000
                    48 -2.552003084119500E-004
                    49  4.731699934686900E-005
                    50  5.044736085086240E-004
                    51  0.000000000000000E+000
                    52  0.000000000000000E+000
                    53 -7.489326081784320E-004
                    54 -3.476359238041330E-004
                    55  0.000000000000000E+000
                    56  1.257627800913491E-005
                    57  1.054330181362706E-004
                    58  0.000000000000000E+000
                    59  0.000000000000000E+000
                    60 -3.537123802827684E-005
                    61  4.154522360975044E-004
                    62  7.927427491131289E-003
                    63 -2.079561865922920E-003
                    64 -2.341194102941500E-004
                    65  2.723294923339560E-003
                    66  1.319948736126290E-005
                    67  4.881611952136050E-005
                    68  0.000000000000000E+000
                    69  5.410942724087390E-004
                    70  1.182948039281250E-004
                    71  0.000000000000000E+000
                    72 -2.177362456220730E-003
                    73  2.532445625965600E-004
                    74  0.000000000000000E+000
                    75  3.334808284104934E-005
                    76  0.000000000000000E+000
                    77  0.000000000000000E+000
                    78 -5.477240157232360E-006
                    79  1.443738842890780E-006
                    80 -3.976948392832788E-004
                    81  0.000000000000000E+000
                    82  0.000000000000000E+000
                    83 -6.252917953278580E-004
                    84 -2.705457954515190E-004
                    85  0.000000000000000E+000
                    86  2.770707566010813E-005
                    87 -5.623352247606399E-005
                    88  0.000000000000000E+000
                    89  0.000000000000000E+000
                    90  5.066963766808976E-005
                    91  1.524543707095705E-004
                    92  9.137857781149309E-003
                    93 -2.128848712340830E-003
                    94 -3.111037789813580E-004
                    95  3.199110135433290E-003
                    96  6.943106442960260E-005
                    97  4.513557441612530E-005
                    98  0.000000000000000E+000
                    99 -9.128533564485820E-004
                   100  2.289684946069700E-005
                   101  0.000000000000000E+000
                   102  1.883420294939140E-003
                   103  3.652330400931490E-005
                   104  0.000000000000000E+000
                   105  2.208818894094636E-005
                   106  0.000000000000000E+000
                   107  0.000000000000000E+000
                   108 -1.801211994799632E-006
                   109  1.013971298472900E-005
                   110 -4.163147864604804E-004
                   111  0.000000000000000E+000
                   112  0.000000000000000E+000
                   113 -4.155220394993200E-004
                   114  2.887661187946760E-004
                   115  0.000000000000000E+000
                   116 -2.661466864125190E-005
                   117 -6.780160716783788E-005
                   118  0.000000000000000E+000
                   119  0.000000000000000E+000
                   120 -1.632141833442883E-005
                   121  1.381178010955653E-004
                   122 -2.276810124732630E-004
                   123 -7.256187596410520E-004
                   124  2.226707558747850E-004
                   125 -6.827738643414530E-005
                   126  5.234308343616480E-006
                   127 -3.251637424487010E-004
                   128  0.000000000000000E+000
                   129 -8.212647706980730E-005
                   130  5.629864830954820E-004
                   131  0.000000000000000E+000
                   132  3.679632139802640E-004
                   133  9.146146958558210E-004
                   134  0.000000000000000E+000
                   135  1.596725080685129E-005
                   136  0.000000000000000E+000
                   137  0.000000000000000E+000
                   138  1.999443823992950E-006
                   139  4.550790887539200E-005
                   140  1.333274786299429E-004
                   141  0.000000000000000E+000
                   142  0.000000000000000E+000
                   143  2.439448721944140E-004
                   144 -1.198368443460130E-004
                   145  0.000000000000000E+000
                   146  1.011041334065745E-005
                   147 -3.645083622107580E-005
                   148  0.000000000000000E+000
                   149  0.000000000000000E+000
                   150 -4.846500642649716E-005
                   151  3.707747842688818E-005
                   152 -1.618899991569780E-004
                   153 -7.055889737521890E-004
                   154  2.308269720433370E-004
                   155 -3.063202774422920E-005
                   156 -2.445292260668950E-005
                   157 -3.327703581230840E-004
                   158  0.000000000000000E+000
                   159  1.208141278742350E-004
                   160  5.350200113646970E-004