[Molden Format]
[Atoms] AU
  N     1    7    -0.0581745200   -4.3160820000    0.0000000000        
  C     2    6     0.0253857300   -1.7936388000    0.0000000000        
  C     3    6    -2.3067143600   -0.4249322300    0.0000000000        
  C     4    6     2.3395150300   -0.3996022600    0.0000000000        
  C     5    6    -2.2857824100    2.1551936600    0.0000000000        
  C     6    6     2.2956295000    2.1811247200    0.0000000000        
  C     7    6    -0.0032377900    3.4856373000    0.0000000000        
  H     8    1    -2.1878995700   -5.5752382700    0.0000000000        
  H     9    1     1.6452486900   -5.2850204700    0.0000000000        
  H    10    1    -4.0320402000   -1.4724688700    0.0000000000        
  H    11    1     4.0903748800   -1.4131996500    0.0000000000        
  H    12    1    -4.0386796900    3.1742484900    0.0000000000        
  H    13    1     4.0360678000    3.2204434200    0.0000000000        
  H    14    1    -0.0130828700    5.5127602000    0.0000000000        
[5D]
[7F]
[GTO]
  1  0
   s    12 1.00
  0.114200D+05  0.172695D-04
  0.171200D+04  0.134411D-03
  0.389300D+03  0.694561D-03
  0.110000D+03  0.278531D-02
  0.355700D+02  0.863457D-02
  0.125400D+02  0.199805D-01
  0.464400D+01  0.262908D-01
  0.129300D+01 -0.243845D-01
  0.511800D+00 -0.924934D-01
  0.178700D+00 -0.339683D+00
  0.246240D-01  0.345111D+00
  0.112530D-01  0.752750D+00
   s    10 1.00
  0.114200D+05  0.523000D-03
  0.171200D+04  0.404500D-02
  0.389300D+03  0.207750D-01
  0.110000D+03  0.807269D-01
  0.355700D+02  0.233074D+00
  0.125400D+02  0.433501D+00
  0.464400D+01  0.347472D+00
  0.129300D+01  0.412620D-01
  0.511800D+00 -0.850799D-02
  0.178700D+00  0.238400D-02
   s    10 1.00
  0.114200D+05 -0.115000D-03
  0.171200D+04 -0.895000D-03
  0.389300D+03 -0.462400D-02
  0.110000D+03 -0.185280D-01
  0.355700D+02 -0.573390D-01
  0.125400D+02 -0.132076D+00
  0.464400D+01 -0.172510D+00
  0.129300D+01  0.151814D+00
  0.511800D+00  0.599944D+00
  0.178700D+00  0.387462D+00
   s     1 1.00
  0.129300D+01  0.100000D+01
   s     1 1.00
  0.178700D+00  0.100000D+01
   p     5 1.00
  0.266300D+02  0.146700D-01
  0.594800D+01  0.917640D-01
  0.174200D+01  0.298683D+00
  0.555000D+00  0.498487D+00
  0.172500D+00  0.337023D+00
   p     1 1.00
  0.174200D+01  0.100000D+01
   p     1 1.00
  0.555000D+00  0.100000D+01
   d     1 1.00
  0.165400D+01  0.100000D+01
   d     1 1.00
  0.469000D+00  0.100000D+01
   f     1 1.00
  0.109300D+01  0.100000D+01
  
  2  0
   s    10 1.00
  0.823600D+04  0.531000D-03
  0.123500D+04  0.410800D-02
  0.280800D+03  0.210870D-01
  0.792700D+02  0.818530D-01
  0.255900D+02  0.234817D+00
  0.899700D+01  0.434401D+00
  0.331900D+01  0.346129D+00
  0.905900D+00  0.393780D-01
  0.364300D+00 -0.898300D-02
  0.128500D+00  0.238500D-02
   s    10 1.00
  0.823600D+04 -0.113000D-03
  0.123500D+04 -0.878000D-03
  0.280800D+03 -0.454000D-02
  0.792700D+02 -0.181330D-01
  0.255900D+02 -0.557600D-01
  0.899700D+01 -0.126895D+00
  0.331900D+01 -0.170352D+00
  0.905900D+00  0.140382D+00
  0.364300D+00  0.598684D+00
  0.128500D+00  0.395389D+00
   s     1 1.00
  0.905900D+00  0.100000D+01
   s     1 1.00
  0.364300D+00  0.100000D+01
   p     5 1.00
  0.187100D+02  0.140310D-01
  0.413300D+01  0.868660D-01
  0.120000D+01  0.290216D+00
  0.382700D+00  0.501008D+00
  0.120900D+00  0.343406D+00
   p     1 1.00
  0.382700D+00  0.100000D+01
   p     1 1.00
  0.120900D+00  0.100000D+01
   d     1 1.00
  0.109700D+01  0.100000D+01
   d     1 1.00
  0.318000D+00  0.100000D+01
   f     1 1.00
  0.761000D+00  0.100000D+01
  
  3  0
   s    10 1.00
  0.823600D+04  0.531000D-03
  0.123500D+04  0.410800D-02
  0.280800D+03  0.210870D-01
  0.792700D+02  0.818530D-01
  0.255900D+02  0.234817D+00
  0.899700D+01  0.434401D+00
  0.331900D+01  0.346129D+00
  0.905900D+00  0.393780D-01
  0.364300D+00 -0.898300D-02
  0.128500D+00  0.238500D-02
   s    10 1.00
  0.823600D+04 -0.113000D-03
  0.123500D+04 -0.878000D-03
  0.280800D+03 -0.454000D-02
  0.792700D+02 -0.181330D-01
  0.255900D+02 -0.557600D-01
  0.899700D+01 -0.126895D+00
  0.331900D+01 -0.170352D+00
  0.905900D+00  0.140382D+00
  0.364300D+00  0.598684D+00
  0.128500D+00  0.395389D+00
   s     1 1.00
  0.905900D+00  0.100000D+01
   s     1 1.00
  0.364300D+00  0.100000D+01
   p     5 1.00
  0.187100D+02  0.140310D-01
  0.413300D+01  0.868660D-01
  0.120000D+01  0.290216D+00
  0.382700D+00  0.501008D+00
  0.120900D+00  0.343406D+00
   p     1 1.00
  0.382700D+00  0.100000D+01
   p     1 1.00
  0.120900D+00  0.100000D+01
   d     1 1.00
  0.109700D+01  0.100000D+01
   d     1 1.00
  0.318000D+00  0.100000D+01
   f     1 1.00
  0.761000D+00  0.100000D+01
  
  4  0
   s    10 1.00
  0.823600D+04  0.531000D-03
  0.123500D+04  0.410800D-02
  0.280800D+03  0.210870D-01
  0.792700D+02  0.818530D-01
  0.255900D+02  0.234817D+00
  0.899700D+01  0.434401D+00
  0.331900D+01  0.346129D+00
  0.905900D+00  0.393780D-01
  0.364300D+00 -0.898300D-02
  0.128500D+00  0.238500D-02
   s    10 1.00
  0.823600D+04 -0.113000D-03
  0.123500D+04 -0.878000D-03
  0.280800D+03 -0.454000D-02
  0.792700D+02 -0.181330D-01
  0.255900D+02 -0.557600D-01
  0.899700D+01 -0.126895D+00
  0.331900D+01 -0.170352D+00
  0.905900D+00  0.140382D+00
  0.364300D+00  0.598684D+00
  0.128500D+00  0.395389D+00
   s     1 1.00
  0.905900D+00  0.100000D+01
   s     1 1.00
  0.364300D+00  0.100000D+01
   p     5 1.00
  0.187100D+02  0.140310D-01
  0.413300D+01  0.868660D-01
  0.120000D+01  0.290216D+00
  0.382700D+00  0.501008D+00
  0.120900D+00  0.343406D+00
   p     1 1.00
  0.382700D+00  0.100000D+01
   p     1 1.00
  0.120900D+00  0.100000D+01
   d     1 1.00
  0.109700D+01  0.100000D+01
   d     1 1.00
  0.318000D+00  0.100000D+01
   f     1 1.00
  0.761000D+00  0.100000D+01
  
  5  0
   s    10 1.00
  0.823600D+04  0.531000D-03
  0.123500D+04  0.410800D-02
  0.280800D+03  0.210870D-01
  0.792700D+02  0.818530D-01
  0.255900D+02  0.234817D+00
  0.899700D+01  0.434401D+00
  0.331900D+01  0.346129D+00
  0.905900D+00  0.393780D-01
  0.364300D+00 -0.898300D-02
  0.128500D+00  0.238500D-02
   s    10 1.00
  0.823600D+04 -0.113000D-03
  0.123500D+04 -0.878000D-03
  0.280800D+03 -0.454000D-02
  0.792700D+02 -0.181330D-01
  0.255900D+02 -0.557600D-01
  0.899700D+01 -0.126895D+00
  0.331900D+01 -0.170352D+00
  0.905900D+00  0.140382D+00
  0.364300D+00  0.598684D+00
  0.128500D+00  0.395389D+00
   s     1 1.00
  0.905900D+00  0.100000D+01
   s     1 1.00
  0.364300D+00  0.100000D+01
   p     5 1.00
  0.187100D+02  0.140310D-01
  0.413300D+01  0.868660D-01
  0.120000D+01  0.290216D+00
  0.382700D+00  0.501008D+00
  0.120900D+00  0.343406D+00
   p     1 1.00
  0.382700D+00  0.100000D+01
   p     1 1.00
  0.120900D+00  0.100000D+01
   d     1 1.00
  0.109700D+01  0.100000D+01
   d     1 1.00
  0.318000D+00  0.100000D+01
   f     1 1.00
  0.761000D+00  0.100000D+01
  
  6  0
   s    10 1.00
  0.823600D+04  0.531000D-03
  0.123500D+04  0.410800D-02
  0.280800D+03  0.210870D-01
  0.792700D+02  0.818530D-01
  0.255900D+02  0.234817D+00
  0.899700D+01  0.434401D+00
  0.331900D+01  0.346129D+00
  0.905900D+00  0.393780D-01
  0.364300D+00 -0.898300D-02
  0.128500D+00  0.238500D-02
   s    10 1.00
  0.823600D+04 -0.113000D-03
  0.123500D+04 -0.878000D-03
  0.280800D+03 -0.454000D-02
  0.792700D+02 -0.181330D-01
  0.255900D+02 -0.557600D-01
  0.899700D+01 -0.126895D+00
  0.331900D+01 -0.170352D+00
  0.905900D+00  0.140382D+00
  0.364300D+00  0.598684D+00
  0.128500D+00  0.395389D+00
   s     1 1.00
  0.905900D+00  0.100000D+01
   s     1 1.00
  0.364300D+00  0.100000D+01
   p     5 1.00
  0.187100D+02  0.140310D-01
  0.413300D+01  0.868660D-01
  0.120000D+01  0.290216D+00
  0.382700D+00  0.501008D+00
  0.120900D+00  0.343406D+00
   p     1 1.00
  0.382700D+00  0.100000D+01
   p     1 1.00
  0.120900D+00  0.100000D+01
   d     1 1.00
  0.109700D+01  0.100000D+01
   d     1 1.00
  0.318000D+00  0.100000D+01
   f     1 1.00
  0.761000D+00  0.100000D+01
  
  7  0
   s    10 1.00
  0.823600D+04  0.531000D-03
  0.123500D+04  0.410800D-02
  0.280800D+03  0.210870D-01
  0.792700D+02  0.818530D-01
  0.255900D+02  0.234817D+00
  0.899700D+01  0.434401D+00
  0.331900D+01  0.346129D+00
  0.905900D+00  0.393780D-01
  0.364300D+00 -0.898300D-02
  0.128500D+00  0.238500D-02
   s    10 1.00
  0.823600D+04 -0.113000D-03
  0.123500D+04 -0.878000D-03
  0.280800D+03 -0.454000D-02
  0.792700D+02 -0.181330D-01
  0.255900D+02 -0.557600D-01
  0.899700D+01 -0.126895D+00
  0.331900D+01 -0.170352D+00
  0.905900D+00  0.140382D+00
  0.364300D+00  0.598684D+00
  0.128500D+00  0.395389D+00
   s     1 1.00
  0.905900D+00  0.100000D+01
   s     1 1.00
  0.364300D+00  0.100000D+01
   p     5 1.00
  0.187100D+02  0.140310D-01
  0.413300D+01  0.868660D-01
  0.120000D+01  0.290216D+00
  0.382700D+00  0.501008D+00
  0.120900D+00  0.343406D+00
   p     1 1.00
  0.382700D+00  0.100000D+01
   p     1 1.00
  0.120900D+00  0.100000D+01
   d     1 1.00
  0.109700D+01  0.100000D+01
   d     1 1.00
  0.318000D+00  0.100000D+01
   f     1 1.00
  0.761000D+00  0.100000D+01
  
  8  0
   s     4 1.00
  0.130100D+02  0.196850D-01
  0.196200D+01  0.137977D+00
  0.444600D+00  0.478148D+00
  0.122000D+00  0.501240D+00
   s     1 1.00
  0.122000D+00  0.100000D+01
   p     1 1.00
  0.727000D+00  0.100000D+01
  
  9  0
   s     4 1.00
  0.130100D+02  0.196850D-01
  0.196200D+01  0.137977D+00
  0.444600D+00  0.478148D+00
  0.122000D+00  0.501240D+00
   s     1 1.00
  0.122000D+00  0.100000D+01
   p     1 1.00
  0.727000D+00  0.100000D+01
  
 10  0
   s     4 1.00
  0.130100D+02  0.196850D-01
  0.196200D+01  0.137977D+00
  0.444600D+00  0.478148D+00
  0.122000D+00  0.501240D+00
   s     1 1.00
  0.122000D+00  0.100000D+01
   p     1 1.00
  0.727000D+00  0.100000D+01
  
 11  0
   s     4 1.00
  0.130100D+02  0.196850D-01
  0.196200D+01  0.137977D+00
  0.444600D+00  0.478148D+00
  0.122000D+00  0.501240D+00
   s     1 1.00
  0.122000D+00  0.100000D+01
   p     1 1.00
  0.727000D+00  0.100000D+01
  
 12  0
   s     4 1.00
  0.130100D+02  0.196850D-01
  0.196200D+01  0.137977D+00
  0.444600D+00  0.478148D+00
  0.122000D+00  0.501240D+00
   s     1 1.00
  0.122000D+00  0.100000D+01
   p     1 1.00
  0.727000D+00  0.100000D+01
  
 13  0
   s     4 1.00
  0.130100D+02  0.196850D-01
  0.196200D+01  0.137977D+00
  0.444600D+00  0.478148D+00
  0.122000D+00  0.501240D+00
   s     1 1.00
  0.122000D+00  0.100000D+01
   p     1 1.00
  0.727000D+00  0.100000D+01
  
 14  0
   s     4 1.00
  0.130100D+02  0.196850D-01
  0.196200D+01  0.137977D+00
  0.444600D+00  0.478148D+00
  0.122000D+00  0.501240D+00
   s     1 1.00
  0.122000D+00  0.100000D+01
   p     1 1.00
  0.727000D+00  0.100000D+01
  
[MO]
 Sym= __1_A__
 Ene=  0.000000000000000E+000
 Spin= Alpha
 Occup=    2.00000000000000     
                     1 -2.053920913612276E-005
                     2  0.998493037606511     
                     3  7.092712910403573E-004
                     4  1.812578514017950E-003
                     5  3.172661300744495E-003
                     6  1.221978429625165E-003
                     7  3.832287129455547E-003
                     8  1.407766073250688E-012
                     9 -8.486755695021423E-005
                    10 -8.638818143637543E-005
                    11 -2.537019813129845E-012
                    12 -6.748399087745723E-004
                    13 -6.685597399426501E-004
                    14 -3.656494614917781E-012
                    15 -1.089233839059696E-004
                    16 -1.163071733236550E-012
                    17  3.201254644566078E-012
                    18 -1.695684929948159E-004
                    19 -4.607862595199697E-005
                    20  3.715372481049810E-004
                    21 -1.227091429884642E-012
                    22  1.296443413764666E-012
                    23 -1.661376078959756E-004
                    24  1.008251511863693E-004
                    25  3.568171259845185E-012
                    26 -1.383817278521909E-005
                    27 -3.295532321903664E-005
                    28  2.193479388041238E-012
                    29 -4.918027807972191E-013
                    30  1.061610297364026E-005
                    31 -8.602827765608487E-005
                    32 -1.741205738260776E-004
                    33  1.172854936282799E-003
                    34  1.000142507007208E-004
                    35  5.241648430717901E-007
                    36 -9.319833273404500E-005
                    37 -3.575680549709016E-003
                    38 -1.044984145307413E-011
                    39  4.547690740945797E-005
                    40 -2.572851134601989E-004
                    41  2.824788865702640E-012
                    42 -4.729581523795160E-004
                    43  3.792278619652099E-003
                    44  1.113079308748406E-011
                    45 -2.474654260555561E-005
                    46  4.644445150770197E-012
                    47  1.260631545890881E-012
                    48 -2.232400026176944E-004
                    49 -6.188024571193504E-006
                    50 -3.148702531230567E-004
                    51 -1.450588676152202E-011
                    52  6.522584186509696E-012
                    53 -8.293894240712988E-005
                    54  1.429179797186295E-004
                    55  6.656843141084489E-014
                    56 -2.735363064121998E-006
                    57 -2.272325895517906E-005
                    58  9.016276638050172E-013
                    59  3.977086414788530E-012
                    60  3.739593515419550E-005
                    61 -1.242809884181879E-004
                    62 -2.228118535269227E-004
                    63 -1.138348530070404E-003
                    64 -3.305434679604426E-005
                    65  9.231049187878346E-004
                    66 -4.389757425899926E-004
                    67  3.302963684766462E-004
                    68  1.204017028025554E-012
                    69  8.056448672330243E-005
                    70  6.037303427814022E-004
                    71 -8.871047907459560E-012
                    72 -9.130693552200529E-004
                    73  4.069613108498169E-005
                    74 -1.349042566323096E-011
                    75 -2.425696342747738E-005
                    76  3.685015030279506E-012
                    77  3.927405113019496E-013
                    78 -4.534825165996016E-005
                    79 -6.969632122384845E-006
                    80 -5.886263567310513E-005
                    81 -7.647676496255459E-012
                    82  6.044207463186912E-012
                    83 -3.386116410033584E-005
                    84  2.231688356778267E-005
                    85  1.116507544341707E-012
                    86  1.351192323749412E-005
                    87 -4.299756145481487E-005
                    88  4.225967008645288E-012
                    89 -8.229842150876893E-013
                    90 -4.806114085044565E-005
                    91 -1.060913079644701E-004
                    92 -1.838988693161128E-004
                    93 -1.064979756303791E-003
                    94  5.415207389804435E-005
                    95  4.496485178522749E-004
                    96  4.430786317621924E-004
                    97  4.633763571484213E-004
                    98 -2.049479786161142E-013
                    99  5.063096998858274E-005
                   100  3.764244050790917E-004
                   101 -2.870248686365961E-012
                   102  4.180062305552500E-004
                   103 -6.402650810867325E-004
                   104 -1.236824273892740E-012
                   105 -1.635944424259870E-005
                   106  3.790790983497639E-012
                   107 -2.988272654762831E-012
                   108 -6.363073126054117E-005
                   109  3.671275084664361E-006
                   110 -2.084901198068147E-006
                   111  5.578212490541288E-012
                   112 -8.991059578534281E-012
                   113  1.298529736085482E-005
                   114  2.103372012108178E-006
                   115 -5.058161271096158E-012
                   116 -1.670552521061315E-005
                   117 -3.015780515050754E-005
                   118 -1.559223307959428E-013
                   119 -9.618010025499399E-013
                   120  7.894506926553175E-006
                   121 -7.894251548203410E-005
                   122 -1.386093310974000E-004
                   123 -2.289086424199868E-004
                   124  1.199643103376882E-004
                   125  7.276444109093701E-005
                   126  9.959267986982419E-008
                   127 -3.889665940716899E-004
                   128 -3.394182946681714E-012
                   129  1.367940770308410E-004
                   130  4.375690347845519E-004
                   131  3.480512111963712E-012
                   132  5.090666381500392E-005
                   133  8.812421743225438E-004
                   134  3.402378957833059E-012
                   135  1.280386423813711E-005
                   136  7.082616186839741E-013
                   137 -2.262331507658333E-012
                   138  2.995005195980830E-005
                   139 -6.038792768613065E-006
                   140  1.218007994812423E-004
                   141  6.956078567660983E-012
                   142  2.278953167701279E-013
                   143  2.128388884617064E-004
                   144  1.193755095912646E-004
                   145 -1.276917060577320E-013
                   146 -9.388121174870967E-006
                   147 -3.829823526140625E-005
                   148 -1.499758418618001E-012
                   149  3.411563122042938E-012
                   150  1.255328029542012E-005
                   151 -3.276799865460091E-005
                   152 -1.227404491773121E-004
                   153 -1.628444323689083E-004
                   154  7.779855501687319E-005
                   155  1.757991093524269E-004
                   156 -1.268142533835051E-005
                   157 -3.822641820676906E-004
                   158 -9.574616214437054E-012
                   159 -5.994002932004123E-005
                   160  1.899668168216110E-004
                   161  1.932603673885283E-011
                   162  4.079209791316868E-004
                   163  3.137617701649606E-004
                   164 -9.671756488087972E-016
                   165  3.973600778177336E-006
                   166 -1.498086707345968E-012
                   167  1.153755517534257E-012
                   168  1.533546226920490E-005
                   169  5.911144312458049E-006
                   170  1.133473275195722E-004
                   171 -2.196642248290500E-012
                   172 -2.574100444397165E-012
                   173  9.229204467126714E-005
                   174 -7.921277951562658E-005
                   175  8.391468704486714E-012
                   176  4.434658013895907E-006
                   177 -2.460312559306526E-005
                   178 -6.251575424266076E-013
                   179  2.685857204096507E-012
                   180 -7.021578203365616E-006
                   181 -2.902962150177768E-005
                   182 -8.894965157781253E-005
                   183 -2.426238927123969E-004
                   184  3.011654376377471E-005
                   185  1.100001681016525E-004
                   186 -1.826017537077370E-005
                   187 -4.029133692521868E-005
                   188  4.628719209019809E-012
                   189  8.715448921954366E-005
                   190  4.380519052868147E-005
                   191 -1.264991377949801E-011
                   192  3.454118660039234E-004
                   193 -6.227188738347246E-005
                   194  3.406705360735762E-012
                   195 -2.115576903171264E-006
                   196  4.096900343896360E-012
                   197  1.778037936593180E-012
                   198 -1.363014754679607E-005
                   199 -2.896843957254801E-007
                   200  2.268868455462972E-005
                   201 -5.547026607128281E-012
                   202  4.271254362261281E-012
                   203 -6.066819452152344E-005
                   204 -5.728619640789135E-005
                   205 -2.907365760016414E-012
                   206 -3.850209907885994E-006
                   207 -4.884593391484567E-006
                   208 -2.141222846236454E-013
                   209  1.635543407647924E-012
                   210 -2.290714931448977E-006
                   211 -2.070850523692948E-006
                   212  1.677298834895562E-007
                   213 -3.819231546106240E-004
                   214  2.355406602044156E-004
                   215  1.895738593808411E-004
                   216 -6.627376207662709E-013
                   217  1.370332391198173E-003
                   218 -1.263865400712234E-003
                   219 -2.862570885581813E-004
                   220  2.178720834517864E-004
                   221  1.461485219313273E-012
                   222 -2.580078599193801E-004
                   223 -4.006237306504785E-004
                   224 -7.822328449628642E-006
                   225 -2.659760604262878E-005
                   226  2.048512628121339E-012
                   227 -2.799042904655882E-004
                   228 -2.230946622327305E-004
                   229 -8.313371297555928E-006
                   230 -3.771629384468700E-005
                   231 -5.152970435669860E-012
                   232 -7.792841774715280E-005
                   233 -3.271294939480913E-004
                   234  6.197391065701292E-006
                   235  6.595591872435009E-007
                   236 -1.442924490006999E-012
                   237 -7.235249936978683E-005
                   238 -3.839012833865471E-004
                   239 -6.461703261272662E-006
                   240 -5.416929997780161E-006
                   241 -4.634415332189300E-012
                   242  2.029047750149692E-005
                   243 -4.750035128109986E-005
                   244  1.619424301400777E-006
                   245  1.242275743975334E-005
                   246 -2.341082364199520E-012
 Sym= __2_A__
 Ene=  0.000000000000000E+000
 Spin= Alpha
 Occup=    2.00000000000000     
                     1 -5.484675972493479E-005
                     2 -2.496227457806285E-004
                     3  2.487586126629351E-003
                     4  1.040247731094872E-004
                     5  1.289175828504212E-003
                     6 -8.085368385089906E-005
                     7  2.734559283189472E-003
                     8 -3.777202479245148E-012
                     9 -1.313330757124778E-005
                    10 -9.415769594187569E-005
                    11 -2.849698464978738E-012
                    12 -4.942192620104357E-007
                    13 -3.917606614458580E-004
                    14  2.436573908188410E-012
                    15  3.225566303090656E-005
                    16 -3.350711837564858E-012
                    17 -4.462914993657137E-013
                    18 -6.454398152439631E-005
                    19  3.621653261237666E-006
                    20 -1.295708972130653E-004
                    21  1.297760704155877E-012
                    22  1.741430032352023E-013
                    23  3.008731358035442E-004
                    24 -7.481841134777941E-005
                    25  2.622167894653234E-012
                    26 -9.693126796570917E-006
                    27  1.214037988794221E-004
                    28  2.623310800644032E-012
                    29 -4.067459181571218E-012
                    30 -4.830406403453018E-005
                    31  1.684688391080962E-004
                    32   1.00104257260291     
                    33  9.049276032001558E-003
                    34  2.671183146648628E-003
                    35 -7.741511883167439E-003
                    36  2.079153335637044E-005
                    37 -4.275283481978592E-003
                    38  7.322890300462912E-012
                    39 -1.849256954733306E-004
                    40  1.423568106725964E-003
                    41 -7.552781418758327E-012
                    42 -8.151394693848049E-005
                    43  4.369944162454569E-003
                    44 -3.040479802683410E-012
                    45 -5.893552905710842E-004
                    46  4.464202967096727E-012
                    47 -1.347461542887541E-013
                    48 -1.959287635082534E-004
                    49  3.065793589996742E-005
                    50  5.397404827001192E-004
                    51 -4.547973433907849E-012
                    52  9.429341076356950E-013
                    53 -7.397777413239178E-004
                    54 -2.604264594713388E-004
                    55 -2.888820796893124E-012
                    56  1.017785521240325E-005
                    57  5.698162117998515E-005
                    58 -7.904809971131450E-013
                    59 -2.915227470217156E-012
                    60 -2.632811149965814E-005
                    61  4.198919971065893E-004
                    62  7.087137792738983E-003
                    63 -2.021507602299774E-003
                    64 -2.288455259712524E-004
                    65  2.748615875087095E-003
                    66  1.173300773683754E-004
                    67  9.048289578467602E-006
                    68 -3.913392283010431E-012
                    69  3.902616314607678E-004
                    70  1.439074045059515E-004
                    71  1.969116061623721E-012
                    72 -2.111420233173045E-003
                    73  2.315440053897465E-004
                    74  1.899696331535777E-012
                    75  4.451176562241029E-005
                    76 -1.485483139633794E-012
                    77 -1.035444549892208E-012
                    78 -5.924023429613870E-006
                    79  2.587568140230263E-005
                    80 -3.886810960779550E-004
                    81  7.080939465719832E-013
                    82  3.357954170618972E-012
                    83 -7.321231556152748E-004
                    84 -3.533626966631128E-004
                    85  3.151352312770068E-012
                    86  3.829987335681521E-005
                    87 -5.371741282682263E-005
                    88 -5.989024619259660E-012
                    89 -4.412493819266181E-012
                    90  5.665265342178528E-005
                    91  1.404818314544502E-004
                    92  7.714024118514654E-003
                    93 -2.074430549215201E-003
                    94 -2.906182452693419E-004
                    95  3.132732165302654E-003
                    96 -6.033507608903553E-005
                    97 -4.152698696824784E-007
                    98  3.490027146173302E-012
                    99 -6.825769537325793E-004
                   100  7.635712026647222E-005
                   101 -4.748041857926746E-012
                   102  1.892371805652990E-003
                   103  7.786617532585743E-005
                   104  1.177431872773261E-012
                   105  3.523552984222358E-005
                   106 -3.152656337499409E-012
                   107 -8.231753671567165E-014
                   108 -2.769726380509742E-006
                   109 -1.602877919810769E-005
                   110 -4.045623168265435E-004
                   111  1.981149765581516E-012
                   112 -8.321728422282843E-012
                   113 -5.722880735549552E-004
                   114  3.638563519770021E-004
                   115 -3.291908212958219E-012
                   116 -3.687314716015954E-005
                   117 -6.170373665906009E-005
                   118  3.628981435288266E-012
                   119 -4.391513433950835E-013
                   120 -3.409086248936087E-005
                   121  1.296160435295223E-004
                   122 -2.520628685999986E-004
                   123 -7.544445319137731E-004
                   124  2.284330076632456E-004
                   125 -1.649959140886991E-004
                   126 -2.203899290538598E-005
                   127 -2.747902209080749E-004
                   128 -2.418637606509071E-012
                   129 -5.197848702449372E-006
                   130  5.745693930820141E-004
                   131 -7.013829652508459E-013
                   132  4.007676667876984E-004
                   133  7.922682045545218E-004
                   134  4.015093026939756E-013
                   135  2.084835713296054E-005
                   136 -1.875577964021006E-013
                   137  5.180386881741250E-012
                   138  3.832395431541764E-006
                   139  4.973877634753483E-005
                   140  1.215562997115560E-004
                   141  3.326990491988413E-013
                   142 -7.292129858384670E-013
                   143  2.798877522507104E-004
                   144 -2.161949542499004E-004
                   145  2.550914359039278E-012
                   146  3.979918359656511E-006
                   147 -2.743908229382578E-005
                   148  2.727200670111978E-012
                   149 -4.512535436086068E-012
                   150 -3.679820470782959E-005
                   151  2.583616458852170E-005
                   152 -2.290634964398162E-004
                   153 -7.394775582368245E-004
                   154  2.361506480630316E-004
                   155 -1.405349058895269E-004
                   156  7.734767099815874E-006
                   157 -2.785900947747205E-004
                   158 -1.264608189231006E-011
                   159  3.887464456855729E-005
                   160  5.514393228824850E-004