[Molden Format]
[Atoms] AU
  N     1    7    -0.0581745200   -4.3160820000    0.0000000000        
  C     2    6     0.0253857300   -1.7936388000    0.0000000000        
  C     3    6    -2.3067143600   -0.4249322300    0.0000000000        
  C     4    6     2.3395150300   -0.3996022600    0.0000000000        
  C     5    6    -2.2857824100    2.1551936600    0.0000000000        
  C     6    6     2.2956295000    2.1811247200    0.0000000000        
  C     7    6    -0.0032377900    3.4856373000    0.0000000000        
  H     8    1    -2.1878995700   -5.5752382700    0.0000000000        
  H     9    1     1.6452486900   -5.2850204700    0.0000000000        
  H    10    1    -4.0320402000   -1.4724688700    0.0000000000        
  H    11    1     4.0903748800   -1.4131996500    0.0000000000        
  H    12    1    -4.0386796900    3.1742484900    0.0000000000        
  H    13    1     4.0360678000    3.2204434200    0.0000000000        
  H    14    1    -0.0130828700    5.5127602000    0.0000000000        
[5D]
[7F]
[GTO]
  1  0
   s    12 1.00
  0.114200D+05  0.172695D-04
  0.171200D+04  0.134411D-03
  0.389300D+03  0.694561D-03
  0.110000D+03  0.278531D-02
  0.355700D+02  0.863457D-02
  0.125400D+02  0.199805D-01
  0.464400D+01  0.262908D-01
  0.129300D+01 -0.243845D-01
  0.511800D+00 -0.924934D-01
  0.178700D+00 -0.339683D+00
  0.246240D-01  0.345111D+00
  0.112530D-01  0.752750D+00
   s    10 1.00
  0.114200D+05  0.523000D-03
  0.171200D+04  0.404500D-02
  0.389300D+03  0.207750D-01
  0.110000D+03  0.807269D-01
  0.355700D+02  0.233074D+00
  0.125400D+02  0.433501D+00
  0.464400D+01  0.347472D+00
  0.129300D+01  0.412620D-01
  0.511800D+00 -0.850799D-02
  0.178700D+00  0.238400D-02
   s    10 1.00
  0.114200D+05 -0.115000D-03
  0.171200D+04 -0.895000D-03
  0.389300D+03 -0.462400D-02
  0.110000D+03 -0.185280D-01
  0.355700D+02 -0.573390D-01
  0.125400D+02 -0.132076D+00
  0.464400D+01 -0.172510D+00
  0.129300D+01  0.151814D+00
  0.511800D+00  0.599944D+00
  0.178700D+00  0.387462D+00
   s     1 1.00
  0.129300D+01  0.100000D+01
   s     1 1.00
  0.178700D+00  0.100000D+01
   p     5 1.00
  0.266300D+02  0.146700D-01
  0.594800D+01  0.917640D-01
  0.174200D+01  0.298683D+00
  0.555000D+00  0.498487D+00
  0.172500D+00  0.337023D+00
   p     1 1.00
  0.174200D+01  0.100000D+01
   p     1 1.00
  0.555000D+00  0.100000D+01
   d     1 1.00
  0.165400D+01  0.100000D+01
   d     1 1.00
  0.469000D+00  0.100000D+01
   f     1 1.00
  0.109300D+01  0.100000D+01
  
  2  0
   s    10 1.00
  0.823600D+04  0.531000D-03
  0.123500D+04  0.410800D-02
  0.280800D+03  0.210870D-01
  0.792700D+02  0.818530D-01
  0.255900D+02  0.234817D+00
  0.899700D+01  0.434401D+00
  0.331900D+01  0.346129D+00
  0.905900D+00  0.393780D-01
  0.364300D+00 -0.898300D-02
  0.128500D+00  0.238500D-02
   s    10 1.00
  0.823600D+04 -0.113000D-03
  0.123500D+04 -0.878000D-03
  0.280800D+03 -0.454000D-02
  0.792700D+02 -0.181330D-01
  0.255900D+02 -0.557600D-01
  0.899700D+01 -0.126895D+00
  0.331900D+01 -0.170352D+00
  0.905900D+00  0.140382D+00
  0.364300D+00  0.598684D+00
  0.128500D+00  0.395389D+00
   s     1 1.00
  0.905900D+00  0.100000D+01
   s     1 1.00
  0.364300D+00  0.100000D+01
   p     5 1.00
  0.187100D+02  0.140310D-01
  0.413300D+01  0.868660D-01
  0.120000D+01  0.290216D+00
  0.382700D+00  0.501008D+00
  0.120900D+00  0.343406D+00
   p     1 1.00
  0.382700D+00  0.100000D+01
   p     1 1.00
  0.120900D+00  0.100000D+01
   d     1 1.00
  0.109700D+01  0.100000D+01
   d     1 1.00
  0.318000D+00  0.100000D+01
   f     1 1.00
  0.761000D+00  0.100000D+01
  
  3  0
   s    10 1.00
  0.823600D+04  0.531000D-03
  0.123500D+04  0.410800D-02
  0.280800D+03  0.210870D-01
  0.792700D+02  0.818530D-01
  0.255900D+02  0.234817D+00
  0.899700D+01  0.434401D+00
  0.331900D+01  0.346129D+00
  0.905900D+00  0.393780D-01
  0.364300D+00 -0.898300D-02
  0.128500D+00  0.238500D-02
   s    10 1.00
  0.823600D+04 -0.113000D-03
  0.123500D+04 -0.878000D-03
  0.280800D+03 -0.454000D-02
  0.792700D+02 -0.181330D-01
  0.255900D+02 -0.557600D-01
  0.899700D+01 -0.126895D+00
  0.331900D+01 -0.170352D+00
  0.905900D+00  0.140382D+00
  0.364300D+00  0.598684D+00
  0.128500D+00  0.395389D+00
   s     1 1.00
  0.905900D+00  0.100000D+01
   s     1 1.00
  0.364300D+00  0.100000D+01
   p     5 1.00
  0.187100D+02  0.140310D-01
  0.413300D+01  0.868660D-01
  0.120000D+01  0.290216D+00
  0.382700D+00  0.501008D+00
  0.120900D+00  0.343406D+00
   p     1 1.00
  0.382700D+00  0.100000D+01
   p     1 1.00
  0.120900D+00  0.100000D+01
   d     1 1.00
  0.109700D+01  0.100000D+01
   d     1 1.00
  0.318000D+00  0.100000D+01
   f     1 1.00
  0.761000D+00  0.100000D+01
  
  4  0
   s    10 1.00
  0.823600D+04  0.531000D-03
  0.123500D+04  0.410800D-02
  0.280800D+03  0.210870D-01
  0.792700D+02  0.818530D-01
  0.255900D+02  0.234817D+00
  0.899700D+01  0.434401D+00
  0.331900D+01  0.346129D+00
  0.905900D+00  0.393780D-01
  0.364300D+00 -0.898300D-02
  0.128500D+00  0.238500D-02
   s    10 1.00
  0.823600D+04 -0.113000D-03
  0.123500D+04 -0.878000D-03
  0.280800D+03 -0.454000D-02
  0.792700D+02 -0.181330D-01
  0.255900D+02 -0.557600D-01
  0.899700D+01 -0.126895D+00
  0.331900D+01 -0.170352D+00
  0.905900D+00  0.140382D+00
  0.364300D+00  0.598684D+00
  0.128500D+00  0.395389D+00
   s     1 1.00
  0.905900D+00  0.100000D+01
   s     1 1.00
  0.364300D+00  0.100000D+01
   p     5 1.00
  0.187100D+02  0.140310D-01
  0.413300D+01  0.868660D-01
  0.120000D+01  0.290216D+00
  0.382700D+00  0.501008D+00
  0.120900D+00  0.343406D+00
   p     1 1.00
  0.382700D+00  0.100000D+01
   p     1 1.00
  0.120900D+00  0.100000D+01
   d     1 1.00
  0.109700D+01  0.100000D+01
   d     1 1.00
  0.318000D+00  0.100000D+01
   f     1 1.00
  0.761000D+00  0.100000D+01
  
  5  0
   s    10 1.00
  0.823600D+04  0.531000D-03
  0.123500D+04  0.410800D-02
  0.280800D+03  0.210870D-01
  0.792700D+02  0.818530D-01
  0.255900D+02  0.234817D+00
  0.899700D+01  0.434401D+00
  0.331900D+01  0.346129D+00
  0.905900D+00  0.393780D-01
  0.364300D+00 -0.898300D-02
  0.128500D+00  0.238500D-02
   s    10 1.00
  0.823600D+04 -0.113000D-03
  0.123500D+04 -0.878000D-03
  0.280800D+03 -0.454000D-02
  0.792700D+02 -0.181330D-01
  0.255900D+02 -0.557600D-01
  0.899700D+01 -0.126895D+00
  0.331900D+01 -0.170352D+00
  0.905900D+00  0.140382D+00
  0.364300D+00  0.598684D+00
  0.128500D+00  0.395389D+00
   s     1 1.00
  0.905900D+00  0.100000D+01
   s     1 1.00
  0.364300D+00  0.100000D+01
   p     5 1.00
  0.187100D+02  0.140310D-01
  0.413300D+01  0.868660D-01
  0.120000D+01  0.290216D+00
  0.382700D+00  0.501008D+00
  0.120900D+00  0.343406D+00
   p     1 1.00
  0.382700D+00  0.100000D+01
   p     1 1.00
  0.120900D+00  0.100000D+01
   d     1 1.00
  0.109700D+01  0.100000D+01
   d     1 1.00
  0.318000D+00  0.100000D+01
   f     1 1.00
  0.761000D+00  0.100000D+01
  
  6  0
   s    10 1.00
  0.823600D+04  0.531000D-03
  0.123500D+04  0.410800D-02
  0.280800D+03  0.210870D-01
  0.792700D+02  0.818530D-01
  0.255900D+02  0.234817D+00
  0.899700D+01  0.434401D+00
  0.331900D+01  0.346129D+00
  0.905900D+00  0.393780D-01
  0.364300D+00 -0.898300D-02
  0.128500D+00  0.238500D-02
   s    10 1.00
  0.823600D+04 -0.113000D-03
  0.123500D+04 -0.878000D-03
  0.280800D+03 -0.454000D-02
  0.792700D+02 -0.181330D-01
  0.255900D+02 -0.557600D-01
  0.899700D+01 -0.126895D+00
  0.331900D+01 -0.170352D+00
  0.905900D+00  0.140382D+00
  0.364300D+00  0.598684D+00
  0.128500D+00  0.395389D+00
   s     1 1.00
  0.905900D+00  0.100000D+01
   s     1 1.00
  0.364300D+00  0.100000D+01
   p     5 1.00
  0.187100D+02  0.140310D-01
  0.413300D+01  0.868660D-01
  0.120000D+01  0.290216D+00
  0.382700D+00  0.501008D+00
  0.120900D+00  0.343406D+00
   p     1 1.00
  0.382700D+00  0.100000D+01
   p     1 1.00
  0.120900D+00  0.100000D+01
   d     1 1.00
  0.109700D+01  0.100000D+01
   d     1 1.00
  0.318000D+00  0.100000D+01
   f     1 1.00
  0.761000D+00  0.100000D+01
  
  7  0
   s    10 1.00
  0.823600D+04  0.531000D-03
  0.123500D+04  0.410800D-02
  0.280800D+03  0.210870D-01
  0.792700D+02  0.818530D-01
  0.255900D+02  0.234817D+00
  0.899700D+01  0.434401D+00
  0.331900D+01  0.346129D+00
  0.905900D+00  0.393780D-01
  0.364300D+00 -0.898300D-02
  0.128500D+00  0.238500D-02
   s    10 1.00
  0.823600D+04 -0.113000D-03
  0.123500D+04 -0.878000D-03
  0.280800D+03 -0.454000D-02
  0.792700D+02 -0.181330D-01
  0.255900D+02 -0.557600D-01
  0.899700D+01 -0.126895D+00
  0.331900D+01 -0.170352D+00
  0.905900D+00  0.140382D+00
  0.364300D+00  0.598684D+00
  0.128500D+00  0.395389D+00
   s     1 1.00
  0.905900D+00  0.100000D+01
   s     1 1.00
  0.364300D+00  0.100000D+01
   p     5 1.00
  0.187100D+02  0.140310D-01
  0.413300D+01  0.868660D-01
  0.120000D+01  0.290216D+00
  0.382700D+00  0.501008D+00
  0.120900D+00  0.343406D+00
   p     1 1.00
  0.382700D+00  0.100000D+01
   p     1 1.00
  0.120900D+00  0.100000D+01
   d     1 1.00
  0.109700D+01  0.100000D+01
   d     1 1.00
  0.318000D+00  0.100000D+01
   f     1 1.00
  0.761000D+00  0.100000D+01
  
  8  0
   s     4 1.00
  0.130100D+02  0.196850D-01
  0.196200D+01  0.137977D+00
  0.444600D+00  0.478148D+00
  0.122000D+00  0.501240D+00
   s     1 1.00
  0.122000D+00  0.100000D+01
   p     1 1.00
  0.727000D+00  0.100000D+01
  
  9  0
   s     4 1.00
  0.130100D+02  0.196850D-01
  0.196200D+01  0.137977D+00
  0.444600D+00  0.478148D+00
  0.122000D+00  0.501240D+00
   s     1 1.00
  0.122000D+00  0.100000D+01
   p     1 1.00
  0.727000D+00  0.100000D+01
  
 10  0
   s     4 1.00
  0.130100D+02  0.196850D-01
  0.196200D+01  0.137977D+00
  0.444600D+00  0.478148D+00
  0.122000D+00  0.501240D+00
   s     1 1.00
  0.122000D+00  0.100000D+01
   p     1 1.00
  0.727000D+00  0.100000D+01
  
 11  0
   s     4 1.00
  0.130100D+02  0.196850D-01
  0.196200D+01  0.137977D+00
  0.444600D+00  0.478148D+00
  0.122000D+00  0.501240D+00
   s     1 1.00
  0.122000D+00  0.100000D+01
   p     1 1.00
  0.727000D+00  0.100000D+01
  
 12  0
   s     4 1.00
  0.130100D+02  0.196850D-01
  0.196200D+01  0.137977D+00
  0.444600D+00  0.478148D+00
  0.122000D+00  0.501240D+00
   s     1 1.00
  0.122000D+00  0.100000D+01
   p     1 1.00
  0.727000D+00  0.100000D+01
  
 13  0
   s     4 1.00
  0.130100D+02  0.196850D-01
  0.196200D+01  0.137977D+00
  0.444600D+00  0.478148D+00
  0.122000D+00  0.501240D+00
   s     1 1.00
  0.122000D+00  0.100000D+01
   p     1 1.00
  0.727000D+00  0.100000D+01
  
 14  0
   s     4 1.00
  0.130100D+02  0.196850D-01
  0.196200D+01  0.137977D+00
  0.444600D+00  0.478148D+00
  0.122000D+00  0.501240D+00
   s     1 1.00
  0.122000D+00  0.100000D+01
   p     1 1.00
  0.727000D+00  0.100000D+01
  
[MO]
 Sym= __1_A__
 Ene=   1.00000000000000     
 Spin= Alpha
 Occup=    1.00000000000000     
                     1 -2.053920914198015E-005
                     2  0.998493037606545     
                     3  7.092712905415197E-004
                     4  1.812578514036834E-003
                     5  3.172661301199894E-003
                     6  1.221978429500639E-003
                     7  3.832287129235252E-003
                     8  1.407766072108936E-012
                     9 -8.486755695301390E-005
                    10 -8.638818148270006E-005
                    11 -2.537019813159526E-012
                    12 -6.748399087611189E-004
                    13 -6.685597399873682E-004
                    14 -3.656494614915705E-012
                    15 -1.089233838933122E-004
                    16 -1.163071733415030E-012
                    17  3.201254644596504E-012
                    18 -1.695684929859318E-004
                    19 -4.607862595246119E-005
                    20  3.715372480961853E-004
                    21 -1.227091429781998E-012
                    22  1.296443413662075E-012
                    23 -1.661376077785653E-004
                    24  1.008251510346402E-004
                    25  3.568171259976833E-012
                    26 -1.383817278022133E-005
                    27 -3.295532320044601E-005
                    28  2.193479388137318E-012
                    29 -4.918027808828571E-013
                    30  1.061610295625574E-005
                    31 -8.602827765123934E-005
                    32 -1.741205347661711E-004
                    33  1.172854928822053E-003
                    34  1.000142509196496E-004
                    35  5.241646886974800E-007
                    36 -9.319833331102373E-005
                    37 -3.575680552995162E-003
                    38 -1.044984145287313E-011
                    39  4.547690763723746E-005
                    40 -2.572851133755905E-004
                    41  2.824788865301812E-012
                    42 -4.729581520390291E-004
                    43  3.792278620009948E-003
                    44  1.113079308757842E-011
                    45 -2.474654249955343E-005
                    46  4.644445151050023E-012
                    47  1.260631545874598E-012
                    48 -2.232400026913530E-004
                    49 -6.188024521613598E-006
                    50 -3.148702528818239E-004
                    51 -1.450588676215880E-011
                    52  6.522584186505230E-012
                    53 -8.293894256447365E-005
                    54  1.429179795971855E-004
                    55  6.656843131953973E-014
                    56 -2.735363042257388E-006
                    57 -2.272325891942997E-005
                    58  9.016276637578882E-013
                    59  3.977086414497954E-012
                    60  3.739593520079172E-005
                    61 -1.242809885415252E-004
                    62 -2.228118530397362E-004
                    63 -1.138348531643630E-003
                    64 -3.305434680785273E-005
                    65  9.231049189712484E-004
                    66 -4.389757494265762E-004
                    67  3.302963634114160E-004
                    68  1.204017027640981E-012
                    69  8.056448742721664E-005
                    70  6.037303433245398E-004
                    71 -8.871047907559999E-012
                    72 -9.130693540729055E-004
                    73  4.069613157063782E-005
                    74 -1.349042566344564E-011
                    75 -2.425696338614407E-005
                    76  3.685015030287441E-012
                    77  3.927405113609693E-013
                    78 -4.534825154360544E-005
                    79 -6.969631836168145E-006
                    80 -5.886263553159106E-005
                    81 -7.647676496624422E-012
                    82  6.044207463770467E-012
                    83 -3.386116435780896E-005
                    84  2.231688335054473E-005
                    85  1.116507544466210E-012
                    86  1.351192326504119E-005
                    87 -4.299756141852259E-005
                    88  4.225967008203816E-012
                    89 -8.229842151431946E-013
                    90 -4.806114081280106E-005
                    91 -1.060913078947627E-004
                    92 -1.838988691275793E-004
                    93 -1.064979757205839E-003
                    94  5.415207393292338E-005
                    95  4.496485175620198E-004
                    96  4.430786334584154E-004
                    97  4.633763641213896E-004
                    98 -2.049479781150588E-013
                    99  5.063096970121330E-005
                   100  3.764244039782733E-004
                   101 -2.870248686394414E-012
                   102  4.180062287002327E-004
                   103 -6.402650828240003E-004
                   104 -1.236824273750243E-012
                   105 -1.635944420911642E-005
                   106  3.790790983553776E-012
                   107 -2.988272654741378E-012
                   108 -6.363073152243801E-005
                   109  3.671275135907692E-006
                   110 -2.084901184149602E-006
                   111  5.578212490197867E-012
                   112 -8.991059579191144E-012
                   113  1.298529746822810E-005
                   114  2.103371754747257E-006
                   115 -5.058161271238116E-012
                   116 -1.670552524467572E-005
                   117 -3.015780520781106E-005
                   118 -1.559223304276714E-013
                   119 -9.618010023214735E-013
                   120  7.894506928665006E-006
                   121 -7.894251544438004E-005
                   122 -1.386093308134603E-004
                   123 -2.289086435581355E-004
                   124  1.199643103246558E-004
                   125  7.276444096006382E-005
                   126  9.959847720055166E-008
                   127 -3.889665890112545E-004
                   128 -3.394182946754908E-012
                   129  1.367940765065149E-004
                   130  4.375690347401042E-004
                   131  3.480512111441336E-012
                   132  5.090666339243748E-005
                   133  8.812421725220102E-004
                   134  3.402378957930528E-012
                   135  1.280386427320554E-005
                   136  7.082616186697873E-013
                   137 -2.262331507400748E-012
                   138  2.995005210260972E-005
                   139 -6.038792480677165E-006
                   140  1.218007994604050E-004
                   141  6.956078567540004E-012
                   142  2.278953168256158E-013
                   143  2.128388886823888E-004
                   144  1.193755095869092E-004
                   145 -1.276917061164403E-013
                   146 -9.388121200831659E-006
                   147 -3.829823530532581E-005
                   148 -1.499758418356928E-012
                   149  3.411563121901724E-012
                   150  1.255328027848479E-005
                   151 -3.276799866625994E-005
                   152 -1.227404494812253E-004
                   153 -1.628444265420371E-004
                   154  7.779855487506472E-005
                   155  1.757991092404055E-004
                   156 -1.268141757663894E-005
                   157 -3.822641863048800E-004
                   158 -9.574616213861978E-012
                   159 -5.994003020636668E-005
                   160  1.899668167887719E-004
                   161  1.932603673949140E-011
                   162  4.079209782315118E-004
                   163  3.137617712508775E-004
                   164 -9.671753526230888E-016
                   165  3.973600680931943E-006
                   166 -1.498086707427078E-012
                   167  1.153755517339287E-012
                   168  1.533546219434137E-005
                   169  5.911144549110748E-006
                   170  1.133473274717845E-004
                   171 -2.196642248334994E-012
                   172 -2.574100444671046E-012
                   173  9.229204424556312E-005
                   174 -7.921278002141298E-005
                   175  8.391468704773641E-012
                   176  4.434657975513485E-006
                   177 -2.460312553002466E-005
                   178 -6.251575423932880E-013
                   179  2.685857204304465E-012
                   180 -7.021578139357435E-006
                   181 -2.902962141742376E-005
                   182 -8.894965147398647E-005
                   183 -2.426238942006651E-004
                   184  3.011654379272222E-005
                   185  1.100001678603735E-004
                   186 -1.826018321995020E-005
                   187 -4.029133974624760E-005
                   188  4.628719209703699E-012
                   189  8.715448928019177E-005
                   190  4.380519096403787E-005
                   191 -1.264991377947734E-011
                   192  3.454118664918237E-004
                   193 -6.227188729291293E-005
                   194  3.406705360366230E-012
                   195 -2.115576865381602E-006
                   196  4.096900343947126E-012
                   197  1.778037936528474E-012
                   198 -1.363014744013062E-005
                   199 -2.896841728101984E-007
                   200  2.268868456702061E-005
                   201 -5.547026607364583E-012
                   202  4.271254362328280E-012
                   203 -6.066819474640624E-005
                   204 -5.728619617163199E-005
                   205 -2.907365760128867E-012
                   206 -3.850209842500528E-006
                   207 -4.884593391494036E-006
                   208 -2.141222844589320E-013
                   209  1.635543407818194E-012
                   210 -2.290714908181487E-006
                   211 -2.070850493427451E-006
                   212  1.677299595545905E-007
                   213 -3.819231547803491E-004
                   214  2.355406601950363E-004
                   215  1.895738593879615E-004
                   216 -6.627376208815594E-013
                   217  1.370332390942987E-003
                   218 -1.263865400737272E-003
                   219 -2.862570885110802E-004
                   220  2.178720834227116E-004
                   221  1.461485219122608E-012
                   222 -2.580078515918190E-004
                   223 -4.006237327661510E-004
                   224 -7.822328055623010E-006
                   225 -2.659760583222537E-005
                   226  2.048512628136070E-012
                   227 -2.799042939709865E-004
                   228 -2.230946607778281E-004
                   229 -8.313371107675223E-006
                   230 -3.771629383103021E-005
                   231 -5.152970435676534E-012
                   232 -7.792842177088858E-005
                   233 -3.271294924351665E-004
                   234  6.197390928360339E-006
                   235  6.595593715030753E-007
                   236 -1.442924490093652E-012
                   237 -7.235249175028615E-005
                   238 -3.839012859676904E-004
                   239 -6.461703592896266E-006
                   240 -5.416930340447252E-006
                   241 -4.634415332250221E-012
                   242  2.029047366122493E-005
                   243 -4.750034966931725E-005
                   244  1.619424191198889E-006
                   245  1.242275765531307E-005
                   246 -2.341082364113992E-012
 Sym= __2_A__
 Ene=   2.00000000000000     
 Spin= Alpha
 Occup=    1.00000000000000     
                     1 -5.484675975519640E-005
                     2 -2.496227844719777E-004
                     3  2.487586126434517E-003
                     4  1.040247730437451E-004
                     5  1.289175828320717E-003
                     6 -8.085368375844820E-005
                     7  2.734559282976102E-003
                     8 -3.777202480498222E-012
                     9 -1.313330755959955E-005
                    10 -9.415769593761296E-005
                    11 -2.849698464462306E-012
                    12 -4.942192519354442E-007
                    13 -3.917606614276301E-004
                    14  2.436573908751479E-012
                    15  3.225566303470696E-005
                    16 -3.350711836768122E-012
                    17 -4.462914987493767E-013
                    18 -6.454398150818578E-005
                    19  3.621653314212363E-006
                    20 -1.295708971880659E-004
                    21  1.297760703326033E-012
                    22  1.741430032027123E-013
                    23  3.008731358213556E-004
                    24 -7.481841132394511E-005
                    25  2.622167894704564E-012
                    26 -9.693126797644592E-006
                    27  1.214037988955873E-004
                    28  2.623310800689820E-012
                    29 -4.067459180474152E-012
                    30 -4.830406402286179E-005
                    31  1.684688390996356E-004
                    32   1.00104257259927     
                    33  9.049276028231995E-003
                    34  2.671183146502652E-003
                    35 -7.741511881842821E-003
                    36  2.079153863808895E-005
                    37 -4.275283483120740E-003
                    38  7.322890301426277E-012
                    39 -1.849256954069496E-004
                    40  1.423568106994974E-003
                    41 -7.552781418416091E-012
                    42 -8.151394822498410E-005
                    43  4.369944162116278E-003
                    44 -3.040479802838511E-012
                    45 -5.893552905044899E-004
                    46  4.464202966490877E-012
                    47 -1.347461540998859E-013
                    48 -1.959287635369111E-004
                    49  3.065793609301344E-005
                    50  5.397404825680620E-004
                    51 -4.547973433408127E-012
                    52  9.429341074389141E-013
                    53 -7.397777411091044E-004
                    54 -2.604264593013889E-004
                    55 -2.888820796867454E-012
                    56  1.017785518662545E-005
                    57  5.698162120465370E-005
                    58 -7.904809969521494E-013
                    59 -2.915227470322667E-012
                    60 -2.632811146401075E-005
                    61  4.198919969914696E-004
                    62  7.087137925995670E-003
                    63 -2.021507603031413E-003
                    64 -2.288455254665566E-004
                    65  2.748615874041850E-003
                    66  1.173300706999571E-004
                    67  9.048288380402893E-006
                    68 -3.913392281553730E-012
                    69  3.902616318626299E-004
                    70  1.439074049096872E-004
                    71  1.969116060581160E-012
                    72 -2.111420232402535E-003
                    73  2.315440054295282E-004
                    74  1.899696331433137E-012
                    75  4.451176560605167E-005
                    76 -1.485483140028219E-012
                    77 -1.035444550127751E-012
                    78 -5.924023410934492E-006
                    79  2.587568168181258E-005
                    80 -3.886810958753100E-004
                    81  7.080939467442212E-013
                    82  3.357954170747814E-012
                    83 -7.321231557085649E-004
                    84 -3.533626965399332E-004
                    85  3.151352312371822E-012
                    86  3.829987341118391E-005
                    87 -5.371741282910272E-005
                    88 -5.989024619414500E-012
                    89 -4.412493819299653E-012
                    90  5.665265343092087E-005
                    91  1.404818314591356E-004
                    92  7.714024409251580E-003
                    93 -2.074430543817370E-003
                    94 -2.906182443451574E-004
                    95  3.132732162248542E-003
                    96 -6.033507903053788E-005
                    97 -4.152670668688978E-007
                    98  3.490027147479909E-012
                    99 -6.825769532576978E-004
                   100  7.635711988235100E-005
                   101 -4.748041858388179E-012
                   102  1.892371804994106E-003
                   103  7.786617479158209E-005
                   104  1.177431872207588E-012
                   105  3.523552968513433E-005
                   106 -3.152656337714880E-012
                   107 -8.231753665024531E-014
                   108 -2.769726572228138E-006
                   109 -1.602877902348054E-005
                   110 -4.045623167437826E-004
                   111  1.981149765082046E-012
                   112 -8.321728422606170E-012
                   113 -5.722880734262846E-004
                   114  3.638563515837550E-004
                   115 -3.291908213184254E-012
                   116 -3.687314718067071E-005
                   117 -6.170373668382457E-005
                   118  3.628981436172318E-012
                   119 -4.391513435925940E-013
                   120 -3.409086250800434E-005
                   121  1.296160433977836E-004
                   122 -2.520628662480703E-004
                   123 -7.544445324609565E-004
                   124  2.284330076107247E-004
                   125 -1.649959135578528E-004
                   126 -2.203898864486553E-005
                   127 -2.747902190503047E-004
                   128 -2.418637607581277E-012
                   129 -5.197849062416643E-006
                   130  5.745693931047648E-004
                   131 -7.013829650121706E-013
                   132  4.007676664199701E-004
                   133  7.922682038971045E-004
                   134  4.015093034636794E-013
                   135  2.084835714673385E-005
                   136 -1.875577968466159E-013
                   137  5.180386881927774E-012
                   138  3.832395487136596E-006
                   139  4.973877657742063E-005
                   140  1.215562996035816E-004
                   141  3.326990497930678E-013
                   142 -7.292129859977287E-013
                   143  2.798877524019406E-004
                   144 -2.161949541580342E-004
                   145  2.550914359931712E-012
                   146  3.979918337612009E-006
                   147 -2.743908232527411E-005
                   148  2.727200670259116E-012
                   149 -4.512535436101029E-012
                   150 -3.679820472968345E-005
                   151  2.583616459054702E-005
                   152 -2.290635102234721E-004
                   153 -7.394775552666211E-004
                   154  2.361506478469828E-004
                   155 -1.405349048999337E-004
                   156  7.734771703665419E-006
                   157 -2.785900980463662E-004
                   158 -1.264608189045126E-011
                   159  3.887464390933955E-005
                   160  5.514393228488735E-004