[Molden Format]
[Atoms] AU
  N     1    7    -0.0581745200   -4.3160820000    0.0000000000        
  C     2    6     0.0253857300   -1.7936388000    0.0000000000        
  C     3    6    -2.3067143600   -0.4249322300    0.0000000000        
  C     4    6     2.3395150300   -0.3996022600    0.0000000000        
  C     5    6    -2.2857824100    2.1551936600    0.0000000000        
  C     6    6     2.2956295000    2.1811247200    0.0000000000        
  C     7    6    -0.0032377900    3.4856373000    0.0000000000        
  H     8    1    -2.1878995700   -5.5752382700    0.0000000000        
  H     9    1     1.6452486900   -5.2850204700    0.0000000000        
  H    10    1    -4.0320402000   -1.4724688700    0.0000000000        
  H    11    1     4.0903748800   -1.4131996500    0.0000000000        
  H    12    1    -4.0386796900    3.1742484900    0.0000000000        
  H    13    1     4.0360678000    3.2204434200    0.0000000000        
  H    14    1    -0.0130828700    5.5127602000    0.0000000000        
[5D]
[7F]
[GTO]
  1  0
   s    12 1.00
  0.114200D+05  0.172695D-04
  0.171200D+04  0.134411D-03
  0.389300D+03  0.694561D-03
  0.110000D+03  0.278531D-02
  0.355700D+02  0.863457D-02
  0.125400D+02  0.199805D-01
  0.464400D+01  0.262908D-01
  0.129300D+01 -0.243845D-01
  0.511800D+00 -0.924934D-01
  0.178700D+00 -0.339683D+00
  0.246240D-01  0.345111D+00
  0.112530D-01  0.752750D+00
   s    10 1.00
  0.114200D+05  0.523000D-03
  0.171200D+04  0.404500D-02
  0.389300D+03  0.207750D-01
  0.110000D+03  0.807269D-01
  0.355700D+02  0.233074D+00
  0.125400D+02  0.433501D+00
  0.464400D+01  0.347472D+00
  0.129300D+01  0.412620D-01
  0.511800D+00 -0.850799D-02
  0.178700D+00  0.238400D-02
   s    10 1.00
  0.114200D+05 -0.115000D-03
  0.171200D+04 -0.895000D-03
  0.389300D+03 -0.462400D-02
  0.110000D+03 -0.185280D-01
  0.355700D+02 -0.573390D-01
  0.125400D+02 -0.132076D+00
  0.464400D+01 -0.172510D+00
  0.129300D+01  0.151814D+00
  0.511800D+00  0.599944D+00
  0.178700D+00  0.387462D+00
   s     1 1.00
  0.129300D+01  0.100000D+01
   s     1 1.00
  0.178700D+00  0.100000D+01
   p     5 1.00
  0.266300D+02  0.146700D-01
  0.594800D+01  0.917640D-01
  0.174200D+01  0.298683D+00
  0.555000D+00  0.498487D+00
  0.172500D+00  0.337023D+00
   p     1 1.00
  0.174200D+01  0.100000D+01
   p     1 1.00
  0.555000D+00  0.100000D+01
   d     1 1.00
  0.165400D+01  0.100000D+01
   d     1 1.00
  0.469000D+00  0.100000D+01
   f     1 1.00
  0.109300D+01  0.100000D+01
  
  2  0
   s    10 1.00
  0.823600D+04  0.531000D-03
  0.123500D+04  0.410800D-02
  0.280800D+03  0.210870D-01
  0.792700D+02  0.818530D-01
  0.255900D+02  0.234817D+00
  0.899700D+01  0.434401D+00
  0.331900D+01  0.346129D+00
  0.905900D+00  0.393780D-01
  0.364300D+00 -0.898300D-02
  0.128500D+00  0.238500D-02
   s    10 1.00
  0.823600D+04 -0.113000D-03
  0.123500D+04 -0.878000D-03
  0.280800D+03 -0.454000D-02
  0.792700D+02 -0.181330D-01
  0.255900D+02 -0.557600D-01
  0.899700D+01 -0.126895D+00
  0.331900D+01 -0.170352D+00
  0.905900D+00  0.140382D+00
  0.364300D+00  0.598684D+00
  0.128500D+00  0.395389D+00
   s     1 1.00
  0.905900D+00  0.100000D+01
   s     1 1.00
  0.364300D+00  0.100000D+01
   p     5 1.00
  0.187100D+02  0.140310D-01
  0.413300D+01  0.868660D-01
  0.120000D+01  0.290216D+00
  0.382700D+00  0.501008D+00
  0.120900D+00  0.343406D+00
   p     1 1.00
  0.382700D+00  0.100000D+01
   p     1 1.00
  0.120900D+00  0.100000D+01
   d     1 1.00
  0.109700D+01  0.100000D+01
   d     1 1.00
  0.318000D+00  0.100000D+01
   f     1 1.00
  0.761000D+00  0.100000D+01
  
  3  0
   s    10 1.00
  0.823600D+04  0.531000D-03
  0.123500D+04  0.410800D-02
  0.280800D+03  0.210870D-01
  0.792700D+02  0.818530D-01
  0.255900D+02  0.234817D+00
  0.899700D+01  0.434401D+00
  0.331900D+01  0.346129D+00
  0.905900D+00  0.393780D-01
  0.364300D+00 -0.898300D-02
  0.128500D+00  0.238500D-02
   s    10 1.00
  0.823600D+04 -0.113000D-03
  0.123500D+04 -0.878000D-03
  0.280800D+03 -0.454000D-02
  0.792700D+02 -0.181330D-01
  0.255900D+02 -0.557600D-01
  0.899700D+01 -0.126895D+00
  0.331900D+01 -0.170352D+00
  0.905900D+00  0.140382D+00
  0.364300D+00  0.598684D+00
  0.128500D+00  0.395389D+00
   s     1 1.00
  0.905900D+00  0.100000D+01
   s     1 1.00
  0.364300D+00  0.100000D+01
   p     5 1.00
  0.187100D+02  0.140310D-01
  0.413300D+01  0.868660D-01
  0.120000D+01  0.290216D+00
  0.382700D+00  0.501008D+00
  0.120900D+00  0.343406D+00
   p     1 1.00
  0.382700D+00  0.100000D+01
   p     1 1.00
  0.120900D+00  0.100000D+01
   d     1 1.00
  0.109700D+01  0.100000D+01
   d     1 1.00
  0.318000D+00  0.100000D+01
   f     1 1.00
  0.761000D+00  0.100000D+01
  
  4  0
   s    10 1.00
  0.823600D+04  0.531000D-03
  0.123500D+04  0.410800D-02
  0.280800D+03  0.210870D-01
  0.792700D+02  0.818530D-01
  0.255900D+02  0.234817D+00
  0.899700D+01  0.434401D+00
  0.331900D+01  0.346129D+00
  0.905900D+00  0.393780D-01
  0.364300D+00 -0.898300D-02
  0.128500D+00  0.238500D-02
   s    10 1.00
  0.823600D+04 -0.113000D-03
  0.123500D+04 -0.878000D-03
  0.280800D+03 -0.454000D-02
  0.792700D+02 -0.181330D-01
  0.255900D+02 -0.557600D-01
  0.899700D+01 -0.126895D+00
  0.331900D+01 -0.170352D+00
  0.905900D+00  0.140382D+00
  0.364300D+00  0.598684D+00
  0.128500D+00  0.395389D+00
   s     1 1.00
  0.905900D+00  0.100000D+01
   s     1 1.00
  0.364300D+00  0.100000D+01
   p     5 1.00
  0.187100D+02  0.140310D-01
  0.413300D+01  0.868660D-01
  0.120000D+01  0.290216D+00
  0.382700D+00  0.501008D+00
  0.120900D+00  0.343406D+00
   p     1 1.00
  0.382700D+00  0.100000D+01
   p     1 1.00
  0.120900D+00  0.100000D+01
   d     1 1.00
  0.109700D+01  0.100000D+01
   d     1 1.00
  0.318000D+00  0.100000D+01
   f     1 1.00
  0.761000D+00  0.100000D+01
  
  5  0
   s    10 1.00
  0.823600D+04  0.531000D-03
  0.123500D+04  0.410800D-02
  0.280800D+03  0.210870D-01
  0.792700D+02  0.818530D-01
  0.255900D+02  0.234817D+00
  0.899700D+01  0.434401D+00
  0.331900D+01  0.346129D+00
  0.905900D+00  0.393780D-01
  0.364300D+00 -0.898300D-02
  0.128500D+00  0.238500D-02
   s    10 1.00
  0.823600D+04 -0.113000D-03
  0.123500D+04 -0.878000D-03
  0.280800D+03 -0.454000D-02
  0.792700D+02 -0.181330D-01
  0.255900D+02 -0.557600D-01
  0.899700D+01 -0.126895D+00
  0.331900D+01 -0.170352D+00
  0.905900D+00  0.140382D+00
  0.364300D+00  0.598684D+00
  0.128500D+00  0.395389D+00
   s     1 1.00
  0.905900D+00  0.100000D+01
   s     1 1.00
  0.364300D+00  0.100000D+01
   p     5 1.00
  0.187100D+02  0.140310D-01
  0.413300D+01  0.868660D-01
  0.120000D+01  0.290216D+00
  0.382700D+00  0.501008D+00
  0.120900D+00  0.343406D+00
   p     1 1.00
  0.382700D+00  0.100000D+01
   p     1 1.00
  0.120900D+00  0.100000D+01
   d     1 1.00
  0.109700D+01  0.100000D+01
   d     1 1.00
  0.318000D+00  0.100000D+01
   f     1 1.00
  0.761000D+00  0.100000D+01
  
  6  0
   s    10 1.00
  0.823600D+04  0.531000D-03
  0.123500D+04  0.410800D-02
  0.280800D+03  0.210870D-01
  0.792700D+02  0.818530D-01
  0.255900D+02  0.234817D+00
  0.899700D+01  0.434401D+00
  0.331900D+01  0.346129D+00
  0.905900D+00  0.393780D-01
  0.364300D+00 -0.898300D-02
  0.128500D+00  0.238500D-02
   s    10 1.00
  0.823600D+04 -0.113000D-03
  0.123500D+04 -0.878000D-03
  0.280800D+03 -0.454000D-02
  0.792700D+02 -0.181330D-01
  0.255900D+02 -0.557600D-01
  0.899700D+01 -0.126895D+00
  0.331900D+01 -0.170352D+00
  0.905900D+00  0.140382D+00
  0.364300D+00  0.598684D+00
  0.128500D+00  0.395389D+00
   s     1 1.00
  0.905900D+00  0.100000D+01
   s     1 1.00
  0.364300D+00  0.100000D+01
   p     5 1.00
  0.187100D+02  0.140310D-01
  0.413300D+01  0.868660D-01
  0.120000D+01  0.290216D+00
  0.382700D+00  0.501008D+00
  0.120900D+00  0.343406D+00
   p     1 1.00
  0.382700D+00  0.100000D+01
   p     1 1.00
  0.120900D+00  0.100000D+01
   d     1 1.00
  0.109700D+01  0.100000D+01
   d     1 1.00
  0.318000D+00  0.100000D+01
   f     1 1.00
  0.761000D+00  0.100000D+01
  
  7  0
   s    10 1.00
  0.823600D+04  0.531000D-03
  0.123500D+04  0.410800D-02
  0.280800D+03  0.210870D-01
  0.792700D+02  0.818530D-01
  0.255900D+02  0.234817D+00
  0.899700D+01  0.434401D+00
  0.331900D+01  0.346129D+00
  0.905900D+00  0.393780D-01
  0.364300D+00 -0.898300D-02
  0.128500D+00  0.238500D-02
   s    10 1.00
  0.823600D+04 -0.113000D-03
  0.123500D+04 -0.878000D-03
  0.280800D+03 -0.454000D-02
  0.792700D+02 -0.181330D-01
  0.255900D+02 -0.557600D-01
  0.899700D+01 -0.126895D+00
  0.331900D+01 -0.170352D+00
  0.905900D+00  0.140382D+00
  0.364300D+00  0.598684D+00
  0.128500D+00  0.395389D+00
   s     1 1.00
  0.905900D+00  0.100000D+01
   s     1 1.00
  0.364300D+00  0.100000D+01
   p     5 1.00
  0.187100D+02  0.140310D-01
  0.413300D+01  0.868660D-01
  0.120000D+01  0.290216D+00
  0.382700D+00  0.501008D+00
  0.120900D+00  0.343406D+00
   p     1 1.00
  0.382700D+00  0.100000D+01
   p     1 1.00
  0.120900D+00  0.100000D+01
   d     1 1.00
  0.109700D+01  0.100000D+01
   d     1 1.00
  0.318000D+00  0.100000D+01
   f     1 1.00
  0.761000D+00  0.100000D+01
  
  8  0
   s     4 1.00
  0.130100D+02  0.196850D-01
  0.196200D+01  0.137977D+00
  0.444600D+00  0.478148D+00
  0.122000D+00  0.501240D+00
   s     1 1.00
  0.122000D+00  0.100000D+01
   p     1 1.00
  0.727000D+00  0.100000D+01
  
  9  0
   s     4 1.00
  0.130100D+02  0.196850D-01
  0.196200D+01  0.137977D+00
  0.444600D+00  0.478148D+00
  0.122000D+00  0.501240D+00
   s     1 1.00
  0.122000D+00  0.100000D+01
   p     1 1.00
  0.727000D+00  0.100000D+01
  
 10  0
   s     4 1.00
  0.130100D+02  0.196850D-01
  0.196200D+01  0.137977D+00
  0.444600D+00  0.478148D+00
  0.122000D+00  0.501240D+00
   s     1 1.00
  0.122000D+00  0.100000D+01
   p     1 1.00
  0.727000D+00  0.100000D+01
  
 11  0
   s     4 1.00
  0.130100D+02  0.196850D-01
  0.196200D+01  0.137977D+00
  0.444600D+00  0.478148D+00
  0.122000D+00  0.501240D+00
   s     1 1.00
  0.122000D+00  0.100000D+01
   p     1 1.00
  0.727000D+00  0.100000D+01
  
 12  0
   s     4 1.00
  0.130100D+02  0.196850D-01
  0.196200D+01  0.137977D+00
  0.444600D+00  0.478148D+00
  0.122000D+00  0.501240D+00
   s     1 1.00
  0.122000D+00  0.100000D+01
   p     1 1.00
  0.727000D+00  0.100000D+01
  
 13  0
   s     4 1.00
  0.130100D+02  0.196850D-01
  0.196200D+01  0.137977D+00
  0.444600D+00  0.478148D+00
  0.122000D+00  0.501240D+00
   s     1 1.00
  0.122000D+00  0.100000D+01
   p     1 1.00
  0.727000D+00  0.100000D+01
  
 14  0
   s     4 1.00
  0.130100D+02  0.196850D-01
  0.196200D+01  0.137977D+00
  0.444600D+00  0.478148D+00
  0.122000D+00  0.501240D+00
   s     1 1.00
  0.122000D+00  0.100000D+01
   p     1 1.00
  0.727000D+00  0.100000D+01
  
[MO]
 Sym= __1_A__
 Ene=  0.000000000000000E+000
 Spin= Alpha
 Occup=    2.00000000000000     
                     1 -2.053920913611953E-005
                     2  0.998493037606511     
                     3  7.092712910405039E-004
                     4  1.812578514017943E-003
                     5  3.172661300744371E-003
                     6  1.221978429625173E-003
                     7  3.832287129455620E-003
                     8  1.407766073250854E-012
                     9 -8.486755695021297E-005
                    10 -8.638818143636482E-005
                    11 -2.537019813129872E-012
                    12 -6.748399087745756E-004
                    13 -6.685597399426552E-004
                    14 -3.656494614917782E-012
                    15 -1.089233839059736E-004
                    16 -1.163071733236576E-012
                    17  3.201254644566076E-012
                    18 -1.695684929948186E-004
                    19 -4.607862595199760E-005
                    20  3.715372481049741E-004
                    21 -1.227091429884605E-012
                    22  1.296443413764668E-012
                    23 -1.661376078959997E-004
                    24  1.008251511863686E-004
                    25  3.568171259845183E-012
                    26 -1.383817278521919E-005
                    27 -3.295532321904115E-005
                    28  2.193479388041242E-012
                    29 -4.918027807972179E-013
                    30  1.061610297363965E-005
                    31 -8.602827765608645E-005
                    32 -1.741205738260727E-004
                    33  1.172854936284605E-003
                    34  1.000142507007040E-004
                    35  5.241648429762292E-007
                    36 -9.319833273408151E-005
                    37 -3.575680549708427E-003
                    38 -1.044984145307416E-011
                    39  4.547690740946157E-005
                    40 -2.572851134602058E-004
                    41  2.824788865702645E-012
                    42 -4.729581523795285E-004
                    43  3.792278619652145E-003
                    44  1.113079308748396E-011
                    45 -2.474654260558291E-005
                    46  4.644445150770201E-012
                    47  1.260631545890877E-012
                    48 -2.232400026176616E-004
                    49 -6.188024571194199E-006
                    50 -3.148702531231119E-004
                    51 -1.450588676152201E-011
                    52  6.522584186509689E-012
                    53 -8.293894240711948E-005
                    54  1.429179797186246E-004
                    55  6.656843141084425E-014
                    56 -2.735363064121552E-006
                    57 -2.272325895518448E-005
                    58  9.016276638050146E-013
                    59  3.977086414788557E-012
                    60  3.739593515419618E-005
                    61 -1.242809884181584E-004
                    62 -2.228118535269982E-004
                    63 -1.138348530069925E-003
                    64 -3.305434679604814E-005
                    65  9.231049187878427E-004
                    66 -4.389757425894748E-004
                    67  3.302963684757882E-004
                    68  1.204017028025555E-012
                    69  8.056448672328122E-005
                    70  6.037303427815168E-004
                    71 -8.871047907459492E-012
                    72 -9.130693552203501E-004
                    73  4.069613108522536E-005
                    74 -1.349042566323085E-011
                    75 -2.425696342748796E-005
                    76  3.685015030279518E-012
                    77  3.927405113019423E-013
                    78 -4.534825165992958E-005
                    79 -6.969632122402375E-006
                    80 -5.886263567312310E-005
                    81 -7.647676496255452E-012
                    82  6.044207463186934E-012
                    83 -3.386116410034436E-005
                    84  2.231688356774071E-005
                    85  1.116507544341725E-012
                    86  1.351192323748853E-005
                    87 -4.299756145480957E-005
                    88  4.225967008645288E-012
                    89 -8.229842150876869E-013
                    90 -4.806114085044637E-005
                    91 -1.060913079644804E-004
                    92 -1.838988693159637E-004
                    93 -1.064979756303310E-003
                    94  5.415207389804145E-005
                    95  4.496485178522788E-004
                    96  4.430786317617260E-004
                    97  4.633763571475988E-004
                    98 -2.049479786161810E-013
                    99  5.063096998860018E-005
                   100  3.764244050792017E-004
                   101 -2.870248686365974E-012
                   102  4.180062305555234E-004
                   103 -6.402650810865169E-004
                   104 -1.236824273892703E-012
                   105 -1.635944424260933E-005
                   106  3.790790983497649E-012
                   107 -2.988272654762817E-012
                   108 -6.363073126051190E-005
                   109  3.671275084681094E-006
                   110 -2.084901198085734E-006
                   111  5.578212490541276E-012
                   112 -8.991059578534300E-012
                   113  1.298529736084472E-005
                   114  2.103372012149847E-006
                   115 -5.058161271096158E-012
                   116 -1.670552521060799E-005
                   117 -3.015780515050250E-005
                   118 -1.559223307959476E-013
                   119 -9.618010025499510E-013
                   120  7.894506926553632E-006
                   121 -7.894251548204423E-005
                   122 -1.386093310974019E-004
                   123 -2.289086424203134E-004
                   124  1.199643103377047E-004
                   125  7.276444109095994E-005
                   126  9.959267978188200E-008
                   127 -3.889665940712025E-004
                   128 -3.394182946681692E-012
                   129  1.367940770308729E-004
                   130  4.375690347845556E-004
                   131  3.480512111963672E-012
                   132  5.090666381502823E-005
                   133  8.812421743226244E-004
                   134  3.402378957833041E-012
                   135  1.280386423814227E-005
                   136  7.082616186839582E-013
                   137 -2.262331507658335E-012
                   138  2.995005195982344E-005
                   139 -6.038792768623741E-006
                   140  1.218007994812536E-004
                   141  6.956078567661005E-012
                   142  2.278953167701597E-013
                   143  2.128388884617344E-004
                   144  1.193755095912569E-004
                   145 -1.276917060577384E-013
                   146 -9.388121174870948E-006
                   147 -3.829823526141128E-005
                   148 -1.499758418617995E-012
                   149  3.411563122042945E-012
                   150  1.255328029542413E-005
                   151 -3.276799865460645E-005
                   152 -1.227404491773138E-004
                   153 -1.628444323692325E-004
                   154  7.779855501688952E-005
                   155  1.757991093524495E-004
                   156 -1.268142533827463E-005
                   157 -3.822641820672407E-004
                   158 -9.574616214437151E-012
                   159 -5.994002932007006E-005
                   160  1.899668168216156E-004
                   161  1.932603673885283E-011
                   162  4.079209791316742E-004
                   163  3.137617701650252E-004
                   164 -9.671756488429089E-016
                   165  3.973600778182539E-006
                   166 -1.498086707345974E-012
                   167  1.153755517534260E-012
                   168  1.533546226921871E-005
                   169  5.911144312468090E-006
                   170  1.133473275195829E-004
                   171 -2.196642248290493E-012
                   172 -2.574100444397165E-012
                   173  9.229204467129304E-005
                   174 -7.921277951561719E-005
                   175  8.391468704486693E-012
                   176  4.434658013895809E-006
                   177 -2.460312559306983E-005
                   178 -6.251575424266130E-013
                   179  2.685857204096488E-012
                   180 -7.021578203369631E-006
                   181 -2.902962150178300E-005
                   182 -8.894965157785365E-005
                   183 -2.426238927125775E-004
                   184  3.011654376378099E-005
                   185  1.100001681016920E-004
                   186 -1.826017537077988E-005
                   187 -4.029133692528461E-005
                   188  4.628719209019683E-012
                   189  8.715448921954585E-005
                   190  4.380519052870277E-005
                   191 -1.264991377949802E-011
                   192  3.454118660039388E-004
                   193 -6.227188738351202E-005
                   194  3.406705360735758E-012
                   195 -2.115576903168960E-006
                   196  4.096900343896354E-012
                   197  1.778037936593190E-012
                   198 -1.363014754678385E-005
                   199 -2.896843957253336E-007
                   200  2.268868455462264E-005
                   201 -5.547026607128284E-012
                   202  4.271254362261281E-012
                   203 -6.066819452153318E-005
                   204 -5.728619640789297E-005
                   205 -2.907365760016409E-012
                   206 -3.850209907885938E-006
                   207 -4.884593391484884E-006
                   208 -2.141222846236612E-013
                   209  1.635543407647923E-012
                   210 -2.290714931448793E-006
                   211 -2.070850523693523E-006
                   212  1.677298835225820E-007
                   213 -3.819231546105945E-004
                   214  2.355406602044194E-004
                   215  1.895738593808446E-004
                   216 -6.627376207662689E-013
                   217  1.370332391198233E-003
                   218 -1.263865400712203E-003
                   219 -2.862570885581850E-004
                   220  2.178720834517904E-004
                   221  1.461485219313270E-012
                   222 -2.580078599191242E-004
                   223 -4.006237306506905E-004
                   224 -7.822328449607646E-006
                   225 -2.659760604262987E-005
                   226  2.048512628121337E-012
                   227 -2.799042904653159E-004
                   228 -2.230946622329392E-004
                   229 -8.313371297577163E-006
                   230 -3.771629384468771E-005
                   231 -5.152970435669864E-012
                   232 -7.792841774689754E-005
                   233 -3.271294939481971E-004
                   234  6.197391065712214E-006
                   235  6.595591872439592E-007
                   236 -1.442924490006989E-012
                   237 -7.235249936956144E-005
                   238 -3.839012833866458E-004
                   239 -6.461703261282034E-006
                   240 -5.416929997779514E-006
                   241 -4.634415332189298E-012
                   242  2.029047750129594E-005
                   243 -4.750035128108385E-005
                   244  1.619424301400554E-006
                   245  1.242275743976621E-005
                   246 -2.341082364199523E-012
 Sym= __2_A__
 Ene=  0.000000000000000E+000
 Spin= Alpha
 Occup=    2.00000000000000     
                     1 -5.484675972493734E-005
                     2 -2.496227457805568E-004
                     3  2.487586126629018E-003
                     4  1.040247731095017E-004
                     5  1.289175828504478E-003
                     6 -8.085368385092586E-005
                     7  2.734559283189298E-003
                     8 -3.777202479245600E-012
                     9 -1.313330757127333E-005
                    10 -9.415769594189713E-005
                    11 -2.849698464979060E-012
                    12 -4.942192619505427E-007
                    13 -3.917606614458720E-004
                    14  2.436573908188678E-012
                    15  3.225566303091615E-005
                    16 -3.350711837564765E-012
                    17 -4.462914993657447E-013
                    18 -6.454398152439172E-005
                    19  3.621653261227210E-006
                    20 -1.295708972130659E-004
                    21  1.297760704155839E-012
                    22  1.741430032352508E-013
                    23  3.008731358036100E-004
                    24 -7.481841134773944E-005
                    25  2.622167894653394E-012
                    26 -9.693126796569621E-006
                    27  1.214037988794289E-004
                    28  2.623310800644014E-012
                    29 -4.067459181571608E-012
                    30 -4.830406403452051E-005
                    31  1.684688391080995E-004
                    32   1.00104257260291     
                    33  9.049276031997755E-003
                    34  2.671183146648686E-003
                    35 -7.741511883167381E-003
                    36  2.079153335545206E-005
                    37 -4.275283481979948E-003
                    38  7.322890300463454E-012
                    39 -1.849256954735298E-004
                    40  1.423568106725960E-003
                    41 -7.552781418758885E-012
                    42 -8.151394693801550E-005
                    43  4.369944162454572E-003
                    44 -3.040479802683128E-012
                    45 -5.893552905710255E-004
                    46  4.464202967097093E-012
                    47 -1.347461542888405E-013
                    48 -1.959287635083044E-004
                    49  3.065793589992477E-005
                    50  5.397404827002410E-004
                    51 -4.547973433908262E-012
                    52  9.429341076358123E-013
                    53 -7.397777413240037E-004
                    54 -2.604264594712741E-004
                    55 -2.888820796893375E-012
                    56  1.017785521239573E-005
                    57  5.698162117999787E-005
                    58 -7.904809971127576E-013
                    59 -2.915227470217224E-012
                    60 -2.632811149966612E-005
                    61  4.198919971065270E-004
                    62  7.087137792851564E-003
                    63 -2.021507602299078E-003
                    64 -2.288455259709264E-004
                    65  2.748615875086106E-003
                    66  1.173300773673247E-004
                    67  9.048289579371545E-006
                    68 -3.913392283010413E-012
                    69  3.902616314608047E-004
                    70  1.439074045057778E-004
                    71  1.969116061623326E-012
                    72 -2.111420233172321E-003
                    73  2.315440053893919E-004
                    74  1.899696331535471E-012
                    75  4.451176562237309E-005
                    76 -1.485483139633584E-012
                    77 -1.035444549892066E-012
                    78 -5.924023429671978E-006
                    79  2.587568140232846E-005
                    80 -3.886810960778709E-004
                    81  7.080939465718837E-013
                    82  3.357954170618965E-012
                    83 -7.321231556152502E-004
                    84 -3.533626966630003E-004
                    85  3.151352312770122E-012
                    86  3.829987335683555E-005
                    87 -5.371741282682629E-005
                    88 -5.989024619259554E-012
                    89 -4.412493819266174E-012
                    90  5.665265342178725E-005
                    91  1.404818314544362E-004
                    92  7.714024118375690E-003
                    93 -2.074430549217554E-003
                    94 -2.906182452697390E-004
                    95  3.132732165303796E-003
                    96 -6.033507608697165E-005
                    97 -4.152698682243966E-007
                    98  3.490027146172887E-012
                    99 -6.825769537328158E-004
                   100  7.635712026622837E-005
                   101 -4.748041857926074E-012
                   102  1.892371805652401E-003
                   103  7.786617532538433E-005
                   104  1.177431872773031E-012
                   105  3.523552984230783E-005
                   106 -3.152656337499344E-012
                   107 -8.231753671558522E-014
                   108 -2.769726380544072E-006
                   109 -1.602877919818176E-005
                   110 -4.045623168265597E-004
                   111  1.981149765581381E-012
                   112 -8.321728422283235E-012
                   113 -5.722880735550150E-004
                   114  3.638563519770754E-004
                   115 -3.291908212958149E-012
                   116 -3.687314716016209E-005
                   117 -6.170373665906978E-005
                   118  3.628981435288440E-012
                   119 -4.391513433955388E-013
                   120 -3.409086248936595E-005
                   121  1.296160435295832E-004
                   122 -2.520628686024821E-004
                   123 -7.544445319132255E-004
                   124  2.284330076631665E-004
                   125 -1.649959140885007E-004
                   126 -2.203899290530092E-005
                   127 -2.747902209087094E-004
                   128 -2.418637606508806E-012
                   129 -5.197848702432267E-006
                   130  5.745693930819517E-004
                   131 -7.013829652511866E-013
                   132  4.007676667876683E-004
                   133  7.922682045544318E-004
                   134  4.015093026937927E-013
                   135  2.084835713295873E-005
                   136 -1.875577964019478E-013
                   137  5.180386881741357E-012
                   138  3.832395431528694E-006
                   139  4.973877634755068E-005
                   140  1.215562997114853E-004
                   141  3.326990491985647E-013
                   142 -7.292129858389632E-013
                   143  2.798877522506714E-004
                   144 -2.161949542497985E-004
                   145  2.550914359039155E-012
                   146  3.979918359650771E-006
                   147 -2.743908229382666E-005
                   148  2.727200670111836E-012
                   149 -4.512535436085964E-012
                   150 -3.679820470783680E-005
                   151  2.583616458851640E-005
                   152 -2.290634964461154E-004
                   153 -7.394775582361788E-004
                   154  2.361506480630276E-004
                   155 -1.405349058898477E-004
                   156  7.734767099624114E-006
                   157 -2.785900947752331E-004
                   158 -1.264608189231022E-011
                   159  3.887464456863460E-005
                   160  5.514393228825169E-004