===========================================================
===                   runc                              ===
===           version 7.0.2 , April 2021              ===
===          requires COLUMBUS version Col_7.0.2        ===
===                                                     ===
===   written by: Thomas Mueller                        ===
===   gradient ext. by: Michal Dallos                   ===
===               University of Vienna                  ===
===   maintained by: Felix Plasser                      ===
===               Loughborough University               ===
===========================================================


coremem. (seq.): 200000 MB,  coremem. (par.): 19000 MB
Vdisk size: 0 DP
Reading job control file control.run ... 
 ****** This is an 2c-QDPT MRCISD calculation ****** 
 model space size=4:0:4
SMOLCAS=/home-4/yshen57@jhu.edu/Software/Chemistry/Columbus-7.0.2_OpenMolcas-18.09-col/OpenMolcas/build
Found serial Molcas Installation at /home-4/yshen57@jhu.edu/Software/Chemistry/Columbus-7.0.2_OpenMolcas-18.09-col/OpenMolcas/build
  done 
INFO: keywords nadcoupl and seward are supported for DCI mode only!
seward specified, using also alaska
Creating various directories ... 
 done 
SMOLCAS=/home-4/yshen57@jhu.edu/Software/Chemistry/Columbus-7.0.2_OpenMolcas-18.09-col/OpenMolcas/build
PMOLCAS=
Checking for illegal keywords and keyword combinations ... done 

 Nonadiabatic coupling term calculation type: DCI+DCSF
  States involved in calcualtion:
   DRT1,state1;  DRT1,state2
   DRT1,state1;  DRT1,state3
   DRT1,state1;  DRT1,state4
   DRT1,state2;  DRT1,state3
   DRT1,state2;  DRT1,state4
   DRT1,state3;  DRT1,state4
   DRT2,state1;  DRT2,state2
   DRT2,state1;  DRT2,state3
   DRT2,state1;  DRT2,state4
   DRT2,state2;  DRT2,state3
   DRT2,state2;  DRT2,state4
   DRT2,state3;  DRT2,state4

Additional gradients computed:
   DRT1,state1
   DRT1,state2
   DRT1,state3
   DRT1,state4
   DRT2,state1
   DRT2,state2
   DRT2,state3
   DRT2,state4

Checking for complete set of input files ... 
mcscf calculation without preceeding scf calculation 
will use 
 /scratch/users/yshen57@jhu.edu/Molcas/linear-path/min-B1_min-B2/3/mrci/mocoef as starting MOs 
Performing coupled non-rel. SO-CI calculation, nrroots: 4 0 4
starting cidrt.x   -m 200000 < cidrtin > temp at Fri May 27 16:27:42 EDT 2022

 -------------------- cidrt.x ------------------------
 spatial symmetry:  
 total number of configurations          0
 number of reference configurations     0
 --------------------------------------------------- 
 Preparing SO cidrtin files for 1 symmetries
cat ../cidrtin | sed -e 's/^.*input the molecular spatial symmetry/1 \/ molsym/' > cidrtin.so_A 
calling cidrt.x -m 200000 < cidrtin.so_A > cidrtls.soci_A ...
Checking the DRTs for consistency ...
calling reindex.x -i 1 -m 200000  ...
done

 ++++++++++++++++++ input file generation +++++++++++++ 
 runc start: Fri May 27 16:28:02 EDT 2022
 
  runc start: Fri May 27 16:28:02 EDT 2022
 
 starting unik.gets.x > unikls at Fri May 27 16:28:02 EDT 2022

 -------------------- unik.gets.x ------------------------
 --------------------------------------------------- 
 ++++++++++++++++++++ ao integral calculation ++++++++++++++++
starting pymolcas molcas.input.seward > molcas.output.seward  at Fri May 27 16:28:02 EDT 2022

Generating link ln -s ./molcas.OrdInt ORDINT 
 -------------------- seward ------------------------
      Basis set label: N.ANILINE.........
      Basis set label: C.ANILINE.........
      Basis set label: H.ANILINE.........
  Nuclear Coordinates in                   atomic units                                   Angstrom 
     Center  Label                x              y              z                     x              y              z
        1      N1              -4.357689       0.199891       0.000630             -2.305989       0.105778       0.000334
        2      C2              -1.778110       0.056184       0.000578             -0.940935       0.029731       0.000306
        3      C3              -0.449369       0.043618      -2.348125             -0.237796       0.023082      -1.242574
        4      C4              -0.449437       0.040679       2.349301             -0.237832       0.021526       1.243196
        5      C5               2.197499      -0.009229      -2.318742              1.162866      -0.004884      -1.227025
        6      C6               2.197432      -0.012131       2.319927              1.162831      -0.006420       1.227653
        7      C7               3.497150      -0.039724       0.000593              1.850612      -0.021021       0.000314
        8      H8              -5.319403      -0.205437      -1.620201             -2.814907      -0.108713      -0.857373
        9      H9              -5.319450      -0.207466       1.620926             -2.814931      -0.109786       0.857757
       10      H10             -1.484418       0.081740      -4.084763             -0.785520       0.043255      -2.161563
       11      H11             -1.484536       0.076627       4.085955             -0.785582       0.040549       2.162194
       12      H12              3.234389      -0.026569      -4.057174              1.711565      -0.014060      -2.146964
       13      H13              3.234273      -0.031647       4.058366              1.711503      -0.016747       2.147595
       14      H14              5.525111      -0.077960       0.000599              2.923763      -0.041255       0.000317
 
            Nuclear Potential Energy            270.28802044 au
 --------------------------------------------------- 
  >>>>>>>>>>>>> info: preparing drt no 1 out of 1 <<<<<<
starting mcdrt.x -m 200000 < mcdrtin > mcdrtls at Fri May 27 16:33:34 EDT 2022

 -------------------- mcdrt.x ------------------------
  Spin multiplicity: singlet 
  Spatial symmetry (#): 1
  Number of Configurations:       1275 
  --------------------------------------------------- 
 starting mcuft.x at Fri May 27 16:33:34 EDT 2022

 -------------------- mcuft.x ------------------------
 --------------------------------------------------- 
 ++++++++++++++++++++ MCSCF calculation +++++++++++++++
info: taking mocoef file from /scratch/users/yshen57@jhu.edu/Molcas/linear-path/min-B1_min-B2/3/mrci/mocoef
adding flag 30 to mcscfin
Writing mcdenin files for mcscf.x for 1 DRTs
adding flag 26 to mcscfin
starting mcscf.x -m 200000 at Fri May 27 16:33:35 EDT 2022

 -------------------- mcscf.x ------------------------
 Individual total energies for all states: 
    DRT #1 state # 1 wt 0.250 total energy=     -285.902371432, rel. (eV)=   0.000000
    DRT #1 state # 2 wt 0.250 total energy=     -285.704616151, rel. (eV)=   5.381197
    DRT #1 state # 3 wt 0.250 total energy=     -285.680936251, rel. (eV)=   6.025560
    DRT #1 state # 4 wt 0.250 total energy=     -285.636485679, rel. (eV)=   7.235123
  --------------------------------------------------- 
 starting mcpc.x -m 200000 < mcpcin > mcpcls at Fri May 27 16:36:29 EDT 2022

 -------------------- mcpc.x ------------------------
 --------------------------------------------------- 
 starting mcpc.x -m 200000 < mcpcin > mcpcls at Fri May 27 16:36:29 EDT 2022

 -------------------- mcpc.x ------------------------
 --------------------------------------------------- 
 starting mcpc.x -m 200000 < mcpcin > mcpcls at Fri May 27 16:36:29 EDT 2022

 -------------------- mcpc.x ------------------------
 --------------------------------------------------- 
 starting mcpc.x -m 200000 < mcpcin > mcpcls at Fri May 27 16:36:29 EDT 2022

 -------------------- mcpc.x ------------------------
 --------------------------------------------------- 
 
========= state properties for state-averaged MCSCF =========
mcscf.drt1.st01.sp
starting exptvl.x -m 200000   at Fri May 27 16:36:29 EDT 2022

 -------------------- exptvl.x ------------------------
  === dipole moment === 
                     X               Y               Z   
   orign x       0.00000000      0.00000000      0.00000000
   orign y       0.00000000      0.00000000      0.00000000
   orign z       0.00000000      0.00000000      0.00000000
   nuclear      -0.82686374      1.48490981      0.02931755
   electronic   -0.02396046     -1.73945355     -0.02948906
   total        -0.85082420     -0.25454374     -0.00017151
   total Dipole moment =   2.25728829    Debye
 --------------------------------------------------- 
 mcscf.drt1.st02.sp
starting exptvl.x -m 200000   at Fri May 27 16:36:30 EDT 2022

 -------------------- exptvl.x ------------------------
  === dipole moment === 
                     X               Y               Z   
   orign x       0.00000000      0.00000000      0.00000000
   orign y       0.00000000      0.00000000      0.00000000
   orign z       0.00000000      0.00000000      0.00000000
   nuclear      -0.82686374      1.48490981      0.02931755
   electronic    4.37657254     -1.80970286     -0.02946981
   total         3.54970880     -0.32479305     -0.00015226
   total Dipole moment =   9.06015804    Debye
 --------------------------------------------------- 
 mcscf.drt1.st03.sp
starting exptvl.x -m 200000   at Fri May 27 16:36:30 EDT 2022

 -------------------- exptvl.x ------------------------
  === dipole moment === 
                     X               Y               Z   
   orign x       0.00000000      0.00000000      0.00000000
   orign y       0.00000000      0.00000000      0.00000000
   orign z       0.00000000      0.00000000      0.00000000
   nuclear      -0.82686374      1.48490981      0.02931755
   electronic   -0.44985562     -1.69507269     -0.02946740
   total        -1.27671936     -0.21016288     -0.00014985
   total Dipole moment =   3.28877254    Debye
 --------------------------------------------------- 
 mcscf.drt1.st04.sp
starting exptvl.x -m 200000   at Fri May 27 16:36:30 EDT 2022

 -------------------- exptvl.x ------------------------
  === dipole moment === 
                     X               Y               Z   
   orign x       0.00000000      0.00000000      0.00000000
   orign y       0.00000000      0.00000000      0.00000000
   orign z       0.00000000      0.00000000      0.00000000
   nuclear      -0.82686374      1.48490981      0.02931755
   electronic    5.29706894     -1.86081150     -0.02948857
   total         4.47020520     -0.37590169     -0.00017102
   total Dipole moment =  11.40224086    Debye
 --------------------------------------------------- 
  using the MCSCF MOs ... 
starting cidrt.x  -m 200000 < cidrtin.1 > cidrtls at Fri May 27 16:36:31 EDT 2022

 -------------------- cidrt.x ------------------------
 total number of orbitals            :   246
 number of frozen core orbitals      :    18
 number of frozen virtual orbitals   :     0
 number of internal orbitals         :    14
 number of external orbitals         :   214
 spatial symmetry:   a  
 
 total number of configurations  158587185
 number of reference configurations  1275
 --------------------------------------------------- 
 starting cidrt.x  -m 200000 < cidrtin.2 > cidrtls at Fri May 27 16:36:33 EDT 2022

 -------------------- cidrt.x ------------------------
 total number of orbitals            :   246
 number of frozen core orbitals      :    18
 number of frozen virtual orbitals   :     0
 number of internal orbitals         :    14
 number of external orbitals         :   214
 spatial symmetry:   a  
 
 total number of configurations  282461366
 number of reference configurations  1666
 --------------------------------------------------- 
 starting tran.x -m 200000  at Fri May 27 16:36:39 EDT 2022

 -------------------- tran.x ------------------------
 --------------------------------------------------- 
  Starting ciudgav with DRT # 1 out of 2 

 *** starting pciudg section *** 
nproc: 48 machinefile:  
assuming machinefile syntax: one host name per line optionally repeated
 section2, MPI_STARTUP:
 /software/apps/mpi/openmpi/3.1/intel/18.0/bin/mpirun -np 48  /home-4/yshen57@jhu.edu/Software/Chemistry/Columbus-7.0.2_OpenMolcas-18.09-col/Columbus/pciudg.x -m 19000 
 -------------------- pciudg.x ------------------------
 type of calculation:          mr-sdci
 number of configurations:     158587185
 total mr-sdci energy             -286.0993018327 
 last mr-sdci energy change           0.0000000000 
 residual                             0.0000080472 
  type of calculation:          mr-sdci
 number of configurations:     158587185
 total mr-sdci energy             -285.9380928032 
 last mr-sdci energy change           0.0000000000 
 residual                             0.0000084897 
  type of calculation:          mr-sdci
 number of configurations:     158587185
 total mr-sdci energy             -285.9246790602 
 last mr-sdci energy change           0.0000000000 
 residual                             0.0000058708 
  type of calculation:          mr-sdci
 number of configurations:     158587185
 total mr-sdci energy             -285.8709309977 
 last mr-sdci energy change           0.0000000001 
 residual                             0.0000071404 
  --------------------------------------------------- 
 keyinfile returned docipci=0:
starting cipc.x -m 200000 < cipcin > cipcls at Sat May 28 08:47:44 EDT 2022

 -------------------- cipc.x ------------------------
 --------------------------------------------------- 
  Starting ciudgav with DRT # 2 out of 2 

 *** starting pciudg section *** 
nproc: 48 machinefile:  
assuming machinefile syntax: one host name per line optionally repeated
 section2, MPI_STARTUP:
 /software/apps/mpi/openmpi/3.1/intel/18.0/bin/mpirun -np 48  /home-4/yshen57@jhu.edu/Software/Chemistry/Columbus-7.0.2_OpenMolcas-18.09-col/Columbus/pciudg.x -m 19000 
 -------------------- pciudg.x ------------------------
 type of calculation:          mr-sdci
 number of configurations:     282461366
 total mr-sdci energy             -285.9518798750 
 last mr-sdci energy change           0.0000000000 
 residual                             0.0000066330 
  type of calculation:          mr-sdci
 number of configurations:     282461366
 total mr-sdci energy             -285.9413023185 
 last mr-sdci energy change          -0.0000000000 
 residual                             0.0000083269 
  type of calculation:          mr-sdci
 number of configurations:     282461366
 total mr-sdci energy             -285.9405167912 
 last mr-sdci energy change           0.0000000001 
 residual                             0.0000086611 
  type of calculation:          mr-sdci
 number of configurations:     282461366
 total mr-sdci energy             -285.9221096084 
 last mr-sdci energy change           0.0000000000 
 residual                             0.0000090037 
  --------------------------------------------------- 
 keyinfile returned docipci=0:
starting cipc.x -m 200000 < cipcin > cipcls at Sun May 29 20:52:45 EDT 2022

 -------------------- cipc.x ------------------------
 --------------------------------------------------- 
 Reindex call
run_socinr: imult=1 irrep=1 
opening file =ciudgls.drt1.sp
opening file =ciudgls.drt1.sp
opening file =ciudgls.drt1.sp
opening file =ciudgls.drt1.sp
run_socinr: imult=3 irrep=1 
opening file =ciudgls.drt2.sp
opening file =ciudgls.drt2.sp
opening file =ciudgls.drt2.sp
opening file =ciudgls.drt2.sp
 copying /scratch/users/yshen57@jhu.edu/Molcas/linear-path/min-B1_min-B2/3/mrci/cidrtfl.so__A --> cidrtfl.so__A 
 copying /scratch/users/yshen57@jhu.edu/Molcas/linear-path/min-B1_min-B2/3/mrci/cidrtfl.so__A --> cidrtfl.so__A 
starting reindex.x -m 200000 > reindexls at Sun May 29 20:53:04 EDT 2022

 -------------------- reindex.x ------------------------
 --------------------------------------------------- 
 1      1        1           civfl_1_A             1      1    0+       1             1         civfl.so__A
1      1        2           civfl_1_A             1      1    0+       2    1005971284         civfl.so__A
1      1        3           civfl_1_A             1      1    0+       3    2011942567         civfl.so__A
1      1        4           civfl_1_A             1      1    0+       4    3017913850         civfl.so__A
3      1        1           civfl_3_A             1      3    0+       5    4023885133         civfl.so__A
3      1        1           civfl_3_A             1      3    1+       6    5029856416         civfl.so__A
3      1        1           civfl_3_A             1      3    1-       7    6035827699         civfl.so__A
3      1        2           civfl_3_A             1      3    0+       8    7041798982         civfl.so__A
3      1        2           civfl_3_A             1      3    1+       9    8047770265         civfl.so__A
3      1        2           civfl_3_A             1      3    1-      10    9053741548         civfl.so__A
3      1        3           civfl_3_A             1      3    0+      11   10059712831         civfl.so__A
3      1        3           civfl_3_A             1      3    1+      12   11065684114         civfl.so__A
3      1        3           civfl_3_A             1      3    1-      13   12071655397         civfl.so__A
3      1        4           civfl_3_A             1      3    0+      14   13077626680         civfl.so__A
3      1        4           civfl_3_A             1      3    1+      15   14083597963         civfl.so__A
3      1        4           civfl_3_A             1      3    1-      16   15089569246         civfl.so__A
 Executing ciudg.x  for gamma =A ...

 *** starting pciudg section *** 
nproc: 48 machinefile:  
assuming machinefile syntax: one host name per line optionally repeated
 section2, MPI_STARTUP:
 /software/apps/mpi/openmpi/3.1/intel/18.0/bin/mpirun -np 48  /home-4/yshen57@jhu.edu/Software/Chemistry/Columbus-7.0.2_OpenMolcas-18.09-col/Columbus/pciudg.x -m 19000 
 -------------------- pciudg.x ------------------------
 type of calculation:          mr-sdci
 number of configurations:     1005971283
 total mr-sdci energy             -286.0993018357 
 last mr-sdci energy change           0.0000000030 
 residual                            36.1800000000 
  type of calculation:          mr-sdci
 number of configurations:     1005971283
 total mr-sdci energy             -285.9518798899 
 last mr-sdci energy change           0.0137870000 
 residual                            36.0330000000 
  type of calculation:          mr-sdci
 number of configurations:     1005971283
 total mr-sdci energy             -285.9518798898 
 last mr-sdci energy change           0.0272010000 
 residual                            36.0330000000 
  type of calculation:          mr-sdci
 number of configurations:     1005971283
 total mr-sdci energy             -285.9518798854 
 last mr-sdci energy change           0.0809490000 
 residual                            36.0330000000 
  type of calculation:          mr-sdci
 number of configurations:     1005971283
 total mr-sdci energy             -285.9413023238 
 last mr-sdci energy change          -0.0105780000 
 residual                            36.0220000000 
  type of calculation:          mr-sdci
 number of configurations:     1005971283
 total mr-sdci energy             -285.9413023232 
 last mr-sdci energy change          -0.0105780000 
 residual                            36.0220000000 
  type of calculation:          mr-sdci
 number of configurations:     1005971283
 total mr-sdci energy             -285.9413023194 
 last mr-sdci energy change          -0.0105780000 
 residual                            36.0220000000 
  type of calculation:          mr-sdci
 number of configurations:     1005971283
 total mr-sdci energy             -285.9405167843 
 last mr-sdci energy change          -0.0007855300 
 residual                            36.0210000000 
  type of calculation:          mr-sdci
 number of configurations:     1005971283
 total mr-sdci energy             -285.9405167784 
 last mr-sdci energy change          -0.0007855400 
 residual                            36.0210000000 
  type of calculation:          mr-sdci
 number of configurations:     1005971283
 total mr-sdci energy             -285.9405167733 
 last mr-sdci energy change          -0.0007855500 
 residual                            36.0210000000 
  type of calculation:          mr-sdci
 number of configurations:     1005971283
 total mr-sdci energy             -285.9380927925 
 last mr-sdci energy change          -0.0024240000 
 residual                            36.0190000000 
  type of calculation:          mr-sdci
 number of configurations:     1005971283
 total mr-sdci energy             -285.9246790596 
 last mr-sdci energy change          -0.0158380000 
 residual                            36.0060000000 
  type of calculation:          mr-sdci
 number of configurations:     1005971283
 total mr-sdci energy             -285.9221096070 
 last mr-sdci energy change          -0.0184070000 
 residual                            36.0030000000 
  type of calculation:          mr-sdci
 number of configurations:     1005971283
 total mr-sdci energy             -285.9221096069 
 last mr-sdci energy change          -0.0000000015 
 residual                            36.0030000000 
  type of calculation:          mr-sdci
 number of configurations:     1005971283
 total mr-sdci energy             -285.9221096069 
 last mr-sdci energy change          -0.0000000015 
 residual                            36.0030000000 
  type of calculation:          mr-sdci
 number of configurations:     1005971283
 total mr-sdci energy             -285.8709309971 
 last mr-sdci energy change          -0.0511790000 
 residual                            35.9520000000 
  --------------------------------------------------- 
 ************* Results for Spin-Orbit CI gamma=A **************** 
Final spin-orbit CI state energies: 


-------------- HT matrix in AU ----------------  
-36.180142    
 0.000000    -36.018933    
 0.000000     0.000000    -36.005519    
 0.000000     0.000000     0.000000    -35.951771    
-0.000005     0.000012     0.000000    -0.000000    -36.032720    
 0.000000    -0.000000     0.000000    -0.000000     0.000000    -36.032720    
 0.000000    -0.000000     0.000002     0.000002    -0.000000    -0.000000    -36.032720    
-0.000000    -0.000000    -0.000000     0.000006     0.000000     0.000001    -0.000000    -36.022142    
-0.000000    -0.000001     0.000000    -0.000000    -0.000001     0.000000     0.000000    -0.000000    -36.022142    
-0.000004     0.000002     0.000000    -0.000000     0.000000    -0.000000     0.000000    -0.000000    -0.000000    -36.022142    
-0.000021    -0.000001     0.000000     0.000000     0.000000    -0.000000     0.000000     0.000000     0.000002     0.000001    -36.021357    
 0.000000     0.000000     0.000001     0.000000     0.000000     0.000000     0.000013    -0.000002     0.000000    -0.000000     0.000000    -36.021357    
 0.000000     0.000000    -0.000003    -0.000001    -0.000000    -0.000013     0.000000    -0.000001     0.000000     0.000000     0.000000     0.000000    -36.021357    
 0.000000    -0.000005     0.000000    -0.000000     0.000000    -0.000000     0.000000     0.000000     0.000002    -0.000000     0.000000    -0.000000     0.000000    -36.002949    
-0.000000     0.000000     0.000000    -0.000000     0.000000     0.000000     0.000001    -0.000002     0.000000     0.000000     0.000000     0.000000     0.000005     0.000000    -36.002949    
-0.000000     0.000000     0.000000     0.000001    -0.000000    -0.000001     0.000000     0.000000    -0.000000     0.000000    -0.000000    -0.000005     0.000000    -0.000000     0.000000    -36.002949    
-------------- HT matrix in eV ---------------- 
 -984.512   
    0.000    -980.125   
    0.000       0.000    -979.760   
    0.000       0.000       0.000    -978.297   
   -0.000       0.000       0.000      -0.000    -980.500   
    0.000      -0.000       0.000      -0.000       0.000    -980.500   
    0.000      -0.000       0.000       0.000      -0.000      -0.000    -980.500   
   -0.000      -0.000      -0.000       0.000       0.000       0.000      -0.000    -980.212   
   -0.000      -0.000       0.000      -0.000      -0.000       0.000       0.000      -0.000    -980.212   
   -0.000       0.000       0.000      -0.000       0.000      -0.000       0.000      -0.000      -0.000    -980.212   
   -0.001      -0.000       0.000       0.000       0.000      -0.000       0.000       0.000       0.000       0.000    -980.191   
    0.000       0.000       0.000       0.000       0.000       0.000       0.000      -0.000       0.000      -0.000       0.000    -980.191   
    0.000       0.000      -0.000      -0.000      -0.000      -0.000       0.000      -0.000       0.000       0.000       0.000       0.000    -980.191   
    0.000      -0.000       0.000      -0.000       0.000      -0.000       0.000       0.000       0.000      -0.000       0.000      -0.000       0.000    -979.690   
   -0.000       0.000       0.000      -0.000       0.000       0.000       0.000      -0.000       0.000       0.000       0.000       0.000       0.000       0.000    -979.690   
   -0.000       0.000       0.000       0.000      -0.000      -0.000       0.000       0.000      -0.000       0.000      -0.000      -0.000       0.000      -0.000       0.000    -979.690   
-------------- HT matrix in cm-1 ------------------- 
Eref = -36.18014159
     0.00   
     0.00    35381.35   
     0.00        0.00    38325.33   
     0.00        0.00        0.00    50121.69   
    -0.99        2.64        0.00        0.00    32355.43   
     0.00       -0.00        0.07       -0.01        0.00    32355.43   
     0.00        0.00        0.47        0.36        0.00        0.00    32355.43   
     0.00        0.00       -0.01        1.38        0.00        0.19       -0.04    34676.94   
    -0.07       -0.13        0.00        0.00       -0.19        0.00        0.00        0.00    34676.94   
    -0.79        0.36        0.00        0.00        0.04        0.00        0.00        0.00        0.00    34676.94   
    -4.62       -0.26        0.00        0.00        0.00        0.00        0.00        0.00        0.40        0.13    34849.35   
     0.00        0.00        0.14        0.03        0.00        0.00        2.83       -0.40        0.00        0.00        0.00    34849.35   
     0.00        0.00       -0.58       -0.18       -0.00       -2.83        0.00       -0.13        0.00        0.00        0.00        0.00    34849.35   
     0.11       -1.02        0.00        0.00        0.00        0.00        0.00        0.00        0.36       -0.03        0.00        0.00        0.00    38889.26   
     0.00        0.00        0.00       -0.07        0.00        0.00        0.16       -0.36        0.00        0.00        0.00        0.00        1.10        0.00    38889.26   
     0.00        0.00        0.04        0.27        0.00       -0.16        0.00        0.03        0.00        0.00        0.00       -1.10        0.00        0.00        0.00    38889.26   


Spin-Orbit CI: perturbational estimate of Spin-Orbit CI energies and wavefunctions 
                SO   1         SO   2         SO   3         SO   4         SO   5         SO   6         SO   7         SO   8

   energy  -286.09930184  -285.95187989  -285.95187989  -285.95187989  -285.94130232  -285.94130232  -285.94130232  -285.94051678
 
   NR   1    -0.99999999     0.00000000    -0.00000000    -0.00003066    -0.00000000    -0.00000850     0.00002103    -0.00013258
   NR   2     0.00000000    -0.00000000     0.00000000    -0.00087193    -0.00000000     0.00001988     0.00054795     0.00048661
   NR   3     0.00000000     0.00007890     0.00000541    -0.00000000    -0.00000154     0.00000000     0.00000000    -0.00000000
   NR   4     0.00000000     0.00002020    -0.00000230    -0.00000000     0.00008924    -0.00000000     0.00000000    -0.00000000
   NR   5    -0.00003066    -0.00006524    -0.00062254     0.99999942    -0.00000005    -0.00007190    -0.00003866     0.00000041
   NR   6     0.00000002    -0.08136637    -0.99668341    -0.00062578    -0.00007946     0.00000005     0.00000002    -0.00000000
   NR   7     0.00000000    -0.99668361     0.08136640    -0.00001437     0.00001309     0.00000000     0.00000000     0.00000000
   NR   8    -0.00000000    -0.00000912     0.00008134     0.00000005    -0.99999684     0.00060268     0.00017244     0.00000145
   NR   9    -0.00000211     0.00000001    -0.00000005     0.00008035     0.00062665     0.95399326     0.29981846     0.00230390
   NR  10    -0.00002271     0.00000000    -0.00000000    -0.00001577     0.00001619     0.29981757    -0.95399610     0.00077227
   NR  11    -0.00013256     0.00000071    -0.00000007    -0.00000016    -0.00000146    -0.00242946     0.00004573     0.99999672
   NR  12     0.00000008     0.00113257    -0.00009246     0.00000000    -0.00230440     0.00000152    -0.00000003    -0.00062576
   NR  13     0.00000000    -0.00009245    -0.00113257     0.00000000    -0.00077131     0.00000004    -0.00000000    -0.00001438
   NR  14     0.00000272     0.00000002    -0.00000000    -0.00000014    -0.00000005    -0.00008046    -0.00003308    -0.00000008
   NR  15    -0.00000000     0.00002489    -0.00000184     0.00000000    -0.00008652     0.00000005     0.00000002     0.00000000
   NR  16    -0.00000000    -0.00000184    -0.00002489     0.00000000     0.00000694     0.00000000     0.00000000     0.00000000

                SO   9         SO  10         SO  11         SO  12         SO  13         SO  14         SO  15         SO  16

   energy  -285.94051678  -285.94051677  -285.93809279  -285.92467906  -285.92210961  -285.92210961  -285.92210961  -285.87093100
 
   NR   1     0.00000000     0.00000000     0.00000003    -0.00000000    -0.00000000    -0.00000272     0.00000000    -0.00000000
   NR   2     0.00000000    -0.00000000     0.99999931    -0.00000000    -0.00000000     0.00029129    -0.00000001    -0.00000000
   NR   3    -0.00017105     0.00001326    -0.00000000    -0.99999998     0.00007752    -0.00000000    -0.00000657    -0.00000000
   NR   4    -0.00001163     0.00000193    -0.00000000     0.00000000    -0.00002356    -0.00000000    -0.00000701    -1.00000000
   NR   5     0.00000068    -0.00000020     0.00087195    -0.00000001    -0.00000002     0.00000012    -0.00000000     0.00000000
   NR   6     0.00108046    -0.00035214    -0.00000055    -0.00001200    -0.00002495    -0.00000000    -0.00000037     0.00000063
   NR   7     0.00035193     0.00108050    -0.00000001    -0.00007824     0.00000038    -0.00000000    -0.00002496    -0.00002032
   NR   8     0.00001956    -0.00242992    -0.00000011     0.00000151     0.00000585    -0.00000005     0.00008686    -0.00008924
   NR   9    -0.00000001     0.00000152    -0.00018427    -0.00000000    -0.00000000    -0.00008673    -0.00000005     0.00000006
   NR  10    -0.00000000     0.00000003     0.00051639    -0.00000000    -0.00000000     0.00000758    -0.00000000     0.00000000
   NR  11     0.00018013     0.00059944    -0.00048658    -0.00000002    -0.00000017    -0.00000002    -0.00000001    -0.00000000
   NR  12     0.30971833     0.95082463     0.00000030    -0.00004030    -0.00027217    -0.00000000    -0.00000543    -0.00000195
   NR  13    -0.95082760     0.30971743     0.00000001     0.00016673     0.00000541    -0.00000001    -0.00027217     0.00001159
   NR  14     0.00000016    -0.00000005     0.00029131     0.00000001     0.00002691    -0.99999977    -0.00060215     0.00000000
   NR  15     0.00025883    -0.00008458    -0.00000018     0.00000807     0.01984204     0.00060257    -0.99980290     0.00000653
   NR  16     0.00008436     0.00025884    -0.00000000     0.00007737     0.99980309     0.00001496     0.01984205    -0.00002369
rescaling new expansion vector ... old norm=   4341.9486631329

 model space basis from reindexls .. 
 --SO-CI-------         -----NR-CI-------             ---model space---- 
 Gamma  root             S   irrep   root                S   ms* 
A          1             1   A         1                 1   0+
A          2             1   A         2                 1   0+
A          3             1   A         3                 1   0+
A          4             1   A         4                 1   0+
A          5             3   A         1                 3   0+
A          6             3   A         1                 3   1+
A          7             3   A         1                 3   1-
A          8             3   A         2                 3   0+
A          9             3   A         2                 3   1+
A         10             3   A         2                 3   1-
A         11             3   A         3                 3   0+
A         12             3   A         3                 3   1+
A         13             3   A         3                 3   1-
A         14             3   A         4                 3   0+
A         15             3   A         4                 3   1+
A         16             3   A         4                 3   1-

************************** SUMMARY *********************************

--------------  SO matrix for irrep A in eV ---------------- 
|1,0+;1,A,1>  -984.512   
|1,0+;1,A,2>     0.000    -980.125   
|1,0+;1,A,3>     0.000       0.000    -979.760   
|1,0+;1,A,4>     0.000       0.000       0.000    -978.297   
|3,0+;3,A,1>    -0.000       0.000       0.000      -0.000    -980.500   
|3,1+;3,A,1>     0.000      -0.000       0.000      -0.000       0.000    -980.500   
|3,1-;3,A,1>     0.000      -0.000       0.000       0.000      -0.000      -0.000    -980.500   
|3,0+;3,A,2>    -0.000      -0.000      -0.000       0.000       0.000       0.000      -0.000    -980.212   
|3,1+;3,A,2>    -0.000      -0.000       0.000      -0.000      -0.000       0.000       0.000      -0.000    -980.212   
|3,1-;3,A,2>    -0.000       0.000       0.000      -0.000       0.000      -0.000       0.000      -0.000      -0.000    -980.212   
|3,0+;3,A,3>    -0.001      -0.000       0.000       0.000       0.000      -0.000       0.000       0.000       0.000       0.000    -980.191   
|3,1+;3,A,3>     0.000       0.000       0.000       0.000       0.000       0.000       0.000      -0.000       0.000      -0.000       0.000    -980.191   
|3,1-;3,A,3>     0.000       0.000      -0.000      -0.000      -0.000      -0.000       0.000      -0.000       0.000       0.000       0.000       0.000    -980.191   
|3,0+;3,A,4>     0.000      -0.000       0.000      -0.000       0.000      -0.000       0.000       0.000       0.000      -0.000       0.000      -0.000       0.000    -979.690   
|3,1+;3,A,4>    -0.000       0.000       0.000      -0.000       0.000       0.000       0.000      -0.000       0.000       0.000       0.000       0.000       0.000       0.000    -979.690   
|3,1-;3,A,4>    -0.000       0.000       0.000       0.000      -0.000      -0.000       0.000       0.000      -0.000       0.000      -0.000      -0.000       0.000      -0.000       0.000    -979.690   

--------------  SO matrix for irrep A in cm-1 ------------------- 
Eref = -36.18014159
|1,0+;1,A,1>      0.00   
|1,0+;1,A,2>      0.00    35381.35   
|1,0+;1,A,3>      0.00        0.00    38325.33   
|1,0+;1,A,4>      0.00        0.00        0.00    50121.69   
|3,0+;3,A,1>     -0.99        2.64        0.00        0.00    32355.43   
|3,1+;3,A,1>      0.00       -0.00        0.07       -0.01        0.00    32355.43   
|3,1-;3,A,1>      0.00        0.00        0.47        0.36        0.00        0.00    32355.43   
|3,0+;3,A,2>      0.00        0.00       -0.01        1.38        0.00        0.19       -0.04    34676.94   
|3,1+;3,A,2>     -0.07       -0.13        0.00        0.00       -0.19        0.00        0.00        0.00    34676.94   
|3,1-;3,A,2>     -0.79        0.36        0.00        0.00        0.04        0.00        0.00        0.00        0.00    34676.94   
|3,0+;3,A,3>     -4.62       -0.26        0.00        0.00        0.00        0.00        0.00        0.00        0.40        0.13    34849.35   
|3,1+;3,A,3>      0.00        0.00        0.14        0.03        0.00        0.00        2.83       -0.40        0.00        0.00        0.00    34849.35   
|3,1-;3,A,3>      0.00        0.00       -0.58       -0.18       -0.00       -2.83        0.00       -0.13        0.00        0.00        0.00        0.00    34849.35   
|3,0+;3,A,4>      0.11       -1.02        0.00        0.00        0.00        0.00        0.00        0.00        0.36       -0.03        0.00        0.00        0.00    38889.26   
|3,1+;3,A,4>      0.00        0.00        0.00       -0.07        0.00        0.00        0.16       -0.36        0.00        0.00        0.00        0.00        1.10        0.00    38889.26   
|3,1-;3,A,4>      0.00        0.00        0.04        0.27        0.00       -0.16        0.00        0.03        0.00        0.00        0.00       -1.10        0.00        0.00        0.00    38889.26   


 ** perturbational estimate of Spin-Orbit CI energies and wavefunctions in model space basis** 

                      A  1         A  2         A  3         A  4         A  5         A  6         A  7         A  8

            energy  -286.09930184  -285.95187989  -285.95187989  -285.95187989  -285.94130232  -285.94130232  -285.94130232  -285.94051678
          
   |1,0+;1,A,1>    -0.99999999     0.00000000    -0.00000000    -0.00003066    -0.00000000    -0.00000850     0.00002103    -0.00013258
   |1,0+;1,A,2>     0.00000000    -0.00000000     0.00000000    -0.00087193    -0.00000000     0.00001988     0.00054795     0.00048661
   |1,0+;1,A,3>     0.00000000     0.00007890     0.00000541    -0.00000000    -0.00000154     0.00000000     0.00000000    -0.00000000
   |1,0+;1,A,4>     0.00000000     0.00002020    -0.00000230    -0.00000000     0.00008924    -0.00000000     0.00000000    -0.00000000
   |3,0+;3,A,1>    -0.00003066    -0.00006524    -0.00062254     0.99999942    -0.00000005    -0.00007190    -0.00003866     0.00000041
   |3,1+;3,A,1>     0.00000002    -0.08136637    -0.99668341    -0.00062578    -0.00007946     0.00000005     0.00000002    -0.00000000
   |3,1-;3,A,1>     0.00000000    -0.99668361     0.08136640    -0.00001437     0.00001309     0.00000000     0.00000000     0.00000000
   |3,0+;3,A,2>    -0.00000000    -0.00000912     0.00008134     0.00000005    -0.99999684     0.00060268     0.00017244     0.00000145
   |3,1+;3,A,2>    -0.00000211     0.00000001    -0.00000005     0.00008035     0.00062665     0.95399326     0.29981846     0.00230390
   |3,1-;3,A,2>    -0.00002271     0.00000000    -0.00000000    -0.00001577     0.00001619     0.29981757    -0.95399610     0.00077227
   |3,0+;3,A,3>    -0.00013256     0.00000071    -0.00000007    -0.00000016    -0.00000146    -0.00242946     0.00004573     0.99999672
   |3,1+;3,A,3>     0.00000008     0.00113257    -0.00009246     0.00000000    -0.00230440     0.00000152    -0.00000003    -0.00062576
   |3,1-;3,A,3>     0.00000000    -0.00009245    -0.00113257     0.00000000    -0.00077131     0.00000004    -0.00000000    -0.00001438
   |3,0+;3,A,4>     0.00000272     0.00000002    -0.00000000    -0.00000014    -0.00000005    -0.00008046    -0.00003308    -0.00000008
   |3,1+;3,A,4>    -0.00000000     0.00002489    -0.00000184     0.00000000    -0.00008652     0.00000005     0.00000002     0.00000000
   |3,1-;3,A,4>    -0.00000000    -0.00000184    -0.00002489     0.00000000     0.00000694     0.00000000     0.00000000     0.00000000

                      A  9         A 10         A 11         A 12         A 13         A 14         A 15         A 16

            energy  -285.94051678  -285.94051677  -285.93809279  -285.92467906  -285.92210961  -285.92210961  -285.92210961  -285.87093100
          
   |1,0+;1,A,1>     0.00000000     0.00000000     0.00000003    -0.00000000    -0.00000000    -0.00000272     0.00000000    -0.00000000
   |1,0+;1,A,2>     0.00000000    -0.00000000     0.99999931    -0.00000000    -0.00000000     0.00029129    -0.00000001    -0.00000000
   |1,0+;1,A,3>    -0.00017105     0.00001326    -0.00000000    -0.99999998     0.00007752    -0.00000000    -0.00000657    -0.00000000
   |1,0+;1,A,4>    -0.00001163     0.00000193    -0.00000000     0.00000000    -0.00002356    -0.00000000    -0.00000701    -1.00000000
   |3,0+;3,A,1>     0.00000068    -0.00000020     0.00087195    -0.00000001    -0.00000002     0.00000012    -0.00000000     0.00000000
   |3,1+;3,A,1>     0.00108046    -0.00035214    -0.00000055    -0.00001200    -0.00002495    -0.00000000    -0.00000037     0.00000063
   |3,1-;3,A,1>     0.00035193     0.00108050    -0.00000001    -0.00007824     0.00000038    -0.00000000    -0.00002496    -0.00002032
   |3,0+;3,A,2>     0.00001956    -0.00242992    -0.00000011     0.00000151     0.00000585    -0.00000005     0.00008686    -0.00008924
   |3,1+;3,A,2>    -0.00000001     0.00000152    -0.00018427    -0.00000000    -0.00000000    -0.00008673    -0.00000005     0.00000006
   |3,1-;3,A,2>    -0.00000000     0.00000003     0.00051639    -0.00000000    -0.00000000     0.00000758    -0.00000000     0.00000000
   |3,0+;3,A,3>     0.00018013     0.00059944    -0.00048658    -0.00000002    -0.00000017    -0.00000002    -0.00000001    -0.00000000
   |3,1+;3,A,3>     0.30971833     0.95082463     0.00000030    -0.00004030    -0.00027217    -0.00000000    -0.00000543    -0.00000195
   |3,1-;3,A,3>    -0.95082760     0.30971743     0.00000001     0.00016673     0.00000541    -0.00000001    -0.00027217     0.00001159
   |3,0+;3,A,4>     0.00000016    -0.00000005     0.00029131     0.00000001     0.00002691    -0.99999977    -0.00060215     0.00000000
   |3,1+;3,A,4>     0.00025883    -0.00008458    -0.00000018     0.00000807     0.01984204     0.00060257    -0.99980290     0.00000653
   |3,1-;3,A,4>     0.00008436     0.00025884    -0.00000000     0.00007737     0.99980309     0.00001496     0.01984205    -0.00002369
rescaling new expansion vector ... old norm=   4341.9486631329

Sorted Energies:
1  -286.09930184 
2  -285.95187989 
3  -285.95187989 
4  -285.95187989 
5  -285.94130232 
6  -285.94130232 
7  -285.94130232 
8  -285.94051678 
9  -285.94051678 
10  -285.94051677 
11  -285.93809279 
12  -285.92467906 
13  -285.92210961 
14  -285.92210961 
15  -285.92210961 
16  -285.87093100 
Not computing transition moment with identical bra and ket.
 Calculating transition moment for (1,1) => (1,2)
 starting transci.x -m 200000 at Sun May 29 22:50:23 EDT 2022

 -------------------- transci.x ------------------------

                          State No. 1            State No. 2

   Space symmetry:           a                      a   
   No. of CSFs:          ********               ********
   State energies:      -286.09930183          -285.93809280  a.u.

   Transition energy:     0.16120903  a.u.
   Transition energy:     4.39        eV

       Transition moment components:

                 x            y            z

electron         -0.008402     0.007383     0.000004  e*bohr
frozen core       0.000000     0.000000     0.000000  e*bohr
total (elec)     -0.008402     0.007383     0.000004  e*bohr


   Tr.dipole length:     0.011185    e*bohr
   Oscillator strength :  0.000013
   Einstein A coef.:     0.1123E+05  1/sec
   Einstein B coef.:     0.5077E+05  sec/g

                 x            y            z

<L> electron     0.000014    -0.000192     0.304888  e*bohr


   <L> value length:     0.304888    e*bohr
 --------------------------------------------------- 
  Calculating transition moment for (1,1) => (1,3)
 starting transci.x -m 200000 at Sun May 29 22:52:36 EDT 2022

 -------------------- transci.x ------------------------

                          State No. 1            State No. 2

   Space symmetry:           a                      a   
   No. of CSFs:          ********               ********
   State energies:      -286.09930183          -285.92467906  a.u.

   Transition energy:     0.17462277  a.u.
   Transition energy:     4.75        eV

       Transition moment components:

                 x            y            z

electron          0.000008     0.000342    -0.546724  e*bohr
frozen core       0.000000     0.000000     0.000000  e*bohr
total (elec)      0.000008     0.000342    -0.546724  e*bohr


   Tr.dipole length:     0.546725    e*bohr
   Oscillator strength :  0.034797
   Einstein A coef.:     0.3409E+08  1/sec
   Einstein B coef.:     0.1213E+09  sec/g

                 x            y            z

<L> electron     0.020844     0.666661     0.000417  e*bohr


   <L> value length:     0.666987    e*bohr
 --------------------------------------------------- 
  Calculating transition moment for (1,1) => (1,4)
 starting transci.x -m 200000 at Sun May 29 22:54:53 EDT 2022

 -------------------- transci.x ------------------------

                          State No. 1            State No. 2

   Space symmetry:           a                      a   
   No. of CSFs:          ********               ********
   State energies:      -286.09930183          -285.87093100  a.u.

   Transition energy:     0.22837083  a.u.
   Transition energy:     6.21        eV

       Transition moment components:

                 x            y            z

electron          0.000000     0.000008    -0.012290  e*bohr
frozen core       0.000000     0.000000     0.000000  e*bohr
total (elec)      0.000000     0.000008    -0.012290  e*bohr


   Tr.dipole length:     0.012290    e*bohr
   Oscillator strength :  0.000023
   Einstein A coef.:     0.3853E+05  1/sec
   Einstein B coef.:     0.6129E+05  sec/g

                 x            y            z

<L> electron    -0.454548     0.021722     0.000007  e*bohr


   <L> value length:     0.455066    e*bohr
 --------------------------------------------------- 
 Not computing transition moment with identical bra and ket.
 Calculating transition moment for (1,2) => (1,3)
 starting transci.x -m 200000 at Sun May 29 22:57:08 EDT 2022

 -------------------- transci.x ------------------------

                          State No. 1            State No. 2

   Space symmetry:           a                      a   
   No. of CSFs:          ********               ********
   State energies:      -285.93809280          -285.92467906  a.u.

   Transition energy:     0.01341374  a.u.
   Transition energy:     0.37        eV

       Transition moment components:

                 x            y            z

electron         -0.000001    -0.000027     0.043482  e*bohr
frozen core       0.000000     0.000000     0.000000  e*bohr
total (elec)     -0.000001    -0.000027     0.043482  e*bohr


   Tr.dipole length:     0.043482    e*bohr
   Oscillator strength :  0.000017
   Einstein A coef.:     0.9774E+02  1/sec
   Einstein B coef.:     0.7673E+06  sec/g

                 x            y            z

<L> electron    -0.133916     0.007208     0.000003  e*bohr


   <L> value length:     0.134110    e*bohr
 --------------------------------------------------- 
  Calculating transition moment for (1,2) => (1,4)
 starting transci.x -m 200000 at Sun May 29 22:59:22 EDT 2022

 -------------------- transci.x ------------------------

                          State No. 1            State No. 2

   Space symmetry:           a                      a   
   No. of CSFs:          ********               ********
   State energies:      -285.93809280          -285.87093100  a.u.

   Transition energy:     0.06716181  a.u.
   Transition energy:     1.83        eV

       Transition moment components:

                 x            y            z

electron          0.000003     0.000117    -0.186377  e*bohr
frozen core       0.000000     0.000000     0.000000  e*bohr
total (elec)      0.000003     0.000117    -0.186377  e*bohr


   Tr.dipole length:     0.186377    e*bohr
   Oscillator strength :  0.001555
   Einstein A coef.:     0.2254E+06  1/sec
   Einstein B coef.:     0.1410E+08  sec/g

                 x            y            z

<L> electron    -0.000546     0.596291     0.000373  e*bohr


   <L> value length:     0.596291    e*bohr
 --------------------------------------------------- 
 Not computing transition moment with identical bra and ket.
 Calculating transition moment for (1,3) => (1,4)
 starting transci.x -m 200000 at Sun May 29 23:01:34 EDT 2022

 -------------------- transci.x ------------------------

                          State No. 1            State No. 2

   Space symmetry:           a                      a   
   No. of CSFs:          ********               ********
   State energies:      -285.92467906          -285.87093100  a.u.

   Transition energy:     0.05374806  a.u.
   Transition energy:     1.46        eV

       Transition moment components:

                 x            y            z

electron          0.025336    -0.011483    -0.000007  e*bohr
frozen core       0.000000     0.000000     0.000000  e*bohr
total (elec)      0.025336    -0.011483    -0.000007  e*bohr


   Tr.dipole length:     0.027817    e*bohr
   Oscillator strength :  0.000028
   Einstein A coef.:     0.2573E+04  1/sec
   Einstein B coef.:     0.3140E+06  sec/g

                 x            y            z

<L> electron    -0.000006     0.000090    -0.140930  e*bohr


   <L> value length:     0.140930    e*bohr
 --------------------------------------------------- 
 Not computing transition moment with identical bra and ket.
Not computing transition moment with identical bra and ket.
 Calculating transition moment for (2,1) => (2,2)
 starting transci.x -m 200000 at Sun May 29 23:03:48 EDT 2022

 -------------------- transci.x ------------------------

                          State No. 1            State No. 2

   Space symmetry:           a                      a   
   No. of CSFs:          ********               ********
   State energies:      -285.95187988          -285.94130232  a.u.

   Transition energy:     0.01057756  a.u.
   Transition energy:     0.29        eV

       Transition moment components:

                 x            y            z

electron          0.000004     0.000168    -0.268024  e*bohr
frozen core       0.000000     0.000000     0.000000  e*bohr
total (elec)      0.000004     0.000168    -0.268024  e*bohr


   Tr.dipole length:     0.268024    e*bohr
   Oscillator strength :  0.000507
   Einstein A coef.:     0.1821E+04  1/sec
   Einstein B coef.:     0.2915E+08  sec/g

                 x            y            z

<L> electron    -0.016576    -1.177142    -0.000737  e*bohr


   <L> value length:     1.177259    e*bohr
 --------------------------------------------------- 
  Calculating transition moment for (2,1) => (2,3)
 starting transci.x -m 200000 at Sun May 29 23:07:56 EDT 2022

 -------------------- transci.x ------------------------

                          State No. 1            State No. 2

   Space symmetry:           a                      a   
   No. of CSFs:          ********               ********
   State energies:      -285.95187988          -285.94051679  a.u.

   Transition energy:     0.01136308  a.u.
   Transition energy:     0.31        eV

       Transition moment components:

                 x            y            z

electron         -0.424102    -0.032572    -0.000026  e*bohr
frozen core       0.000000     0.000000     0.000000  e*bohr
total (elec)     -0.424102    -0.032572    -0.000026  e*bohr


   Tr.dipole length:     0.425351    e*bohr
   Oscillator strength :  0.001371
   Einstein A coef.:     0.5686E+04  1/sec
   Einstein B coef.:     0.7342E+08  sec/g

                 x            y            z

<L> electron     0.000015    -0.000110     0.167931  e*bohr


   <L> value length:     0.167931    e*bohr
 --------------------------------------------------- 
  Calculating transition moment for (2,1) => (2,4)
 starting transci.x -m 200000 at Sun May 29 23:11:59 EDT 2022

 -------------------- transci.x ------------------------

                          State No. 1            State No. 2

   Space symmetry:           a                      a   
   No. of CSFs:          ********               ********
   State energies:      -285.95187988          -285.92210961  a.u.

   Transition energy:     0.02977027  a.u.
   Transition energy:     0.81        eV

       Transition moment components:

                 x            y            z

electron         -0.187437     0.010457     0.000004  e*bohr
frozen core       0.000000     0.000000     0.000000  e*bohr
total (elec)     -0.187437     0.010457     0.000004  e*bohr


   Tr.dipole length:     0.187729    e*bohr
   Oscillator strength :  0.000699
   Einstein A coef.:     0.1992E+05  1/sec
   Einstein B coef.:     0.1430E+08  sec/g

                 x            y            z

<L> electron     0.000001    -0.000008     0.009563  e*bohr


   <L> value length:     0.009563    e*bohr
 --------------------------------------------------- 
 Not computing transition moment with identical bra and ket.
 Calculating transition moment for (2,2) => (2,3)
 starting transci.x -m 200000 at Sun May 29 23:16:00 EDT 2022

 -------------------- transci.x ------------------------

                          State No. 1            State No. 2

   Space symmetry:           a                      a   
   No. of CSFs:          ********               ********
   State energies:      -285.94130232          -285.94051679  a.u.

   Transition energy:     0.00078553  a.u.
   Transition energy:     0.02        eV

       Transition moment components:

                 x            y            z

electron         -0.000001    -0.000049     0.078834  e*bohr
frozen core       0.000000     0.000000     0.000000  e*bohr
total (elec)     -0.000001    -0.000049     0.078834  e*bohr


   Tr.dipole length:     0.078834    e*bohr
   Oscillator strength :  0.000003
   Einstein A coef.:     0.6452E-01  1/sec
   Einstein B coef.:     0.2522E+07  sec/g

                 x            y            z

<L> electron     0.099658    -0.132965    -0.000082  e*bohr


   <L> value length:     0.166167    e*bohr
 --------------------------------------------------- 
  Calculating transition moment for (2,2) => (2,4)
 starting transci.x -m 200000 at Sun May 29 23:19:55 EDT 2022

 -------------------- transci.x ------------------------

                          State No. 1            State No. 2

   Space symmetry:           a                      a   
   No. of CSFs:          ********               ********
   State energies:      -285.94130232          -285.92210961  a.u.

   Transition energy:     0.01919271  a.u.
   Transition energy:     0.52        eV

       Transition moment components:

                 x            y            z

electron          0.000002     0.000069    -0.110187  e*bohr
frozen core       0.000000     0.000000     0.000000  e*bohr
total (elec)      0.000002     0.000069    -0.110187  e*bohr


   Tr.dipole length:     0.110187    e*bohr
   Oscillator strength :  0.000155
   Einstein A coef.:     0.1838E+04  1/sec
   Einstein B coef.:     0.4927E+07  sec/g

                 x            y            z

<L> electron    -0.002781    -0.285502    -0.000179  e*bohr


   <L> value length:     0.285516    e*bohr
 --------------------------------------------------- 
 Not computing transition moment with identical bra and ket.
 Calculating transition moment for (2,3) => (2,4)
 starting transci.x -m 200000 at Sun May 29 23:23:53 EDT 2022

 -------------------- transci.x ------------------------

                          State No. 1            State No. 2

   Space symmetry:           a                      a   
   No. of CSFs:          ********               ********
   State energies:      -285.94051679          -285.92210961  a.u.

   Transition energy:     0.01840718  a.u.
   Transition energy:     0.50        eV

       Transition moment components:

                 x            y            z

electron         -0.118593     0.043652     0.000026  e*bohr
frozen core       0.000000     0.000000     0.000000  e*bohr
total (elec)     -0.118593     0.043652     0.000026  e*bohr


   Tr.dipole length:     0.126372    e*bohr
   Oscillator strength :  0.000196
   Einstein A coef.:     0.2133E+04  1/sec
   Einstein B coef.:     0.6481E+07  sec/g

                 x            y            z

<L> electron     0.000008    -0.000041     0.061888  e*bohr


   <L> value length:     0.061888    e*bohr
 --------------------------------------------------- 
 Not computing transition moment with identical bra and ket.
 --- ci properties for state 1 of  DRT 1 ----
starting exptvl.x -m 200000  at Sun May 29 23:27:49 EDT 2022

 -------------------- exptvl.x ------------------------
  === dipole moment === 
                     X               Y               Z   
   orign x       0.00000000      0.00000000      0.00000000
   orign y       0.00000000      0.00000000      0.00000000
   orign z       0.00000000      0.00000000      0.00000000
   nuclear      -0.82686374      1.48490981      0.02931755
   electronic    0.09760500     -1.71023292     -0.02946903
   total        -0.72925874     -0.22532311     -0.00015148
   total Dipole moment =   1.94005366    Debye
 --------------------------------------------------- 
  --- ci properties for state 2 of  DRT 1 ----
starting exptvl.x -m 200000  at Sun May 29 23:27:49 EDT 2022

 -------------------- exptvl.x ------------------------
  === dipole moment === 
                     X               Y               Z   
   orign x       0.00000000      0.00000000      0.00000000
   orign y       0.00000000      0.00000000      0.00000000
   orign z       0.00000000      0.00000000      0.00000000
   nuclear      -0.82686374      1.48490981      0.02931755
   electronic    4.04474928     -1.76206702     -0.02944477
   total         3.21788554     -0.27715721     -0.00012722
   total Dipole moment =   8.20933912    Debye
 --------------------------------------------------- 
  --- ci properties for state 3 of  DRT 1 ----
starting exptvl.x -m 200000  at Sun May 29 23:27:50 EDT 2022

 -------------------- exptvl.x ------------------------
  === dipole moment === 
                     X               Y               Z   
   orign x       0.00000000      0.00000000      0.00000000
   orign y       0.00000000      0.00000000      0.00000000
   orign z       0.00000000      0.00000000      0.00000000
   nuclear      -0.82686374      1.48490981      0.02931755
   electronic   -0.28203708     -1.68509564     -0.02945875
   total        -1.10890082     -0.20018583     -0.00014120
   total Dipole moment =   2.86410726    Debye
 --------------------------------------------------- 
  --- ci properties for state 4 of  DRT 1 ----
starting exptvl.x -m 200000  at Sun May 29 23:27:50 EDT 2022

 -------------------- exptvl.x ------------------------
  === dipole moment === 
                     X               Y               Z   
   orign x       0.00000000      0.00000000      0.00000000
   orign y       0.00000000      0.00000000      0.00000000
   orign z       0.00000000      0.00000000      0.00000000
   nuclear      -0.82686374      1.48490981      0.02931755
   electronic    4.97286667     -1.84353285     -0.02948242
   total         4.14600293     -0.35862304     -0.00016487
   total Dipole moment =  10.57744831    Debye
 --------------------------------------------------- 
  --- ci properties for state 1 of  DRT 2 ----
starting exptvl.x -m 200000  at Sun May 29 23:27:50 EDT 2022

 -------------------- exptvl.x ------------------------
  === dipole moment === 
                     X               Y               Z   
   orign x       0.00000000      0.00000000      0.00000000
   orign y       0.00000000      0.00000000      0.00000000
   orign z       0.00000000      0.00000000      0.00000000
   nuclear      -0.82686374      1.48490981      0.02931755
   electronic    0.08730784     -1.68868479     -0.02945568
   total        -0.73955590     -0.20377498     -0.00013813
   total Dipole moment =   1.94981670    Debye
 --------------------------------------------------- 
  --- ci properties for state 2 of  DRT 2 ----
starting exptvl.x -m 200000  at Sun May 29 23:27:50 EDT 2022

 -------------------- exptvl.x ------------------------
  === dipole moment === 
                     X               Y               Z   
   orign x       0.00000000      0.00000000      0.00000000
   orign y       0.00000000      0.00000000      0.00000000
   orign z       0.00000000      0.00000000      0.00000000
   nuclear      -0.82686374      1.48490981      0.02931755
   electronic   -0.56790794     -1.68157521     -0.02946066
   total        -1.39477168     -0.19666540     -0.00014311
   total Dipole moment =   3.58022769    Debye
 --------------------------------------------------- 
  --- ci properties for state 3 of  DRT 2 ----
starting exptvl.x -m 200000  at Sun May 29 23:27:51 EDT 2022

 -------------------- exptvl.x ------------------------
  === dipole moment === 
                     X               Y               Z   
   orign x       0.00000000      0.00000000      0.00000000
   orign y       0.00000000      0.00000000      0.00000000
   orign z       0.00000000      0.00000000      0.00000000
   nuclear      -0.82686374      1.48490981      0.02931755
   electronic    3.94213826     -1.75080664     -0.02943920
   total         3.11527452     -0.26589683     -0.00012165
   total Dipole moment =   7.94703605    Debye
 --------------------------------------------------- 
  --- ci properties for state 4 of  DRT 2 ----
starting exptvl.x -m 200000  at Sun May 29 23:27:51 EDT 2022

 -------------------- exptvl.x ------------------------
  === dipole moment === 
                     X               Y               Z   
   orign x       0.00000000      0.00000000      0.00000000
   orign y       0.00000000      0.00000000      0.00000000
   orign z       0.00000000      0.00000000      0.00000000
   nuclear      -0.82686374      1.48490981      0.02931755
   electronic   -0.14464650     -1.70277794     -0.02946784
   total        -0.97151024     -0.21786813     -0.00015029
   total Dipole moment =   2.53066657    Debye
 --------------------------------------------------- 
 starting mo_convert.x at Sun May 29 23:27:51 EDT 2022

 -------------------- mo_convert.x ------------------------
 --------------------------------------------------- 
 starting pymolcas molcas.input.molden > molcas.output.molden at Sun May 29 23:27:52 EDT 2022

Generating link ln -s ./molcas.OrdInt ORDINT 
 -------------------- molden ------------------------
 --------------------------------------------------- 
 starting mo_convert.x at Sun May 29 23:28:19 EDT 2022

 -------------------- mo_convert.x ------------------------
 --------------------------------------------------- 
 starting pymolcas molcas.input.molden > molcas.output.molden at Sun May 29 23:28:20 EDT 2022

Generating link ln -s ./molcas.OrdInt ORDINT 
 -------------------- molden ------------------------
 --------------------------------------------------- 
 starting mo_convert.x at Sun May 29 23:28:43 EDT 2022

 -------------------- mo_convert.x ------------------------
 --------------------------------------------------- 
 starting pymolcas molcas.input.molden > molcas.output.molden at Sun May 29 23:28:44 EDT 2022

Generating link ln -s ./molcas.OrdInt ORDINT 
 -------------------- molden ------------------------
 --------------------------------------------------- 
 starting mo_convert.x at Sun May 29 23:29:04 EDT 2022

 -------------------- mo_convert.x ------------------------
 --------------------------------------------------- 
 starting pymolcas molcas.input.molden > molcas.output.molden at Sun May 29 23:29:05 EDT 2022

Generating link ln -s ./molcas.OrdInt ORDINT 
 -------------------- molden ------------------------
 --------------------------------------------------- 
 starting mo_convert.x at Sun May 29 23:29:26 EDT 2022

 -------------------- mo_convert.x ------------------------
 --------------------------------------------------- 
 starting pymolcas molcas.input.molden > molcas.output.molden at Sun May 29 23:29:26 EDT 2022

Generating link ln -s ./molcas.OrdInt ORDINT 
 -------------------- molden ------------------------
 --------------------------------------------------- 
 starting mo_convert.x at Sun May 29 23:29:48 EDT 2022

 -------------------- mo_convert.x ------------------------
 --------------------------------------------------- 
 starting pymolcas molcas.input.molden > molcas.output.molden at Sun May 29 23:29:48 EDT 2022

Generating link ln -s ./molcas.OrdInt ORDINT 
 -------------------- molden ------------------------
 --------------------------------------------------- 
 starting mo_convert.x at Sun May 29 23:30:10 EDT 2022

 -------------------- mo_convert.x ------------------------
 --------------------------------------------------- 
 starting pymolcas molcas.input.molden > molcas.output.molden at Sun May 29 23:30:10 EDT 2022

Generating link ln -s ./molcas.OrdInt ORDINT 
 -------------------- molden ------------------------
 --------------------------------------------------- 
 starting mo_convert.x at Sun May 29 23:30:30 EDT 2022

 -------------------- mo_convert.x ------------------------
 --------------------------------------------------- 
 starting pymolcas molcas.input.molden > molcas.output.molden at Sun May 29 23:30:31 EDT 2022

Generating link ln -s ./molcas.OrdInt ORDINT 
 -------------------- molden ------------------------
 --------------------------------------------------- 
 starting mo_convert.x at Sun May 29 23:30:51 EDT 2022

 -------------------- mo_convert.x ------------------------
 --------------------------------------------------- 
 starting pymolcas molcas.input.molden > molcas.output.molden at Sun May 29 23:30:52 EDT 2022

Generating link ln -s ./molcas.OrdInt ORDINT 
 -------------------- molden ------------------------
 --------------------------------------------------- 
 starting mo_convert.x at Sun May 29 23:31:13 EDT 2022

 -------------------- mo_convert.x ------------------------
 --------------------------------------------------- 
 starting pymolcas molcas.input.molden > molcas.output.molden at Sun May 29 23:31:13 EDT 2022

Generating link ln -s ./molcas.OrdInt ORDINT 
 -------------------- molden ------------------------
 --------------------------------------------------- 
 starting mo_convert.x at Sun May 29 23:31:34 EDT 2022

 -------------------- mo_convert.x ------------------------
 --------------------------------------------------- 
 starting pymolcas molcas.input.molden > molcas.output.molden at Sun May 29 23:31:34 EDT 2022

Generating link ln -s ./molcas.OrdInt ORDINT 
 -------------------- molden ------------------------
 --------------------------------------------------- 
 starting mo_convert.x at Sun May 29 23:31:56 EDT 2022

 -------------------- mo_convert.x ------------------------
 --------------------------------------------------- 
 starting pymolcas molcas.input.molden > molcas.output.molden at Sun May 29 23:31:56 EDT 2022

Generating link ln -s ./molcas.OrdInt ORDINT 
 -------------------- molden ------------------------
 --------------------------------------------------- 
 starting mo_convert.x at Sun May 29 23:32:16 EDT 2022

 -------------------- mo_convert.x ------------------------
 --------------------------------------------------- 
 starting pymolcas molcas.input.molden > molcas.output.molden at Sun May 29 23:32:17 EDT 2022

Generating link ln -s ./molcas.OrdInt ORDINT 
 -------------------- molden ------------------------
 --------------------------------------------------- 
 starting mo_convert.x at Sun May 29 23:32:38 EDT 2022

 -------------------- mo_convert.x ------------------------
 --------------------------------------------------- 
 starting pymolcas molcas.input.molden > molcas.output.molden at Sun May 29 23:32:38 EDT 2022

Generating link ln -s ./molcas.OrdInt ORDINT 
 -------------------- molden ------------------------
 --------------------------------------------------- 
 

 +++++++++++ STARTING GRADIENTS AND NAD. COUPLINGS CALCULATION +++++++++++ 

 Using new transition density code ... 
INFO: this is a frozen core gradient calculation
starting cidrt.x  -m 200000 < cidrtin.cigrd > cidrtls.cigrd at Sun May 29 23:32:59 EDT 2022

 -------------------- cidrt.x ------------------------
 total number of orbitals            :   246
 number of frozen core orbitals      :    18
 number of frozen virtual orbitals   :     0
 number of internal orbitals         :    14
 number of external orbitals         :   214
 spatial symmetry:   a  
 
 total number of configurations  282461366
 number of reference configurations  1666
 --------------------------------------------------- 
 starting tran.x -m 200000  at Sun May 29 23:33:06 EDT 2022

 -------------------- tran.x ------------------------
 --------------------------------------------------- 
 ---- Computing 8 gradient(s)  ----

 --- Computing gradient for DRT:1, State; 1

starting cigrd.x -m 200000 at Sun May 29 23:41:27 EDT 2022

 -------------------- cigrd.x ------------------------
 Total energy (ciudg) :  -286.099301832827 
  Effective energy     :  -286.099301846612 
  Delta E              :     0.000000013785 
  --------------------------------------------------- 
 starting tran.x -m 200000  at Sun May 29 23:49:22 EDT 2022

 -------------------- tran.x ------------------------
 --------------------------------------------------- 
 starting pymolcas molcas.input.alaska > molcas.output.alaska  at Sun May 29 23:54:46 EDT 2022

Generating link ln -s ./molcas.OrdInt ORDINT 
 -------------------- alaska ------------------------
 --------------------------------------------------- 
 cartesian gradient by alaska (MOLCAS)

 === Gradient of DRT 1, state 1 === 
   0.379625D-01  -0.804238D-02  -0.448918D-05
  -0.315865D-01   0.364033D-02   0.182513D-05
  -0.124543D-01   0.788516D-03  -0.277665D-01
  -0.124551D-01   0.753759D-03   0.277671D-01
   0.117002D-01  -0.441300D-03  -0.230852D-01
   0.116995D-01  -0.470187D-03   0.230850D-01
   0.826577D-02  -0.317254D-03  -0.827520D-07
  -0.620485D-02   0.165791D-02  -0.662415D-02
  -0.620503D-02   0.164962D-02   0.662604D-02
   0.532204D-03   0.331150D-03   0.163088D-02
   0.532259D-03   0.333186D-03  -0.163046D-02
  -0.704518D-03  -0.159404D-04   0.122254D-02
  -0.704479D-03  -0.144123D-04  -0.122258D-02
  -0.377731D-03   0.147004D-03   0.923173D-07
===================================
 --- Computing gradient for DRT:1, State; 2

starting cigrd.x -m 200000 at Sun May 29 23:56:04 EDT 2022

 -------------------- cigrd.x ------------------------
 Total energy (ciudg) :  -285.938092803314 
  Effective energy     :  -285.938092817674 
  Delta E              :     0.000000014360 
  --------------------------------------------------- 
 starting tran.x -m 200000  at Mon May 30 00:04:33 EDT 2022

 -------------------- tran.x ------------------------
 --------------------------------------------------- 
 starting pymolcas molcas.input.alaska > molcas.output.alaska  at Mon May 30 00:10:04 EDT 2022

Generating link ln -s ./molcas.OrdInt ORDINT 
 -------------------- alaska ------------------------
 --------------------------------------------------- 
 cartesian gradient by alaska (MOLCAS)

 === Gradient of DRT 1, state 2 === 
  -0.368986D-01   0.175122D-01   0.104340D-04
   0.287086D-01  -0.689363D-02  -0.390199D-05
  -0.359896D-01   0.176719D-03  -0.102354D-02
  -0.359896D-01   0.175431D-03   0.102271D-02
   0.311635D-01  -0.329495D-03  -0.952331D-02
   0.311632D-01  -0.341414D-03   0.952379D-02
   0.736372D-02  -0.234479D-03  -0.309851D-07
   0.473808D-02  -0.517299D-02   0.868043D-02
   0.473832D-02  -0.516213D-02  -0.868677D-02
  -0.398215D-03   0.127929D-03  -0.123582D-02
  -0.398262D-03   0.126380D-03   0.123597D-02
   0.757869D-03   0.374620D-05   0.166960D-03
   0.757886D-03   0.395565D-05  -0.166940D-03
   0.283060D-03   0.775547D-05   0.152677D-07
===================================
 --- Computing gradient for DRT:1, State; 3

starting cigrd.x -m 200000 at Mon May 30 00:11:25 EDT 2022

 -------------------- cigrd.x ------------------------
 Total energy (ciudg) :  -285.924679060315 
  Effective energy     :  -285.924679075238 
  Delta E              :     0.000000014923 
  --------------------------------------------------- 
 starting tran.x -m 200000  at Mon May 30 00:19:32 EDT 2022

 -------------------- tran.x ------------------------
 --------------------------------------------------- 
 starting pymolcas molcas.input.alaska > molcas.output.alaska  at Mon May 30 00:24:53 EDT 2022

Generating link ln -s ./molcas.OrdInt ORDINT 
 -------------------- alaska ------------------------
 --------------------------------------------------- 
 cartesian gradient by alaska (MOLCAS)

 === Gradient of DRT 1, state 3 === 
   0.198957D-01  -0.127431D-02  -0.517100D-06
  -0.126961D-01   0.208633D-02   0.112524D-05
   0.196353D-01  -0.266643D-03  -0.487745D-03
   0.196353D-01  -0.267254D-03   0.487985D-03
  -0.166732D-01   0.243554D-03   0.352826D-02
  -0.166731D-01   0.247962D-03  -0.352846D-02
  -0.112823D-02   0.471088D-04   0.333811D-07
  -0.580366D-02  -0.426303D-03  -0.425589D-02
  -0.580376D-02  -0.431628D-03   0.425518D-02
   0.301347D-03   0.272194D-04   0.686721D-03
   0.301368D-03   0.280752D-04  -0.686678D-03
  -0.371948D-03  -0.157013D-04  -0.855132D-04
  -0.371950D-03  -0.158076D-04   0.854827D-04
  -0.247225D-03   0.173990D-04   0.675813D-08
===================================
 --- Computing gradient for DRT:1, State; 4

starting cigrd.x -m 200000 at Mon May 30 00:26:13 EDT 2022

 -------------------- cigrd.x ------------------------
 Total energy (ciudg) :  -285.870930997923 
  Effective energy     :  -285.870931010942 
  Delta E              :     0.000000013019 
  --------------------------------------------------- 
 starting tran.x -m 200000  at Mon May 30 00:34:16 EDT 2022

 -------------------- tran.x ------------------------
 --------------------------------------------------- 
 starting pymolcas molcas.input.alaska > molcas.output.alaska  at Mon May 30 00:39:46 EDT 2022

Generating link ln -s ./molcas.OrdInt ORDINT 
 -------------------- alaska ------------------------
 --------------------------------------------------- 
 cartesian gradient by alaska (MOLCAS)

 === Gradient of DRT 1, state 4 === 
  -0.889166D-02   0.338088D-02   0.198845D-05
   0.225535D-01  -0.887586D-03  -0.228643D-06
   0.240437D-01  -0.351951D-03  -0.248172D-01
   0.240429D-01  -0.383025D-03   0.248175D-01
  -0.310625D-01   0.321944D-03  -0.334139D-01
  -0.310634D-01   0.280141D-03   0.334134D-01
   0.123270D-02  -0.204244D-03  -0.114933D-06
  -0.768170D-03  -0.135565D-02  -0.745795D-03
  -0.768185D-03  -0.135658D-02   0.744073D-03
  -0.500850D-03   0.209498D-03  -0.145315D-02
  -0.500892D-03   0.207676D-03   0.145339D-02
   0.343822D-04   0.260222D-04   0.668221D-04
   0.343843D-04   0.261038D-04  -0.667826D-04
   0.161410D-02   0.867773D-04   0.756175D-07
===================================
 --- Computing gradient for DRT:2, State; 1

starting cigrd.x -m 200000 at Mon May 30 00:41:04 EDT 2022

 -------------------- cigrd.x ------------------------
 Total energy (ciudg) :  -285.951879875180 
  Effective energy     :  -285.951879889008 
  Delta E              :     0.000000013828 
  --------------------------------------------------- 
 starting tran.x -m 200000  at Mon May 30 00:49:47 EDT 2022

 -------------------- tran.x ------------------------
 --------------------------------------------------- 
 starting pymolcas molcas.input.alaska > molcas.output.alaska  at Mon May 30 00:55:17 EDT 2022

Generating link ln -s ./molcas.OrdInt ORDINT 
 -------------------- alaska ------------------------
 --------------------------------------------------- 
 cartesian gradient by alaska (MOLCAS)

 === Gradient of DRT 2, state 1 === 
   0.421240D-01  -0.117145D-01  -0.671780D-05
  -0.359292D-02   0.390921D-02   0.237050D-05
  -0.338506D-01   0.651593D-03   0.620061D-02
  -0.338504D-01   0.659392D-03  -0.620075D-02
   0.328781D-01   0.110009D-03   0.193296D-01
   0.328787D-01   0.134198D-03  -0.193285D-01
  -0.267159D-01   0.582676D-04  -0.335516D-06
  -0.459875D-02   0.330402D-02  -0.561613D-02
  -0.459891D-02   0.329698D-02   0.562013D-02
  -0.622961D-03  -0.238152D-04   0.197728D-02
  -0.622905D-03  -0.213407D-04  -0.197732D-02
   0.679357D-04  -0.648001D-04   0.774959D-03
   0.679573D-04  -0.638302D-04  -0.775044D-03
   0.436551D-03  -0.235376D-03  -0.144754D-06
===================================
 --- Computing gradient for DRT:2, State; 2

starting cigrd.x -m 200000 at Mon May 30 00:56:35 EDT 2022

 -------------------- cigrd.x ------------------------
 Total energy (ciudg) :  -285.941302318611 
  Effective energy     :  -285.941302333390 
  Delta E              :     0.000000014779 
  --------------------------------------------------- 
 starting tran.x -m 200000  at Mon May 30 01:04:52 EDT 2022

 -------------------- tran.x ------------------------
 --------------------------------------------------- 
 starting pymolcas molcas.input.alaska > molcas.output.alaska  at Mon May 30 01:10:16 EDT 2022

Generating link ln -s ./molcas.OrdInt ORDINT 
 -------------------- alaska ------------------------
 --------------------------------------------------- 
 cartesian gradient by alaska (MOLCAS)

 === Gradient of DRT 2, state 2 === 
   0.108485D-02   0.560240D-02   0.351628D-05
  -0.981684D-03  -0.146270D-02  -0.911054D-06
   0.205374D-01   0.125589D-03  -0.816200D-03
   0.205374D-01   0.124555D-03   0.816940D-03
  -0.246076D-01   0.515023D-03  -0.125309D-02
  -0.246077D-01   0.513448D-03   0.125303D-02
   0.196106D-01  -0.522776D-03  -0.430069D-07
  -0.599238D-02  -0.242543D-02  -0.292100D-02
  -0.599245D-02  -0.242909D-02   0.291779D-02
   0.930115D-03  -0.411072D-05   0.531332D-04
   0.930124D-03  -0.404447D-05  -0.531159D-04
  -0.230213D-03  -0.411539D-04  -0.491672D-03
  -0.230237D-03  -0.417712D-04   0.491601D-03
  -0.988209D-03   0.500595D-04   0.186996D-07
===================================
 --- Computing gradient for DRT:2, State; 3

starting cigrd.x -m 200000 at Mon May 30 01:11:35 EDT 2022

 -------------------- cigrd.x ------------------------
 Total energy (ciudg) :  -285.940516791352 
  Effective energy     :  -285.940516805838 
  Delta E              :     0.000000014486 
  --------------------------------------------------- 
 starting tran.x -m 200000  at Mon May 30 01:19:42 EDT 2022

 -------------------- tran.x ------------------------
 --------------------------------------------------- 
 starting pymolcas molcas.input.alaska > molcas.output.alaska  at Mon May 30 01:25:10 EDT 2022

Generating link ln -s ./molcas.OrdInt ORDINT 
 -------------------- alaska ------------------------
 --------------------------------------------------- 
 cartesian gradient by alaska (MOLCAS)

 === Gradient of DRT 2, state 3 === 
  -0.349163D-01   0.165990D-01   0.989502D-05
   0.249737D-01  -0.350395D-02  -0.182727D-05
  -0.342839D-01  -0.848906D-03  -0.198822D-02
  -0.342839D-01  -0.851395D-03   0.198616D-02
   0.293714D-01  -0.122645D-02  -0.995959D-02
   0.293712D-01  -0.123890D-02   0.995889D-02
   0.784562D-02   0.741278D-03   0.586133D-06
   0.552398D-02  -0.525019D-02   0.101492D-01
   0.552428D-02  -0.523748D-02  -0.101556D-01
  -0.393150D-03   0.249771D-03  -0.124883D-02
  -0.393181D-03   0.248210D-03   0.124912D-02
   0.704178D-03   0.997035D-04   0.192342D-03
   0.704187D-03   0.999435D-04  -0.192198D-03
   0.251789D-03   0.119396D-03   0.832015D-07
===================================
 --- Computing gradient for DRT:2, State; 4

starting cigrd.x -m 200000 at Mon May 30 01:26:31 EDT 2022

 -------------------- cigrd.x ------------------------
 Total energy (ciudg) :  -285.922109608560 
  Effective energy     :  -285.922109623148 
[...]
   1.333700E-04   5.840581E-03  -9.337376E+00
  -8.943334E-01  -7.092466E-02   4.356227E+00
   8.942022E-01   6.547387E-02   4.356342E+00
  -2.369634E+00   8.009492E-02  -4.121477E+00
   2.369756E+00  -7.493632E-02  -4.121498E+00
  -1.081365E-04  -4.706620E-03   7.522876E+00
   4.878028E-02   1.625036E-01   4.585212E-02
  -4.878247E-02  -1.625609E-01   4.564744E-02
  -6.827935E-02  -5.271148E-02  -1.977153E-02
   6.827963E-02   5.273583E-02  -1.970306E-02
  -4.864052E-02   5.755400E-03   4.312671E-02
   4.863910E-02  -5.809290E-03   4.312195E-02
  -2.041626E-06  -1.083793E-04   1.733413E-01
===================================

 Norm of the nonadiabatic coupling vector: 
 |h(drt2.state1,drt2.state2)|= 15.1576556699887 

 Cross-check of the non-adiabatic coupling term:
  DeltaE= -0.0105775564999817

  <L>*dE form CIGRD   :   -0.0000000846     0.0000004337    -0.0006546238
  <L>*dE form NADCOUPL:    0.0001743366     0.0124539275     0.0000076642
 -------------------------------------------------------------------------
  Difference          :   -0.0001744213    -0.0124534938    -0.0006622880

 NOTE: This test is meaningless at a point of conical intersection!


 -------- NAD. COUPLING for DRT:2 STATE:1 AND DRT:2 STATE:3 --------
opening file =ciudgls.drt2.sp
opening file =ciudgls.drt2.sp
extracted: energy1= -285.9518798750   energy2=-285.9405167912   deltae=-0.0113630837999494
starting cigrd.x -m 200000 at Mon May 30 03:30:31 EDT 2022

 -------------------- cigrd.x ------------------------
 Total energy (ciudg) :    -0.000000000271 
  Effective energy     :    -0.000000007992 
  Delta E              :     0.000000007721 
  --------------------------------------------------- 
 starting tran.x -m 200000  at Mon May 30 03:38:27 EDT 2022

 -------------------- tran.x ------------------------
 --------------------------------------------------- 
  adding keyword NONUC to alaska input
starting pymolcas molcas.input.alaska > molcas.output.alaska  at Mon May 30 03:43:44 EDT 2022

Generating link ln -s ./molcas.OrdInt ORDINT 
 -------------------- alaska ------------------------
 --------------------------------------------------- 
 cartesian gradient by alaska (MOLCAS)

 Calculating the Dx(r,s) term of D[CSF] nonadiabatic coupling term.
dxcalc: INPUT LINE SEPARATOR 
 
starting tran.x -m 200000  at Mon May 30 03:44:47 EDT 2022

 -------------------- tran.x ------------------------
 --------------------------------------------------- 
 starting tdmrunfile.x > tdmrunfilels at Mon May 30 03:44:47 EDT 2022

 -------------------- tdmrunfile.x ------------------------
 --------------------------------------------------- 
 starting pymolcas molcas.input.alaska > molcas.output.alaska  at Mon May 30 03:44:47 EDT 2022

Generating link ln -s ./molcas.OrdInt ORDINT 
 -------------------- alaska ------------------------
 --------------------------------------------------- 
 
 === Non-adiabatic coupling for DRT 2 STATE 1 and DRT 2 STATE 3 === 
   1.358831E+00  -3.226863E-01  -1.828205E-04
  -4.950131E-01   1.877772E+00   1.169291E-03
   1.910946E-01  -5.471060E-01  -1.823657E-02
   1.910937E-01  -5.471292E-01   1.755682E-02
  -1.408882E-01  -4.505438E-01   2.682577E-01
  -1.408812E-01  -4.502063E-01  -2.688245E-01
  -2.956995E-01   4.931548E-01   3.032850E-04
  -3.387926E-01  -1.855191E-01  -5.681046E-01
  -3.388095E-01  -1.862303E-01   5.678621E-01
   7.903818E-04   7.953326E-02   3.539070E-02
   7.917635E-04   7.957715E-02  -3.529118E-02
  -3.372512E-03   3.832317E-02   7.843862E-04
  -3.372372E-03   3.832405E-02  -7.370199E-04
   5.824699E-03   5.222230E-02   3.282847E-05
===================================

 Norm of the nonadiabatic coupling vector: 
 |h(drt2.state1,drt2.state3)|= 2.87731938128736 

 Cross-check of the non-adiabatic coupling term:
  DeltaE= -0.0113630837999494

  <L>*dE form CIGRD   :   -0.0000000909     0.0000004659    -0.0007032385
  <L>*dE form NADCOUPL:   -0.0000001803     0.0000012274    -0.0019045278
 -------------------------------------------------------------------------
  Difference          :    0.0000000894    -0.0000007615     0.0012012893

 NOTE: This test is meaningless at a point of conical intersection!


 -------- NAD. COUPLING for DRT:2 STATE:1 AND DRT:2 STATE:4 --------
opening file =ciudgls.drt2.sp
opening file =ciudgls.drt2.sp
extracted: energy1= -285.9518798750   energy2=-285.9221096084   deltae=-0.0297702665999964
starting cigrd.x -m 200000 at Mon May 30 03:45:54 EDT 2022

 -------------------- cigrd.x ------------------------
 Total energy (ciudg) :     0.000000000182 
  Effective energy     :     0.000000006203 
  Delta E              :    -0.000000006021 
  --------------------------------------------------- 
 starting tran.x -m 200000  at Mon May 30 03:54:10 EDT 2022

 -------------------- tran.x ------------------------
 --------------------------------------------------- 
  adding keyword NONUC to alaska input
starting pymolcas molcas.input.alaska > molcas.output.alaska  at Mon May 30 03:59:28 EDT 2022

Generating link ln -s ./molcas.OrdInt ORDINT 
 -------------------- alaska ------------------------
 --------------------------------------------------- 
 cartesian gradient by alaska (MOLCAS)

 Calculating the Dx(r,s) term of D[CSF] nonadiabatic coupling term.
dxcalc: INPUT LINE SEPARATOR 
 
starting tran.x -m 200000  at Mon May 30 04:00:34 EDT 2022

 -------------------- tran.x ------------------------
 --------------------------------------------------- 
 starting tdmrunfile.x > tdmrunfilels at Mon May 30 04:00:35 EDT 2022

 -------------------- tdmrunfile.x ------------------------
 --------------------------------------------------- 
 starting pymolcas molcas.input.alaska > molcas.output.alaska  at Mon May 30 04:00:35 EDT 2022

Generating link ln -s ./molcas.OrdInt ORDINT 
 -------------------- alaska ------------------------
 --------------------------------------------------- 
 
 === Non-adiabatic coupling for DRT 2 STATE 1 and DRT 2 STATE 4 === 
  -5.637275E-03  -1.656879E-02  -1.070410E-05
   6.045625E-01   4.692483E-02   3.716455E-05
  -2.285960E+00   7.735461E-03   7.001993E-01
  -2.285939E+00   8.612267E-03  -7.002549E-01
   2.345143E+00  -4.229449E-02   8.175061E-01
   2.345170E+00  -4.127129E-02  -8.174908E-01
  -8.157876E-01   3.272827E-02   9.510174E-06
   3.517190E-02   5.908650E-03   3.229119E-02
   3.517256E-02   5.949011E-03  -3.228286E-02
  -2.178242E-02  -7.546643E-04   3.466706E-02
  -2.178097E-02  -7.111316E-04  -3.466787E-02
   2.720847E-02  -1.401313E-03   2.553106E-02
   2.720904E-02  -1.369442E-03  -2.553220E-02
   1.312003E-02  -5.581951E-03  -3.180399E-06
===================================

 Norm of the nonadiabatic coupling vector: 
 |h(drt2.state1,drt2.state4)|= 4.9816740707132 

 Cross-check of the non-adiabatic coupling term:
  DeltaE= -0.0297702665999964

  <L>*dE form CIGRD   :   -0.0000002382     0.0000012206    -0.0018424223
  <L>*dE form NADCOUPL:    0.0000000095     0.0000001551    -0.0002876521
 -------------------------------------------------------------------------
  Difference          :   -0.0000002477     0.0000010655    -0.0015547701

 NOTE: This test is meaningless at a point of conical intersection!


 -------- NAD. COUPLING for DRT:2 STATE:2 AND DRT:2 STATE:3 --------
opening file =ciudgls.drt2.sp
opening file =ciudgls.drt2.sp
extracted: energy1= -285.9413023185   energy2=-285.9405167912   deltae=-0.000785527299967725
starting cigrd.x -m 200000 at Mon May 30 04:01:46 EDT 2022

 -------------------- cigrd.x ------------------------
 Total energy (ciudg) :     0.000000000476 
  Effective energy     :     0.000000000891 
  Delta E              :    -0.000000000415 
  --------------------------------------------------- 
 starting tran.x -m 200000  at Mon May 30 04:09:46 EDT 2022

 -------------------- tran.x ------------------------
 --------------------------------------------------- 
  adding keyword NONUC to alaska input
starting pymolcas molcas.input.alaska > molcas.output.alaska  at Mon May 30 04:14:55 EDT 2022

Generating link ln -s ./molcas.OrdInt ORDINT 
 -------------------- alaska ------------------------
 --------------------------------------------------- 
 cartesian gradient by alaska (MOLCAS)

 Calculating the Dx(r,s) term of D[CSF] nonadiabatic coupling term.
dxcalc: INPUT LINE SEPARATOR 
 
starting tran.x -m 200000  at Mon May 30 04:15:57 EDT 2022

 -------------------- tran.x ------------------------
 --------------------------------------------------- 
 starting tdmrunfile.x > tdmrunfilels at Mon May 30 04:15:57 EDT 2022

 -------------------- tdmrunfile.x ------------------------
 --------------------------------------------------- 
 starting pymolcas molcas.input.alaska > molcas.output.alaska  at Mon May 30 04:15:58 EDT 2022

Generating link ln -s ./molcas.OrdInt ORDINT 
 -------------------- alaska ------------------------
 --------------------------------------------------- 
 
 === Non-adiabatic coupling for DRT 2 STATE 2 and DRT 2 STATE 3 === 
   5.199298E-05   2.912268E-03  -4.626334E+00
  -2.152070E-04  -9.290610E-03   1.483310E+01
   3.020010E+00   7.537868E+00  -6.359303E+00
  -3.019793E+00  -7.529894E+00  -6.368812E+00
   3.117891E+00  -5.545426E+00   6.035934E+00
  -3.118095E+00   5.537884E+00   6.042799E+00
   1.703986E-04   7.208733E-03  -1.152831E+01
   2.226695E-01   1.923276E+00   1.358207E+00
  -2.227077E-01  -1.924982E+00   1.355778E+00
   4.742698E-02  -2.827537E+00  -1.695245E-01
  -4.741425E-02   2.827754E+00  -1.659914E-01
   6.590931E-02   1.003863E+00  -6.140225E-02
  -6.590931E-02  -1.003794E+00  -6.266007E-02
   5.304763E-06   1.746249E-04  -2.805224E-01
===================================

 Norm of the nonadiabatic coupling vector: 
 |h(drt2.state2,drt2.state3)|= 27.7533312215124 

 Cross-check of the non-adiabatic coupling term:
  DeltaE= -0.000785527299967725

  <L>*dE form CIGRD   :   -0.0000000063     0.0000000322    -0.0000486147
  <L>*dE form NADCOUPL:   -0.0000806802     0.0001059718     0.0000001024
 -------------------------------------------------------------------------
  Difference          :    0.0000806739    -0.0001059396    -0.0000487171

 NOTE: This test is meaningless at a point of conical intersection!


 -------- NAD. COUPLING for DRT:2 STATE:2 AND DRT:2 STATE:4 --------
opening file =ciudgls.drt2.sp
opening file =ciudgls.drt2.sp
extracted: energy1= -285.9413023185   energy2=-285.9221096084   deltae=-0.0191927101000147
starting cigrd.x -m 200000 at Mon May 30 04:17:02 EDT 2022

 -------------------- cigrd.x ------------------------
 Total energy (ciudg) :     0.000000000451 
  Effective energy     :     0.000000000195 
  Delta E              :     0.000000000256 
  --------------------------------------------------- 
 starting tran.x -m 200000  at Mon May 30 04:25:24 EDT 2022

 -------------------- tran.x ------------------------
 --------------------------------------------------- 
  adding keyword NONUC to alaska input
starting pymolcas molcas.input.alaska > molcas.output.alaska  at Mon May 30 04:30:38 EDT 2022

Generating link ln -s ./molcas.OrdInt ORDINT 
 -------------------- alaska ------------------------
 --------------------------------------------------- 
 cartesian gradient by alaska (MOLCAS)

 Calculating the Dx(r,s) term of D[CSF] nonadiabatic coupling term.
dxcalc: INPUT LINE SEPARATOR 
 
starting tran.x -m 200000  at Mon May 30 04:31:43 EDT 2022

 -------------------- tran.x ------------------------
 --------------------------------------------------- 
 starting tdmrunfile.x > tdmrunfilels at Mon May 30 04:31:43 EDT 2022

 -------------------- tdmrunfile.x ------------------------
 --------------------------------------------------- 
 starting pymolcas molcas.input.alaska > molcas.output.alaska  at Mon May 30 04:31:43 EDT 2022

Generating link ln -s ./molcas.OrdInt ORDINT 
 -------------------- alaska ------------------------
 --------------------------------------------------- 
 
 === Non-adiabatic coupling for DRT 2 STATE 2 and DRT 2 STATE 4 === 
  -3.082345E-06  -1.448118E-04   2.314213E-01
   2.211605E-05   1.025064E-03  -1.639228E+00
  -1.411427E-01   1.368447E-02   3.236911E-01
   1.411340E-01  -1.408878E-02   3.236777E-01
  -8.201961E-01   1.184023E-03  -7.665814E-02
   8.201958E-01  -1.088473E-03  -7.663505E-02
  -1.299985E-05  -5.691665E-04   9.102016E-01
   2.880023E-02   7.299584E-03  -3.021558E-03
  -2.880034E-02  -7.295927E-03  -3.031266E-03
   1.675399E-02  -6.037181E-03   2.355240E-02
  -1.675482E-02   6.007786E-03   2.355947E-02
   2.884731E-02  -9.395356E-05  -2.082687E-02
  -2.884694E-02   1.199120E-04  -2.082756E-02
   1.830214E-07   5.876948E-08  -4.846679E-05
===================================

 Norm of the nonadiabatic coupling vector: 
 |h(drt2.state2,drt2.state4)|= 2.27642641388607 

 Cross-check of the non-adiabatic coupling term:
  DeltaE= -0.0191927101000147

  <L>*dE form CIGRD   :   -0.0000001535     0.0000007869    -0.0011877984
  <L>*dE form NADCOUPL:    0.0000536870     0.0054815891     0.0000033950
 -------------------------------------------------------------------------
  Difference          :   -0.0000538406    -0.0054808022    -0.0011911934

 NOTE: This test is meaningless at a point of conical intersection!


 -------- NAD. COUPLING for DRT:2 STATE:3 AND DRT:2 STATE:4 --------
opening file =ciudgls.drt2.sp
opening file =ciudgls.drt2.sp
extracted: energy1= -285.9405167912   energy2=-285.9221096084   deltae=-0.0184071828000469
starting cigrd.x -m 200000 at Mon May 30 04:32:50 EDT 2022

 -------------------- cigrd.x ------------------------
 Total energy (ciudg) :    -0.000000000145 
  Effective energy     :    -0.000000005051 
  Delta E              :     0.000000004906 
  --------------------------------------------------- 
 starting tran.x -m 200000  at Mon May 30 04:40:40 EDT 2022

 -------------------- tran.x ------------------------
 --------------------------------------------------- 
  adding keyword NONUC to alaska input
starting pymolcas molcas.input.alaska > molcas.output.alaska  at Mon May 30 04:45:47 EDT 2022

Generating link ln -s ./molcas.OrdInt ORDINT 
 -------------------- alaska ------------------------
 --------------------------------------------------- 
 cartesian gradient by alaska (MOLCAS)

 Calculating the Dx(r,s) term of D[CSF] nonadiabatic coupling term.
dxcalc: INPUT LINE SEPARATOR 
 
starting tran.x -m 200000  at Mon May 30 04:46:48 EDT 2022

 -------------------- tran.x ------------------------
 --------------------------------------------------- 
 starting tdmrunfile.x > tdmrunfilels at Mon May 30 04:46:48 EDT 2022

 -------------------- tdmrunfile.x ------------------------
 --------------------------------------------------- 
 starting pymolcas molcas.input.alaska > molcas.output.alaska  at Mon May 30 04:46:49 EDT 2022

Generating link ln -s ./molcas.OrdInt ORDINT 
 -------------------- alaska ------------------------
 --------------------------------------------------- 
 
 === Non-adiabatic coupling for DRT 2 STATE 3 and DRT 2 STATE 4 === 
  -4.643927E-02  -3.482422E-02  -2.264959E-05
  -1.488843E-01  -5.051963E-01  -3.181764E-04
   5.652793E-01   1.522264E-01  -1.495905E-01
   5.652739E-01   1.520404E-01   1.497978E-01
  -5.725671E-01   1.918345E-01  -1.677512E-01
  -5.725726E-01   1.916245E-01   1.679750E-01
   1.335007E-01  -1.951434E-01  -1.204479E-04
   4.112756E-02   8.524803E-02   8.226819E-02
   4.113099E-02   8.535076E-02  -8.216111E-02
   5.117113E-03  -4.456992E-02  -4.966023E-03
   5.117069E-03  -4.457574E-02   4.910155E-03
  -8.526800E-03  -1.404202E-02  -3.990055E-03
  -8.526529E-03  -1.404691E-02   3.972251E-03
  -3.833931E-03  -2.238406E-02  -1.422570E-05
===================================

 Norm of the nonadiabatic coupling vector: 
 |h(drt2.state3,drt2.state4)|= 1.37441201905844 

 Cross-check of the non-adiabatic coupling term:
  DeltaE= -0.0184071828000469

  <L>*dE form CIGRD   :   -0.0000001473     0.0000007547    -0.0011391837
  <L>*dE form NADCOUPL:   -0.0000000669     0.0000008530    -0.0011462431
 -------------------------------------------------------------------------
  Difference          :   -0.0000000804    -0.0000000983     0.0000070593

 NOTE: This test is meaningless at a point of conical intersection!



============== timings ===================

   unik.gets.x    
   mcdrt.x        
   mcuft.x        
 * mcscf.x          walltime    0:02:54
   mcpc.x         
   mcpc.x         
   mcpc.x         
   mcpc.x         
   exptvl.x       
   exptvl.x       
   exptvl.x       
   exptvl.x       
   cidrt.x        
 * cidrt.x          walltime    0:00:06
 * tran.x           walltime    0:07:31
 * pciudg.x -m 19000   walltime   16:03:34
 * cipc.x           walltime    0:00:12
 * pciudg.x -m 19000   walltime   36:04:48
 * cipc.x           walltime    0:00:19
 * reindex.x        walltime    0:03:52
 * pciudg.x -m 19000   walltime    1:53:26
 * transci.x        walltime    0:02:13
 * transci.x        walltime    0:02:17
 * transci.x        walltime    0:02:15
 * transci.x        walltime    0:02:14
 * transci.x        walltime    0:02:12
 * transci.x        walltime    0:02:14
 * transci.x        walltime    0:04:08
 * transci.x        walltime    0:04:03
 * transci.x        walltime    0:04:01
 * transci.x        walltime    0:03:55
 * transci.x        walltime    0:03:57
 * transci.x        walltime    0:03:56
   exptvl.x       
   exptvl.x       
   exptvl.x       
   exptvl.x       
   exptvl.x       
   exptvl.x       
   exptvl.x       
   exptvl.x       
   mo_convert.x   
   mo_convert.x   
   mo_convert.x   
   mo_convert.x   
   mo_convert.x   
   mo_convert.x   
   mo_convert.x   
   mo_convert.x   
   mo_convert.x   
   mo_convert.x   
   mo_convert.x   
   mo_convert.x   
   mo_convert.x   
   mo_convert.x   
 * cidrt.x          walltime    0:00:07
 * tran.x           walltime    0:08:21
 * cigrd.x          walltime    0:07:54
 * tran.x           walltime    0:05:23
 * cigrd.x          walltime    0:08:28
 * tran.x           walltime    0:05:31
 * cigrd.x          walltime    0:08:06
 * tran.x           walltime    0:05:21
 * cigrd.x          walltime    0:08:02
 * tran.x           walltime    0:05:29
 * cigrd.x          walltime    0:08:43
 * tran.x           walltime    0:05:30
 * cigrd.x          walltime    0:08:16
 * tran.x           walltime    0:05:23
 * cigrd.x          walltime    0:08:06
 * tran.x           walltime    0:05:27
 * cigrd.x          walltime    0:08:25
 * tran.x           walltime    0:05:30
 * cigrd.x          walltime    0:07:35
 * tran.x           walltime    0:05:11
   tran.x         
   tdmrunfile.x   
 * cigrd.x          walltime    0:08:02
 * tran.x           walltime    0:05:11
   tran.x         
   tdmrunfile.x   
 * cigrd.x          walltime    0:08:13
 * tran.x           walltime    0:05:11
   tran.x         
   tdmrunfile.x   
 * cigrd.x          walltime    0:07:56
 * tran.x           walltime    0:05:06
   tran.x         
   tdmrunfile.x   
 * cigrd.x          walltime    0:08:25
 * tran.x           walltime    0:05:23
   tran.x         
   tdmrunfile.x   
 * cigrd.x          walltime    0:08:05
 * tran.x           walltime    0:05:17
   tran.x         
   tdmrunfile.x   
 * cigrd.x          walltime    0:08:04
 * tran.x           walltime    0:05:26
   tran.x         
   tdmrunfile.x   
 * cigrd.x          walltime    0:07:54
 * tran.x           walltime    0:05:16
   tran.x         
   tdmrunfile.x   
 * cigrd.x          walltime    0:08:15
 * tran.x           walltime    0:05:17
   tran.x         
   tdmrunfile.x   
 * cigrd.x          walltime    0:07:58
 * tran.x           walltime    0:05:08
   tran.x         
   tdmrunfile.x   
 * cigrd.x          walltime    0:08:20
 * tran.x           walltime    0:05:14
   tran.x         
   tdmrunfile.x   
 * cigrd.x          walltime    0:07:49
 * tran.x           walltime    0:05:06
   tran.x         
   tdmrunfile.x   

==========================================

