[Molden Format]
[Atoms] AU
  N     1    7    -0.0726898800   -4.3076849000    0.0000000000        
  C     2    6     0.0137393500   -1.8185223500    0.0000000000        
  C     3    6    -2.2948994300   -0.4298698800    0.0000000000        
  C     4    6     2.3178103900   -0.4158979900    0.0000000000        
  C     5    6    -2.2775651700    2.1628272600    0.0000000000        
  C     6    6     2.2903478500    2.1773617100    0.0000000000        
  C     7    6     0.0023572400    3.4942210300    0.0000000000        
  H     8    1    -2.9192179600   -6.2238481800    0.0000000000        
  H     9    1     1.6187798800   -5.1705776300    0.0000000000        
  H    10    1    -4.0352240500   -1.4722400500    0.0000000000        
  H    11    1     4.0811782200   -1.4275437600    0.0000000000        
  H    12    1    -4.0356752900    3.1817051800    0.0000000000        
  H    13    1     4.0433219600    3.2054635100    0.0000000000        
  H    14    1    -0.0026911800    5.5245188200    0.0000000000        
[5D]
[7F]
[GTO]
  1  0
   s    12 1.00
  0.114200D+05  0.172695D-04
  0.171200D+04  0.134411D-03
  0.389300D+03  0.694561D-03
  0.110000D+03  0.278531D-02
  0.355700D+02  0.863457D-02
  0.125400D+02  0.199805D-01
  0.464400D+01  0.262908D-01
  0.129300D+01 -0.243845D-01
  0.511800D+00 -0.924934D-01
  0.178700D+00 -0.339683D+00
  0.246240D-01  0.345111D+00
  0.112530D-01  0.752750D+00
   s    10 1.00
  0.114200D+05  0.523000D-03
  0.171200D+04  0.404500D-02
  0.389300D+03  0.207750D-01
  0.110000D+03  0.807269D-01
  0.355700D+02  0.233074D+00
  0.125400D+02  0.433501D+00
  0.464400D+01  0.347472D+00
  0.129300D+01  0.412620D-01
  0.511800D+00 -0.850799D-02
  0.178700D+00  0.238400D-02
   s    10 1.00
  0.114200D+05 -0.115000D-03
  0.171200D+04 -0.895000D-03
  0.389300D+03 -0.462400D-02
  0.110000D+03 -0.185280D-01
  0.355700D+02 -0.573390D-01
  0.125400D+02 -0.132076D+00
  0.464400D+01 -0.172510D+00
  0.129300D+01  0.151814D+00
  0.511800D+00  0.599944D+00
  0.178700D+00  0.387462D+00
   s     1 1.00
  0.129300D+01  0.100000D+01
   s     1 1.00
  0.178700D+00  0.100000D+01
   p     5 1.00
  0.266300D+02  0.146700D-01
  0.594800D+01  0.917640D-01
  0.174200D+01  0.298683D+00
  0.555000D+00  0.498487D+00
  0.172500D+00  0.337023D+00
   p     1 1.00
  0.174200D+01  0.100000D+01
   p     1 1.00
  0.555000D+00  0.100000D+01
   d     1 1.00
  0.165400D+01  0.100000D+01
   d     1 1.00
  0.469000D+00  0.100000D+01
   f     1 1.00
  0.109300D+01  0.100000D+01
  
  2  0
   s    10 1.00
  0.823600D+04  0.531000D-03
  0.123500D+04  0.410800D-02
  0.280800D+03  0.210870D-01
  0.792700D+02  0.818530D-01
  0.255900D+02  0.234817D+00
  0.899700D+01  0.434401D+00
  0.331900D+01  0.346129D+00
  0.905900D+00  0.393780D-01
  0.364300D+00 -0.898300D-02
  0.128500D+00  0.238500D-02
   s    10 1.00
  0.823600D+04 -0.113000D-03
  0.123500D+04 -0.878000D-03
  0.280800D+03 -0.454000D-02
  0.792700D+02 -0.181330D-01
  0.255900D+02 -0.557600D-01
  0.899700D+01 -0.126895D+00
  0.331900D+01 -0.170352D+00
  0.905900D+00  0.140382D+00
  0.364300D+00  0.598684D+00
  0.128500D+00  0.395389D+00
   s     1 1.00
  0.905900D+00  0.100000D+01
   s     1 1.00
  0.364300D+00  0.100000D+01
   p     5 1.00
  0.187100D+02  0.140310D-01
  0.413300D+01  0.868660D-01
  0.120000D+01  0.290216D+00
  0.382700D+00  0.501008D+00
  0.120900D+00  0.343406D+00
   p     1 1.00
  0.382700D+00  0.100000D+01
   p     1 1.00
  0.120900D+00  0.100000D+01
   d     1 1.00
  0.109700D+01  0.100000D+01
   d     1 1.00
  0.318000D+00  0.100000D+01
   f     1 1.00
  0.761000D+00  0.100000D+01
  
  3  0
   s    10 1.00
  0.823600D+04  0.531000D-03
  0.123500D+04  0.410800D-02
  0.280800D+03  0.210870D-01
  0.792700D+02  0.818530D-01
  0.255900D+02  0.234817D+00
  0.899700D+01  0.434401D+00
  0.331900D+01  0.346129D+00
  0.905900D+00  0.393780D-01
  0.364300D+00 -0.898300D-02
  0.128500D+00  0.238500D-02
   s    10 1.00
  0.823600D+04 -0.113000D-03
  0.123500D+04 -0.878000D-03
  0.280800D+03 -0.454000D-02
  0.792700D+02 -0.181330D-01
  0.255900D+02 -0.557600D-01
  0.899700D+01 -0.126895D+00
  0.331900D+01 -0.170352D+00
  0.905900D+00  0.140382D+00
  0.364300D+00  0.598684D+00
  0.128500D+00  0.395389D+00
   s     1 1.00
  0.905900D+00  0.100000D+01
   s     1 1.00
  0.364300D+00  0.100000D+01
   p     5 1.00
  0.187100D+02  0.140310D-01
  0.413300D+01  0.868660D-01
  0.120000D+01  0.290216D+00
  0.382700D+00  0.501008D+00
  0.120900D+00  0.343406D+00
   p     1 1.00
  0.382700D+00  0.100000D+01
   p     1 1.00
  0.120900D+00  0.100000D+01
   d     1 1.00
  0.109700D+01  0.100000D+01
   d     1 1.00
  0.318000D+00  0.100000D+01
   f     1 1.00
  0.761000D+00  0.100000D+01
  
  4  0
   s    10 1.00
  0.823600D+04  0.531000D-03
  0.123500D+04  0.410800D-02
  0.280800D+03  0.210870D-01
  0.792700D+02  0.818530D-01
  0.255900D+02  0.234817D+00
  0.899700D+01  0.434401D+00
  0.331900D+01  0.346129D+00
  0.905900D+00  0.393780D-01
  0.364300D+00 -0.898300D-02
  0.128500D+00  0.238500D-02
   s    10 1.00
  0.823600D+04 -0.113000D-03
  0.123500D+04 -0.878000D-03
  0.280800D+03 -0.454000D-02
  0.792700D+02 -0.181330D-01
  0.255900D+02 -0.557600D-01
  0.899700D+01 -0.126895D+00
  0.331900D+01 -0.170352D+00
  0.905900D+00  0.140382D+00
  0.364300D+00  0.598684D+00
  0.128500D+00  0.395389D+00
   s     1 1.00
  0.905900D+00  0.100000D+01
   s     1 1.00
  0.364300D+00  0.100000D+01
   p     5 1.00
  0.187100D+02  0.140310D-01
  0.413300D+01  0.868660D-01
  0.120000D+01  0.290216D+00
  0.382700D+00  0.501008D+00
  0.120900D+00  0.343406D+00
   p     1 1.00
  0.382700D+00  0.100000D+01
   p     1 1.00
  0.120900D+00  0.100000D+01
   d     1 1.00
  0.109700D+01  0.100000D+01
   d     1 1.00
  0.318000D+00  0.100000D+01
   f     1 1.00
  0.761000D+00  0.100000D+01
  
  5  0
   s    10 1.00
  0.823600D+04  0.531000D-03
  0.123500D+04  0.410800D-02
  0.280800D+03  0.210870D-01
  0.792700D+02  0.818530D-01
  0.255900D+02  0.234817D+00
  0.899700D+01  0.434401D+00
  0.331900D+01  0.346129D+00
  0.905900D+00  0.393780D-01
  0.364300D+00 -0.898300D-02
  0.128500D+00  0.238500D-02
   s    10 1.00
  0.823600D+04 -0.113000D-03
  0.123500D+04 -0.878000D-03
  0.280800D+03 -0.454000D-02
  0.792700D+02 -0.181330D-01
  0.255900D+02 -0.557600D-01
  0.899700D+01 -0.126895D+00
  0.331900D+01 -0.170352D+00
  0.905900D+00  0.140382D+00
  0.364300D+00  0.598684D+00
  0.128500D+00  0.395389D+00
   s     1 1.00
  0.905900D+00  0.100000D+01
   s     1 1.00
  0.364300D+00  0.100000D+01
   p     5 1.00
  0.187100D+02  0.140310D-01
  0.413300D+01  0.868660D-01
  0.120000D+01  0.290216D+00
  0.382700D+00  0.501008D+00
  0.120900D+00  0.343406D+00
   p     1 1.00
  0.382700D+00  0.100000D+01
   p     1 1.00
  0.120900D+00  0.100000D+01
   d     1 1.00
  0.109700D+01  0.100000D+01
   d     1 1.00
  0.318000D+00  0.100000D+01
   f     1 1.00
  0.761000D+00  0.100000D+01
  
  6  0
   s    10 1.00
  0.823600D+04  0.531000D-03
  0.123500D+04  0.410800D-02
  0.280800D+03  0.210870D-01
  0.792700D+02  0.818530D-01
  0.255900D+02  0.234817D+00
  0.899700D+01  0.434401D+00
  0.331900D+01  0.346129D+00
  0.905900D+00  0.393780D-01
  0.364300D+00 -0.898300D-02
  0.128500D+00  0.238500D-02
   s    10 1.00
  0.823600D+04 -0.113000D-03
  0.123500D+04 -0.878000D-03
  0.280800D+03 -0.454000D-02
  0.792700D+02 -0.181330D-01
  0.255900D+02 -0.557600D-01
  0.899700D+01 -0.126895D+00
  0.331900D+01 -0.170352D+00
  0.905900D+00  0.140382D+00
  0.364300D+00  0.598684D+00
  0.128500D+00  0.395389D+00
   s     1 1.00
  0.905900D+00  0.100000D+01
   s     1 1.00
  0.364300D+00  0.100000D+01
   p     5 1.00
  0.187100D+02  0.140310D-01
  0.413300D+01  0.868660D-01
  0.120000D+01  0.290216D+00
  0.382700D+00  0.501008D+00
  0.120900D+00  0.343406D+00
   p     1 1.00
  0.382700D+00  0.100000D+01
   p     1 1.00
  0.120900D+00  0.100000D+01
   d     1 1.00
  0.109700D+01  0.100000D+01
   d     1 1.00
  0.318000D+00  0.100000D+01
   f     1 1.00
  0.761000D+00  0.100000D+01
  
  7  0
   s    10 1.00
  0.823600D+04  0.531000D-03
  0.123500D+04  0.410800D-02
  0.280800D+03  0.210870D-01
  0.792700D+02  0.818530D-01
  0.255900D+02  0.234817D+00
  0.899700D+01  0.434401D+00
  0.331900D+01  0.346129D+00
  0.905900D+00  0.393780D-01
  0.364300D+00 -0.898300D-02
  0.128500D+00  0.238500D-02
   s    10 1.00
  0.823600D+04 -0.113000D-03
  0.123500D+04 -0.878000D-03
  0.280800D+03 -0.454000D-02
  0.792700D+02 -0.181330D-01
  0.255900D+02 -0.557600D-01
  0.899700D+01 -0.126895D+00
  0.331900D+01 -0.170352D+00
  0.905900D+00  0.140382D+00
  0.364300D+00  0.598684D+00
  0.128500D+00  0.395389D+00
   s     1 1.00
  0.905900D+00  0.100000D+01
   s     1 1.00
  0.364300D+00  0.100000D+01
   p     5 1.00
  0.187100D+02  0.140310D-01
  0.413300D+01  0.868660D-01
  0.120000D+01  0.290216D+00
  0.382700D+00  0.501008D+00
  0.120900D+00  0.343406D+00
   p     1 1.00
  0.382700D+00  0.100000D+01
   p     1 1.00
  0.120900D+00  0.100000D+01
   d     1 1.00
  0.109700D+01  0.100000D+01
   d     1 1.00
  0.318000D+00  0.100000D+01
   f     1 1.00
  0.761000D+00  0.100000D+01
  
  8  0
   s     4 1.00
  0.130100D+02  0.196850D-01
  0.196200D+01  0.137977D+00
  0.444600D+00  0.478148D+00
  0.122000D+00  0.501240D+00
   s     1 1.00
  0.122000D+00  0.100000D+01
   p     1 1.00
  0.727000D+00  0.100000D+01
  
  9  0
   s     4 1.00
  0.130100D+02  0.196850D-01
  0.196200D+01  0.137977D+00
  0.444600D+00  0.478148D+00
  0.122000D+00  0.501240D+00
   s     1 1.00
  0.122000D+00  0.100000D+01
   p     1 1.00
  0.727000D+00  0.100000D+01
  
 10  0
   s     4 1.00
  0.130100D+02  0.196850D-01
  0.196200D+01  0.137977D+00
  0.444600D+00  0.478148D+00
  0.122000D+00  0.501240D+00
   s     1 1.00
  0.122000D+00  0.100000D+01
   p     1 1.00
  0.727000D+00  0.100000D+01
  
 11  0
   s     4 1.00
  0.130100D+02  0.196850D-01
  0.196200D+01  0.137977D+00
  0.444600D+00  0.478148D+00
  0.122000D+00  0.501240D+00
   s     1 1.00
  0.122000D+00  0.100000D+01
   p     1 1.00
  0.727000D+00  0.100000D+01
  
 12  0
   s     4 1.00
  0.130100D+02  0.196850D-01
  0.196200D+01  0.137977D+00
  0.444600D+00  0.478148D+00
  0.122000D+00  0.501240D+00
   s     1 1.00
  0.122000D+00  0.100000D+01
   p     1 1.00
  0.727000D+00  0.100000D+01
  
 13  0
   s     4 1.00
  0.130100D+02  0.196850D-01
  0.196200D+01  0.137977D+00
  0.444600D+00  0.478148D+00
  0.122000D+00  0.501240D+00
   s     1 1.00
  0.122000D+00  0.100000D+01
   p     1 1.00
  0.727000D+00  0.100000D+01
  
 14  0
   s     4 1.00
  0.130100D+02  0.196850D-01
  0.196200D+01  0.137977D+00
  0.444600D+00  0.478148D+00
  0.122000D+00  0.501240D+00
   s     1 1.00
  0.122000D+00  0.100000D+01
   p     1 1.00
  0.727000D+00  0.100000D+01
  
[MO]
 Sym= __1_A__
 Ene=  0.000000000000000E+000
 Spin= Alpha
 Occup=    2.00000000000000     
                     1  5.542941767114044E-005
                     2  0.998439054204232     
                     3 -2.092606604239773E-003
                     4  1.845620542658156E-003
                     5  4.583596427338708E-003
                     6  1.619386589753919E-003
                     7  4.019889677406704E-003
                     8  0.000000000000000E+000
                     9 -3.254335435322819E-004
                    10 -1.629621565197543E-004
                    11  0.000000000000000E+000
                    12 -1.408345379328976E-003
                    13 -1.068451890796063E-003
                    14  0.000000000000000E+000
                    15 -8.065851088158232E-005
                    16  0.000000000000000E+000
                    17  0.000000000000000E+000
                    18 -1.868080579152024E-004
                    19 -9.517604838311251E-005
                    20  2.163305655867935E-004
                    21  0.000000000000000E+000
                    22  0.000000000000000E+000
                    23 -3.675165556535580E-005
                    24  3.928039067470217E-004
                    25  0.000000000000000E+000
                    26 -3.207806989218970E-006
                    27 -2.919930605775976E-005
                    28  0.000000000000000E+000
                    29  0.000000000000000E+000
                    30  2.214315899359595E-005
                    31 -1.083615471994095E-004
                    32 -1.955173694047755E-004
                    33  5.940764386030576E-004
                    34  1.950682672487795E-004
                    35  1.568407563632866E-005
                    36 -1.598798256307913E-004
                    37 -2.592020718250749E-003
                    38  0.000000000000000E+000
                    39  1.615249617766202E-004
                    40 -2.273108893364339E-004
                    41  0.000000000000000E+000
                    42 -8.582714845809153E-004
                    43  4.004790108617254E-003
                    44  0.000000000000000E+000
                    45 -3.381399670107809E-006
                    46  0.000000000000000E+000
                    47  0.000000000000000E+000
                    48 -1.445305767218535E-004
                    49 -2.641124832740958E-006
                    50 -2.445474077734250E-004
                    51  0.000000000000000E+000
                    52  0.000000000000000E+000
                    53 -1.441792767521634E-004
                    54  5.567073980753442E-004
                    55  0.000000000000000E+000
                    56 -2.708244657547895E-006
                    57 -5.736341279788532E-005
                    58  0.000000000000000E+000
                    59  0.000000000000000E+000
                    60  7.862027404064661E-006
                    61 -1.413399206802140E-004
                    62 -3.271258039587750E-004
                    63 -1.348306156484523E-003
                    64 -7.558818028334256E-005
                    65  1.491091809348456E-003
                    66 -2.999623217397026E-004
                    67  1.098047604573483E-004
                    68  0.000000000000000E+000
                    69  2.697455739200585E-004
                    70  6.077979510095839E-004
                    71  0.000000000000000E+000
                    72 -1.191877922707016E-003
                    73  2.128671192303577E-004
                    74  0.000000000000000E+000
                    75 -3.765583074840829E-005
                    76  0.000000000000000E+000
                    77  0.000000000000000E+000
                    78 -3.940802597799666E-005
                    79 -2.024245139792328E-005
                    80 -8.070263964081854E-005
                    81  0.000000000000000E+000
                    82  0.000000000000000E+000
                    83  2.074228293039876E-005
                    84 -3.381951149155229E-005
                    85  0.000000000000000E+000
                    86  1.636182787438480E-005
                    87 -4.279326366822101E-005
                    88  0.000000000000000E+000
                    89  0.000000000000000E+000
                    90 -3.223119003208911E-005
                    91 -1.315989578674281E-004
                    92 -1.837968181157603E-004
                    93 -8.251217064092666E-004
                    94  8.797198092248341E-005
                    95  2.336925697108744E-004
                    96  2.704410305927057E-004
                    97  1.979376748053310E-004
                    98  0.000000000000000E+000
                    99  2.191190521546190E-004
                   100  3.463416355959108E-004
                   101  0.000000000000000E+000
                   102  5.369826034028406E-004
                   103 -9.396166896033319E-004
                   104  0.000000000000000E+000
                   105 -1.464686231458187E-005
                   106  0.000000000000000E+000
                   107  0.000000000000000E+000
                   108 -4.366405705557350E-005
                   109 -6.812390033217606E-006
                   110  1.723997012034590E-005
                   111  0.000000000000000E+000
                   112  0.000000000000000E+000
                   113 -1.052529740815308E-004
                   114  9.035719926356245E-005
                   115  0.000000000000000E+000
                   116 -1.563109001815906E-005
                   117 -2.410384249251428E-005
                   118  0.000000000000000E+000
                   119  0.000000000000000E+000
                   120  5.670673255164446E-006
                   121 -6.668457227202033E-005
                   122 -1.773491886492342E-004
                   123 -4.302749438315801E-004
                   124  1.358730879492183E-004
                   125  1.783939756899142E-004
                   126 -2.329802851401685E-005
                   127 -2.624679175024126E-004
                   128  0.000000000000000E+000
                   129  1.617150005859181E-004
                   130  4.604824631159979E-004
                   131  0.000000000000000E+000
                   132  1.820000971041498E-004
                   133  1.142617569820351E-003
                   134  0.000000000000000E+000
                   135  1.387247656149527E-005
                   136  0.000000000000000E+000
                   137  0.000000000000000E+000
                   138  3.736253797471334E-005
                   139 -6.780405851357215E-006
                   140  1.483089399054599E-004
                   141  0.000000000000000E+000
                   142  0.000000000000000E+000
                   143  2.618905970089126E-004
                   144  1.287355582280845E-004
                   145  0.000000000000000E+000
                   146 -1.000677933236465E-005
                   147 -4.585531170626676E-005
                   148  0.000000000000000E+000
                   149  0.000000000000000E+000
                   150  2.488209382686724E-006
                   151 -4.388676406754499E-005
                   152 -1.273895987492587E-004
                   153 -2.873120112561524E-004
                   154  6.700940548975476E-005
                   155  1.777517801544873E-004
                   156 -7.008841728752938E-007
                   157 -2.042953028790277E-004
                   158  0.000000000000000E+000
                   159 -7.553636128849542E-005
                   160  1.444993166932858E-004
                   161  0.000000000000000E+000
                   162  4.614775962390727E-004
                   163  1.230174224440792E-004
                   164  0.000000000000000E+000
                   165  2.173843256522872E-006
                   166  0.000000000000000E+000
                   167  0.000000000000000E+000
                   168  1.074040991966374E-005
                   169  8.909909582409982E-006
                   170  1.087777572705562E-004
                   171  0.000000000000000E+000
                   172  0.000000000000000E+000
                   173  8.381212356856710E-005
                   174 -1.273248536396066E-005
                   175  0.000000000000000E+000
                   176  5.360531245677421E-006
                   177 -1.960618797620202E-005
                   178  0.000000000000000E+000
                   179  0.000000000000000E+000
                   180 -1.796284766948703E-005
                   181 -2.842289193628716E-005
                   182 -1.081495806146715E-004
                   183 -3.166264205674134E-004
                   184  2.922401271306880E-005
                   185  1.646127596664696E-004
                   186 -1.723803913928720E-005
                   187 -4.196853177457256E-005
                   188  0.000000000000000E+000
                   189  1.252834287434835E-004
                   190  7.149029396768523E-005
                   191  0.000000000000000E+000
                   192  5.903363794414494E-004
                   193 -1.650650353050323E-004
                   194  0.000000000000000E+000
                   195 -9.110779781838460E-007
                   196  0.000000000000000E+000
                   197  0.000000000000000E+000
                   198 -8.202757075392632E-006
                   199  1.692668962681115E-006
                   200  8.473730024267867E-006
                   201  0.000000000000000E+000
                   202  0.000000000000000E+000
                   203 -5.830937455077940E-005
                   204 -8.915260816255325E-005
                   205  0.000000000000000E+000
                   206 -4.047342233131277E-006
                   207 -4.420960094335357E-006
                   208  0.000000000000000E+000
                   209  0.000000000000000E+000
                   210  2.914237421230479E-006
                   211 -2.625620686313562E-006
                   212 -4.592135841987283E-004
                   213  9.910242164711357E-006
                   214  6.132155658235635E-006
                   215  3.889356732232825E-005
                   216  0.000000000000000E+000
                   217 -8.399162773167402E-005
                   218 -7.875646446725068E-004
                   219 -2.110212112792083E-004
                   220  7.950195947447941E-005
                   221  0.000000000000000E+000
                   222 -2.072083926872224E-004
                   223 -4.929218028301014E-004
                   224  3.965412885555685E-006
                   225 -4.737114521086638E-005
                   226  0.000000000000000E+000
                   227 -7.460530660519327E-005
                   228 -3.864350926390683E-004
                   229 -1.661872135769893E-005
                   230 -2.366383976310262E-005
                   231  0.000000000000000E+000
                   232  2.381516499168536E-006
                   233 -3.489332093930561E-004
                   234  9.955138831556896E-006
                   235 -2.335114380818357E-006
                   236  0.000000000000000E+000
                   237 -2.882387941967835E-005
                   238 -3.615628719558036E-004
                   239 -8.462532058166899E-006
                   240 -6.242540194897014E-006
                   241  0.000000000000000E+000
                   242 -1.752053515735025E-005
                   243  5.912420415433599E-006
                   244 -1.647344889592904E-007
                   245  1.917964349206856E-005
                   246  0.000000000000000E+000
 Sym= __2_A__
 Ene=  0.000000000000000E+000
 Spin= Alpha
 Occup=    2.00000000000000     
                     1 -4.832986712079143E-005
                     2 -3.037252656859401E-004
                     3  2.525192082497386E-003
                     4  1.338842878174977E-004
                     5  1.383845130229059E-003
                     6 -1.807559724923395E-004
                     7  2.612205000447123E-003
                     8  0.000000000000000E+000
                     9 -6.936577859954940E-005
                    10 -1.275150006873198E-004
                    11  0.000000000000000E+000
                    12 -9.907703153294723E-006
                    13 -3.639242403135886E-004
                    14  0.000000000000000E+000
                    15  3.227135974740055E-005
                    16  0.000000000000000E+000
                    17  0.000000000000000E+000
                    18 -3.407425697434200E-005
                    19  1.039533308118953E-005
                    20 -8.965716058334599E-005
                    21  0.000000000000000E+000
                    22  0.000000000000000E+000
                    23  2.183102721242074E-004
                    24 -1.139519693642664E-004
                    25  0.000000000000000E+000
                    26 -2.138108708652308E-005
                    27  1.131405782912359E-004
                    28  0.000000000000000E+000
                    29  0.000000000000000E+000
                    30 -6.029364969058022E-005
                    31  1.766383707582629E-004
                    32   1.00099072320885     
                    33  9.043781776138252E-003
                    34  2.771278467098906E-003
                    35 -7.829444809677656E-003
                    36 -1.435397818941587E-005
                    37 -4.003888320403675E-003
                    38  0.000000000000000E+000
                    39 -1.831301818834885E-004
                    40  1.220942399752370E-003
                    41  0.000000000000000E+000
                    42 -1.166937168427884E-004
                    43  4.357503296321936E-003
                    44  0.000000000000000E+000
                    45 -5.993618741150188E-004
                    46  0.000000000000000E+000
                    47  0.000000000000000E+000
                    48 -2.377596257460974E-004
                    49  1.782811134510273E-005
                    50  5.360991316300160E-004
                    51  0.000000000000000E+000
                    52  0.000000000000000E+000
                    53 -5.689756951759002E-004
                    54 -2.882919032998383E-004
                    55  0.000000000000000E+000
                    56  1.142556627452321E-005
                    57  7.688920053335552E-005
                    58  0.000000000000000E+000
                    59  0.000000000000000E+000
                    60 -2.720441767579286E-005
                    61  4.356406587721324E-004
                    62  8.009117979328611E-003
                    63 -2.048710372327126E-003
                    64 -2.232283450723269E-004
                    65  2.705355986153476E-003
                    66  1.119840515642909E-004
                    67 -7.777265006524983E-006
                    68  0.000000000000000E+000
                    69  4.149936738576057E-004
                    70  2.241657247522736E-004
                    71  0.000000000000000E+000
                    72 -2.087609377616227E-003
                    73  3.171981225132577E-004
                    74  0.000000000000000E+000
                    75  4.885526887141299E-005
                    76  0.000000000000000E+000
                    77  0.000000000000000E+000
                    78 -5.364611504773352E-006
                    79  2.350990299885043E-005
                    80 -4.089183530718329E-004
                    81  0.000000000000000E+000
                    82  0.000000000000000E+000
                    83 -6.984922176129880E-004
                    84 -2.405795037271134E-004
                    85  0.000000000000000E+000
                    86  3.393265583844171E-005
                    87 -5.866653924437098E-005
                    88  0.000000000000000E+000
                    89  0.000000000000000E+000
                    90  4.134079646126724E-005
                    91  1.482223713740376E-004
                    92  9.250854120188187E-003
                    93 -2.095377384428918E-003
                    94 -2.806716518337617E-004
                    95  3.108368426781553E-003
                    96 -1.605613891287768E-005
                    97 -9.216204397228289E-006
                    98  0.000000000000000E+000
                    99 -7.411633021481756E-004
                   100  1.236889812922101E-004
                   101  0.000000000000000E+000
                   102  1.799559632780346E-003
                   103  9.127503718757791E-005
                   104  0.000000000000000E+000
                   105  3.814946890205615E-005
                   106  0.000000000000000E+000
                   107  0.000000000000000E+000
                   108 -4.410390614154266E-006
                   109 -1.346430253290230E-005
                   110 -4.126982745940845E-004
                   111  0.000000000000000E+000
                   112  0.000000000000000E+000
                   113 -4.904578067418422E-004
                   114  2.753139003167421E-004
                   115  0.000000000000000E+000
                   116 -3.237748857434896E-005
                   117 -6.598489580566897E-005
                   118  0.000000000000000E+000
                   119  0.000000000000000E+000
                   120 -2.244958704342424E-005
                   121  1.346357243522120E-004
                   122 -2.517162624976089E-004
                   123 -7.699986895900021E-004
                   124  2.356215379360049E-004
                   125 -1.471771983551511E-004
                   126 -1.291959905848368E-005
                   127 -2.965653865800651E-004
                   128  0.000000000000000E+000
                   129 -4.780411536269233E-005
                   130  6.206290104744487E-004
                   131  0.000000000000000E+000
                   132  3.785942564431730E-004
                   133  8.509643475841615E-004
                   134  0.000000000000000E+000
                   135  2.175053566681219E-005
                   136  0.000000000000000E+000
                   137  0.000000000000000E+000
                   138  6.365088476623090E-006
                   139  4.422839801366395E-005
                   140  1.227032892806269E-004
                   141  0.000000000000000E+000
                   142  0.000000000000000E+000
                   143  2.815661481419066E-004
                   144 -1.506809252203160E-004
                   145  0.000000000000000E+000
                   146  6.137378447512481E-006
                   147 -3.280310751220118E-005
                   148  0.000000000000000E+000
                   149  0.000000000000000E+000
                   150 -3.955078493414422E-005
                   151  2.978582528188202E-005
                   152 -2.139364581865289E-004
                   153 -7.529945877976966E-004
                   154  2.400208556877801E-004
                   155 -9.938775955435000E-005
                   156 -1.197396555932454E-005
                   157 -2.961882547183979E-004
                   158  0.000000000000000E+000
                   159  9.425350534673295E-005
                   160  5.572294357744530E-004