[Molden Format]
[Atoms] AU
  N     1    7    -4.4534885800    0.1627052000   -0.0473189700        
  C     2    6    -1.7699182900   -0.0151065100   -0.0201661200        
  C     3    6    -0.4183824300    0.0171487200   -2.2851824400        
  C     4    6    -0.4368280300   -0.0308685600    2.2525111900        
  C     5    6     2.1956033900    0.0138760000   -2.2625468000        
  C     6    6     2.1811688700   -0.0187733200    2.2506890800        
  C     7    6     3.5141073300   -0.0003653700    0.0003680100        
  H     8    1    -5.1884423900   -0.9140829400   -1.4734259300        
  H     9    1    -5.1825265700   -0.5052960300    1.6130094900        
  H    10    1    -1.4171867500    0.0514997900   -4.0498955400        
  H    11    1    -1.4453788500   -0.0528070700    4.0122931500        
  H    12    1     3.2054699600    0.0284693400   -4.0225665400        
  H    13    1     3.1763891000   -0.0343743400    4.0190546700        
  H    14    1     5.5419828000    0.0018300500    0.0071312500        
[5D]
[7F]
[GTO]
  1  0
   s    12 1.00
  0.114200D+05  0.172695D-04
  0.171200D+04  0.134411D-03
  0.389300D+03  0.694561D-03
  0.110000D+03  0.278531D-02
  0.355700D+02  0.863457D-02
  0.125400D+02  0.199805D-01
  0.464400D+01  0.262908D-01
  0.129300D+01 -0.243845D-01
  0.511800D+00 -0.924934D-01
  0.178700D+00 -0.339683D+00
  0.246240D-01  0.345111D+00
  0.112530D-01  0.752750D+00
   s    10 1.00
  0.114200D+05  0.523000D-03
  0.171200D+04  0.404500D-02
  0.389300D+03  0.207750D-01
  0.110000D+03  0.807269D-01
  0.355700D+02  0.233074D+00
  0.125400D+02  0.433501D+00
  0.464400D+01  0.347472D+00
  0.129300D+01  0.412620D-01
  0.511800D+00 -0.850799D-02
  0.178700D+00  0.238400D-02
   s    10 1.00
  0.114200D+05 -0.115000D-03
  0.171200D+04 -0.895000D-03
  0.389300D+03 -0.462400D-02
  0.110000D+03 -0.185280D-01
  0.355700D+02 -0.573390D-01
  0.125400D+02 -0.132076D+00
  0.464400D+01 -0.172510D+00
  0.129300D+01  0.151814D+00
  0.511800D+00  0.599944D+00
  0.178700D+00  0.387462D+00
   s     1 1.00
  0.129300D+01  0.100000D+01
   s     1 1.00
  0.178700D+00  0.100000D+01
   p     5 1.00
  0.266300D+02  0.146700D-01
  0.594800D+01  0.917640D-01
  0.174200D+01  0.298683D+00
  0.555000D+00  0.498487D+00
  0.172500D+00  0.337023D+00
   p     1 1.00
  0.174200D+01  0.100000D+01
   p     1 1.00
  0.555000D+00  0.100000D+01
   d     1 1.00
  0.165400D+01  0.100000D+01
   d     1 1.00
  0.469000D+00  0.100000D+01
   f     1 1.00
  0.109300D+01  0.100000D+01
  
  2  0
   s    10 1.00
  0.823600D+04  0.531000D-03
  0.123500D+04  0.410800D-02
  0.280800D+03  0.210870D-01
  0.792700D+02  0.818530D-01
  0.255900D+02  0.234817D+00
  0.899700D+01  0.434401D+00
  0.331900D+01  0.346129D+00
  0.905900D+00  0.393780D-01
  0.364300D+00 -0.898300D-02
  0.128500D+00  0.238500D-02
   s    10 1.00
  0.823600D+04 -0.113000D-03
  0.123500D+04 -0.878000D-03
  0.280800D+03 -0.454000D-02
  0.792700D+02 -0.181330D-01
  0.255900D+02 -0.557600D-01
  0.899700D+01 -0.126895D+00
  0.331900D+01 -0.170352D+00
  0.905900D+00  0.140382D+00
  0.364300D+00  0.598684D+00
  0.128500D+00  0.395389D+00
   s     1 1.00
  0.905900D+00  0.100000D+01
   s     1 1.00
  0.364300D+00  0.100000D+01
   p     5 1.00
  0.187100D+02  0.140310D-01
  0.413300D+01  0.868660D-01
  0.120000D+01  0.290216D+00
  0.382700D+00  0.501008D+00
  0.120900D+00  0.343406D+00
   p     1 1.00
  0.382700D+00  0.100000D+01
   p     1 1.00
  0.120900D+00  0.100000D+01
   d     1 1.00
  0.109700D+01  0.100000D+01
   d     1 1.00
  0.318000D+00  0.100000D+01
   f     1 1.00
  0.761000D+00  0.100000D+01
  
  3  0
   s    10 1.00
  0.823600D+04  0.531000D-03
  0.123500D+04  0.410800D-02
  0.280800D+03  0.210870D-01
  0.792700D+02  0.818530D-01
  0.255900D+02  0.234817D+00
  0.899700D+01  0.434401D+00
  0.331900D+01  0.346129D+00
  0.905900D+00  0.393780D-01
  0.364300D+00 -0.898300D-02
  0.128500D+00  0.238500D-02
   s    10 1.00
  0.823600D+04 -0.113000D-03
  0.123500D+04 -0.878000D-03
  0.280800D+03 -0.454000D-02
  0.792700D+02 -0.181330D-01
  0.255900D+02 -0.557600D-01
  0.899700D+01 -0.126895D+00
  0.331900D+01 -0.170352D+00
  0.905900D+00  0.140382D+00
  0.364300D+00  0.598684D+00
  0.128500D+00  0.395389D+00
   s     1 1.00
  0.905900D+00  0.100000D+01
   s     1 1.00
  0.364300D+00  0.100000D+01
   p     5 1.00
  0.187100D+02  0.140310D-01
  0.413300D+01  0.868660D-01
  0.120000D+01  0.290216D+00
  0.382700D+00  0.501008D+00
  0.120900D+00  0.343406D+00
   p     1 1.00
  0.382700D+00  0.100000D+01
   p     1 1.00
  0.120900D+00  0.100000D+01
   d     1 1.00
  0.109700D+01  0.100000D+01
   d     1 1.00
  0.318000D+00  0.100000D+01
   f     1 1.00
  0.761000D+00  0.100000D+01
  
  4  0
   s    10 1.00
  0.823600D+04  0.531000D-03
  0.123500D+04  0.410800D-02
  0.280800D+03  0.210870D-01
  0.792700D+02  0.818530D-01
  0.255900D+02  0.234817D+00
  0.899700D+01  0.434401D+00
  0.331900D+01  0.346129D+00
  0.905900D+00  0.393780D-01
  0.364300D+00 -0.898300D-02
  0.128500D+00  0.238500D-02
   s    10 1.00
  0.823600D+04 -0.113000D-03
  0.123500D+04 -0.878000D-03
  0.280800D+03 -0.454000D-02
  0.792700D+02 -0.181330D-01
  0.255900D+02 -0.557600D-01
  0.899700D+01 -0.126895D+00
  0.331900D+01 -0.170352D+00
  0.905900D+00  0.140382D+00
  0.364300D+00  0.598684D+00
  0.128500D+00  0.395389D+00
   s     1 1.00
  0.905900D+00  0.100000D+01
   s     1 1.00
  0.364300D+00  0.100000D+01
   p     5 1.00
  0.187100D+02  0.140310D-01
  0.413300D+01  0.868660D-01
  0.120000D+01  0.290216D+00
  0.382700D+00  0.501008D+00
  0.120900D+00  0.343406D+00
   p     1 1.00
  0.382700D+00  0.100000D+01
   p     1 1.00
  0.120900D+00  0.100000D+01
   d     1 1.00
  0.109700D+01  0.100000D+01
   d     1 1.00
  0.318000D+00  0.100000D+01
   f     1 1.00
  0.761000D+00  0.100000D+01
  
  5  0
   s    10 1.00
  0.823600D+04  0.531000D-03
  0.123500D+04  0.410800D-02
  0.280800D+03  0.210870D-01
  0.792700D+02  0.818530D-01
  0.255900D+02  0.234817D+00
  0.899700D+01  0.434401D+00
  0.331900D+01  0.346129D+00
  0.905900D+00  0.393780D-01
  0.364300D+00 -0.898300D-02
  0.128500D+00  0.238500D-02
   s    10 1.00
  0.823600D+04 -0.113000D-03
  0.123500D+04 -0.878000D-03
  0.280800D+03 -0.454000D-02
  0.792700D+02 -0.181330D-01
  0.255900D+02 -0.557600D-01
  0.899700D+01 -0.126895D+00
  0.331900D+01 -0.170352D+00
  0.905900D+00  0.140382D+00
  0.364300D+00  0.598684D+00
  0.128500D+00  0.395389D+00
   s     1 1.00
  0.905900D+00  0.100000D+01
   s     1 1.00
  0.364300D+00  0.100000D+01
   p     5 1.00
  0.187100D+02  0.140310D-01
  0.413300D+01  0.868660D-01
  0.120000D+01  0.290216D+00
  0.382700D+00  0.501008D+00
  0.120900D+00  0.343406D+00
   p     1 1.00
  0.382700D+00  0.100000D+01
   p     1 1.00
  0.120900D+00  0.100000D+01
   d     1 1.00
  0.109700D+01  0.100000D+01
   d     1 1.00
  0.318000D+00  0.100000D+01
   f     1 1.00
  0.761000D+00  0.100000D+01
  
  6  0
   s    10 1.00
  0.823600D+04  0.531000D-03
  0.123500D+04  0.410800D-02
  0.280800D+03  0.210870D-01
  0.792700D+02  0.818530D-01
  0.255900D+02  0.234817D+00
  0.899700D+01  0.434401D+00
  0.331900D+01  0.346129D+00
  0.905900D+00  0.393780D-01
  0.364300D+00 -0.898300D-02
  0.128500D+00  0.238500D-02
   s    10 1.00
  0.823600D+04 -0.113000D-03
  0.123500D+04 -0.878000D-03
  0.280800D+03 -0.454000D-02
  0.792700D+02 -0.181330D-01
  0.255900D+02 -0.557600D-01
  0.899700D+01 -0.126895D+00
  0.331900D+01 -0.170352D+00
  0.905900D+00  0.140382D+00
  0.364300D+00  0.598684D+00
  0.128500D+00  0.395389D+00
   s     1 1.00
  0.905900D+00  0.100000D+01
   s     1 1.00
  0.364300D+00  0.100000D+01
   p     5 1.00
  0.187100D+02  0.140310D-01
  0.413300D+01  0.868660D-01
  0.120000D+01  0.290216D+00
  0.382700D+00  0.501008D+00
  0.120900D+00  0.343406D+00
   p     1 1.00
  0.382700D+00  0.100000D+01
   p     1 1.00
  0.120900D+00  0.100000D+01
   d     1 1.00
  0.109700D+01  0.100000D+01
   d     1 1.00
  0.318000D+00  0.100000D+01
   f     1 1.00
  0.761000D+00  0.100000D+01
  
  7  0
   s    10 1.00
  0.823600D+04  0.531000D-03
  0.123500D+04  0.410800D-02
  0.280800D+03  0.210870D-01
  0.792700D+02  0.818530D-01
  0.255900D+02  0.234817D+00
  0.899700D+01  0.434401D+00
  0.331900D+01  0.346129D+00
  0.905900D+00  0.393780D-01
  0.364300D+00 -0.898300D-02
  0.128500D+00  0.238500D-02
   s    10 1.00
  0.823600D+04 -0.113000D-03
  0.123500D+04 -0.878000D-03
  0.280800D+03 -0.454000D-02
  0.792700D+02 -0.181330D-01
  0.255900D+02 -0.557600D-01
  0.899700D+01 -0.126895D+00
  0.331900D+01 -0.170352D+00
  0.905900D+00  0.140382D+00
  0.364300D+00  0.598684D+00
  0.128500D+00  0.395389D+00
   s     1 1.00
  0.905900D+00  0.100000D+01
   s     1 1.00
  0.364300D+00  0.100000D+01
   p     5 1.00
  0.187100D+02  0.140310D-01
  0.413300D+01  0.868660D-01
  0.120000D+01  0.290216D+00
  0.382700D+00  0.501008D+00
  0.120900D+00  0.343406D+00
   p     1 1.00
  0.382700D+00  0.100000D+01
   p     1 1.00
  0.120900D+00  0.100000D+01
   d     1 1.00
  0.109700D+01  0.100000D+01
   d     1 1.00
  0.318000D+00  0.100000D+01
   f     1 1.00
  0.761000D+00  0.100000D+01
  
  8  0
   s     4 1.00
  0.130100D+02  0.196850D-01
  0.196200D+01  0.137977D+00
  0.444600D+00  0.478148D+00
  0.122000D+00  0.501240D+00
   s     1 1.00
  0.122000D+00  0.100000D+01
   p     1 1.00
  0.727000D+00  0.100000D+01
  
  9  0
   s     4 1.00
  0.130100D+02  0.196850D-01
  0.196200D+01  0.137977D+00
  0.444600D+00  0.478148D+00
  0.122000D+00  0.501240D+00
   s     1 1.00
  0.122000D+00  0.100000D+01
   p     1 1.00
  0.727000D+00  0.100000D+01
  
 10  0
   s     4 1.00
  0.130100D+02  0.196850D-01
  0.196200D+01  0.137977D+00
  0.444600D+00  0.478148D+00
  0.122000D+00  0.501240D+00
   s     1 1.00
  0.122000D+00  0.100000D+01
   p     1 1.00
  0.727000D+00  0.100000D+01
  
 11  0
   s     4 1.00
  0.130100D+02  0.196850D-01
  0.196200D+01  0.137977D+00
  0.444600D+00  0.478148D+00
  0.122000D+00  0.501240D+00
   s     1 1.00
  0.122000D+00  0.100000D+01
   p     1 1.00
  0.727000D+00  0.100000D+01
  
 12  0
   s     4 1.00
  0.130100D+02  0.196850D-01
  0.196200D+01  0.137977D+00
  0.444600D+00  0.478148D+00
  0.122000D+00  0.501240D+00
   s     1 1.00
  0.122000D+00  0.100000D+01
   p     1 1.00
  0.727000D+00  0.100000D+01
  
 13  0
   s     4 1.00
  0.130100D+02  0.196850D-01
  0.196200D+01  0.137977D+00
  0.444600D+00  0.478148D+00
  0.122000D+00  0.501240D+00
   s     1 1.00
  0.122000D+00  0.100000D+01
   p     1 1.00
  0.727000D+00  0.100000D+01
  
 14  0
   s     4 1.00
  0.130100D+02  0.196850D-01
  0.196200D+01  0.137977D+00
  0.444600D+00  0.478148D+00
  0.122000D+00  0.501240D+00
   s     1 1.00
  0.122000D+00  0.100000D+01
   p     1 1.00
  0.727000D+00  0.100000D+01
  
[MO]
 Sym= __1_A__
 Ene=   1.00000000000000     
 Spin= Alpha
 Occup=    1.00000000000000     
                     1  2.230774840030316E-004
                     2  0.998066970613792     
                     3  4.118696831268963E-003
                     4  1.920380979091332E-003
                     5  5.450728947906374E-003
                     6  5.458205860586310E-003
                     7 -4.738526721722852E-003
                     8  8.280876536063884E-004
                     9 -7.541588739230407E-004
                    10  2.399314768082208E-004
                    11 -9.260385710770406E-005
                    12 -1.343223151608512E-003
                    13  3.081746338609951E-003
                    14 -5.034945024322733E-004
                    15 -5.787921996970661E-006
                    16 -1.369537720996772E-005
                    17  1.010721811664722E-006
                    18  7.854404239940500E-005
                    19  6.366216159926622E-005
                    20 -3.793507435911382E-004
                    21  9.980994882905625E-005
                    22 -5.058330180637795E-005
                    23  4.987258793749096E-005
                    24 -4.810436883618048E-004
                    25 -2.312361592419773E-005
                    26 -1.449762905791410E-004
                    27 -6.657036754821267E-005
                    28  2.525167774467048E-005
                    29 -9.891692328695515E-006
                    30 -9.962209828818544E-005
                    31 -5.687755637696736E-005
                    32 -3.897579022445608E-004
                    33  9.662361425523410E-004
                    34  2.416396619691059E-004
                    35 -1.101823597252331E-004
                    36 -4.486254473840187E-003
                    37 -4.636812271099160E-006
                    38 -4.979686640377765E-005
                    39  2.041748251763223E-004
                    40 -1.425221001487729E-005
                    41  1.458421681778843E-004
                    42  4.853298166826272E-003
                    43  7.805598816878477E-004
                    44 -7.227075005497153E-004
                    45 -2.270712762070353E-004
                    46  7.981495298114560E-006
                    47  2.379006792951592E-006
                    48  2.093852090361394E-004
                    49  4.747577846780576E-005
                    50  4.638511248271043E-004
                    51  1.100046436702625E-004
                    52 -1.661047682512036E-005
                    53 -4.894430375904122E-005
                    54 -3.531836323746270E-004
                    55  8.177357606593721E-006
                    56 -6.180989701200344E-005
                    57  1.060669790171011E-005
                    58  5.720626092007462E-006
                    59  6.256465020715804E-007
                    60 -3.491588210367842E-005
                    61  3.584664557812600E-005
                    62 -4.222059283181459E-004
                    63 -2.020459956767011E-003
                    64  6.812474630482225E-005
                    65  1.152438047909058E-003
                    66  5.788755836142697E-004
                    67 -8.838823109473996E-005
                    68 -6.215050745915623E-004
                    69  6.729725710526359E-004
                    70  7.895426992894324E-005
                    71  1.961063207256272E-004
                    72 -3.298014661682101E-005
                    73 -3.443514972352490E-004
                    74 -9.773018339656319E-004
                    75 -7.606253515696803E-005
                    76 -1.522414116902142E-005
                    77  1.915110208938157E-005
                    78  6.656752711076401E-005
                    79 -9.121356886734478E-006
                    80  2.157658018063822E-004
                    81  1.860269133805754E-004
                    82 -3.281108546135838E-005
                    83 -9.295260643986253E-005
                    84  4.851280433929303E-005
                    85 -1.155098483307266E-005
                    86 -7.266392940636885E-005
                    87  2.121880531085935E-005
                    88 -9.152268869272158E-006
                    89  1.317768583924232E-005
                    90 -5.282416954408686E-005
                    91 -1.200945000845708E-005
                    92 -2.909039974054395E-004
                    93 -1.589592429806794E-003
                    94  1.266214983592456E-004
                    95  5.213928620721460E-004
                    96  6.261063257627987E-004
                    97 -8.906914024610394E-005
                    98  5.776675030764383E-004
                    99  5.181440330042123E-004
                   100  8.633967643376638E-005
                   101 -2.488054466365324E-005
                   102 -9.055450949051908E-004
                   103 -3.553472222089268E-004
                   104  6.153025374988294E-004
                   105 -7.524924047223853E-005
                   106  1.032961899566001E-005
                   107 -1.703041543891640E-005
                   108  5.855493759176510E-005
                   109 -1.007418114999568E-005
                   110  1.427656616252661E-004
                   111 -1.869699765528558E-004
                   112  2.134715769353135E-005
                   113 -1.448399106605323E-004
                   114  5.837829437256552E-005
                   115  3.527832481730735E-006
                   116 -3.867718243651091E-005
                   117  2.085841337179474E-005
                   118  1.369369336052899E-005
                   119 -1.256030918248821E-005
                   120 -3.956402050672294E-005
                   121 -1.035252860874820E-005
                   122 -2.078550398137544E-004
                   123 -3.620840430482734E-004
                   124  6.866663905416883E-005
                   125  5.823413478822469E-004
                   126 -5.682181607278093E-004
                   127 -3.450712806393999E-005
                   128  1.439643187834063E-005
                   129  3.120030033518189E-004
                   130 -2.397364656270342E-005
                   131  6.635331600254980E-005
                   132  1.275986539876836E-003
                   133  1.577712914652722E-004
                   134 -9.096145586334584E-005
                   135  9.349950412833089E-006
                   136  1.071931685578638E-006
                   137 -4.088587878898263E-006
                   138 -3.525131738514574E-006
                   139  9.496157700793894E-006
                   140  1.164937610446046E-004
                   141  2.261479775234291E-004
                   142  9.704344015738431E-006
                   143 -2.278059169481142E-004
                   144 -1.899567024672935E-005
                   145 -1.607951741390827E-005
                   146 -1.647973674157690E-005
                   147  2.157589059292549E-006
                   148 -5.770954897471892E-006
                   149 -2.172483339544879E-006
                   150 -5.274572522676423E-005
                   151 -1.218688713368481E-006
                   152 -1.701205042731528E-004
                   153 -2.396980125550041E-004
                   154  3.735417150787861E-005
                   155  5.126838418208198E-004
                   156 -5.470325514945600E-004
                   157 -3.243827330100998E-005
                   158 -3.516497507787479E-005
                   159  1.333628752708433E-004
                   160 -2.749101407014074E-005
                   161  4.834596680272613E-005
                   162  4.105127772195454E-004
                   163  1.446149025183427E-004
                   164  4.467902650230251E-004
                   165 -7.900455184406711E-007
                   166  1.431927472448244E-006
                   167  3.691110359616627E-006
                   168  4.064160825980856E-006
                   169  8.560114058171156E-006
                   170  3.403424892142723E-005
                   171 -1.580422659844151E-004
                   172 -6.651073903566508E-006
                   173 -1.372137865051859E-004
                   174 -1.037508014371427E-005
                   175  6.137006893295278E-006
                   176 -1.317217909610618E-005
                   177  2.811937216106944E-006
                   178  2.527293660301616E-006
                   179  1.247169515129296E-006
                   180 -3.623630052386333E-005
                   181 -2.143687854849398E-006
                   182 -1.255467909742479E-004
                   183 -3.885444468757100E-004
                   184  2.742390117255153E-005
                   185  1.519201574582521E-004
                   186 -1.655146224720534E-005
                   187 -4.295530876070826E-005
                   188 -2.059194905629104E-005
                   189  9.385971021438430E-005
                   190  2.105435488796221E-005
                   191  8.780833353725642E-005
                   192 -3.670695828566125E-004
                   193 -1.106118536660213E-004
                   194  4.767390891956261E-004
                   195 -1.033300587373018E-005
                   196  7.243597321402007E-007
                   197 -2.188719009162713E-008
                   198  4.116867612623252E-006
                   199 -2.283794625673071E-006
                   200 -1.141323327655589E-004
                   201 -7.254919905968646E-005
                   202  1.013492485035793E-006
                   203  6.406589220248459E-005
                   204  1.707573627532678E-005
                   205  8.260045705833212E-007
                   206  9.388633186853410E-007
                   207  3.018921536455354E-006
                   208  5.731248794027970E-006
                   209 -2.692528483248391E-007
                   210 -5.583816503184986E-006
                   211 -2.631375865390344E-006
                   212  2.763630719431099E-003
                   213 -2.183458524065171E-003
                   214  1.795704131877848E-004
                   215  3.438493778860923E-004
                   216  3.209526380897479E-004
                   217  2.897278025809266E-003
                   218 -2.251411455206774E-003
                   219  1.935580811364104E-004
                   220  2.513498673091371E-004
                   221 -4.210833780832607E-004
                   222 -5.193234564982825E-004
                   223 -2.949127945849796E-004
                   224 -6.627914653548766E-005
                   225  9.317203153842923E-006
                   226  3.571551395986660E-005
                   227 -4.913598435596065E-004
                   228 -3.222148299814982E-004
                   229 -5.619082902891629E-005
                   230  1.122449285295799E-005
                   231 -3.938114580347998E-005
                   232 -1.095962147218886E-004
                   233 -5.068147483158803E-004
                   234  3.211241647742477E-006
                   235 -1.311139384744758E-006
                   236 -7.436018129533713E-006
                   237 -1.302437762346037E-004
                   238 -4.295423237320010E-004
                   239  7.282063119476811E-006
                   240 -1.964609320085095E-006
                   241  1.175099843449054E-005
                   242  1.899859688977150E-005
                   243  1.155289099014699E-004
                   244  2.972396588873203E-005
                   245  1.785050670576628E-006
                   246  6.043446429091858E-007
 Sym= __2_A__
 Ene=   2.00000000000000     
 Spin= Alpha
 Occup=    1.00000000000000     
                     1 -2.066095964593948E-005
                     2 -8.372616910163699E-005
                     3  1.970046409958682E-003
                     4 -1.262238824295855E-005
                     5  1.246696067445383E-003
                     6  1.948730767917540E-003
                     7  3.005047206938894E-004
                     8 -6.847925106645162E-005
                     9 -1.491546758542585E-004
                    10  9.873739878909521E-005
                    11 -7.312846170248910E-006
                    12  3.900608466533722E-005
                    13  4.688171702079472E-005
                    14  2.542159546446353E-005
                    15 -7.254747959143655E-005
                    16  3.790204748786421E-006
                    17 -3.165876131365928E-006
                    18  3.990473123309818E-005
                    19 -2.968286247825536E-006
                    20  1.863660866243340E-004
                    21 -2.328927650576709E-005
                    22  9.724954250529520E-006
                    23  9.834394494149792E-005
                    24 -4.105576812528296E-005
                    25 -2.069775459990657E-005
                    26  1.393987947929833E-004
                    27 -5.489193662545115E-005
                    28  6.362193176418526E-007
                    29  6.178804097965274E-007
                    30  1.284757458080016E-004
                    31  3.620681913469302E-005
                    32   1.00096907274484     
                    33  8.777931185503220E-003
                    34  2.782163333873357E-003
                    35 -8.219697108861376E-003
                    36 -2.600587398257781E-003
                    37  7.001349197899826E-004
                    38  2.533418926311282E-006
                    39  1.097974828828655E-003
                    40 -2.266957122280658E-004
                    41 -2.799158659925917E-005
                    42  3.461162718419332E-003
                    43 -1.294283520217842E-004
                    44 -6.545642214956242E-005
                    45  2.962801824867620E-004
                    46  6.931898775962083E-006
                    47 -4.693512131230592E-006
                    48  4.188037749415716E-004
                    49 -2.463764851428345E-005
                    50 -1.046097716129729E-003
                    51 -4.531925983205317E-005
                    52  2.226174752607064E-005
                    53 -1.118072531331440E-004
                    54  3.188068066550979E-005
                    55 -2.897918834750474E-006
                    56  3.124617609069693E-004
                    57 -8.762154143904533E-006
                    58 -4.396506791626340E-006
                    59 -1.136850150195073E-006
                    60  8.221712203662466E-005
                    61  1.882506906769708E-005
                    62  1.227651744949333E-002
                    63 -1.875598505559265E-003
                    64 -3.051841782958113E-004
                    65  3.115553079994466E-003
                    66 -1.421634962108543E-004
                    67  1.214729141586401E-004
                    68  2.612327654713963E-004
                    69  3.114726811052500E-005
                    70 -3.072078940583827E-006
                    71  4.906319123958353E-004
                    72  2.234489136454248E-004
                    73 -1.264866812053241E-005
                    74 -1.854486380103119E-003
                    75 -1.071995482223311E-005
                    76  2.552726829198502E-005
                    77  9.266224871772542E-006
                    78 -3.643863296336350E-005
                    79 -4.851391948446787E-006
                    80 -4.313396474725367E-004
                    81 -4.592330972749789E-004
                    82  2.193786661816209E-006
                    83  7.682255719798086E-004
                    84 -7.279619332296686E-007
                    85  5.045856156620244E-005
                    86  1.092787046376707E-004
                    87  2.740688615934987E-006
                    88 -1.584750946629049E-005
                    89 -9.031562459212163E-006
                    90 -2.802536512741513E-005
                    91  4.604290508347994E-006
                    92  1.267520023443094E-002
                    93 -1.847868630432118E-003
                    94 -3.204591158992604E-004
                    95  3.189081999794412E-003
                    96 -1.544291154516786E-004
                    97  1.283149521118518E-004
                    98 -2.557543489661386E-004
                    99  2.312371653035497E-005
                   100  8.482668357472956E-006
                   101 -5.503525761081189E-004
                   102  9.598573298367522E-005
                   103 -5.004415111205674E-005
                   104  1.826154283339052E-003
                   105 -9.237538256888848E-006
                   106 -2.349275646317804E-005
                   107 -7.773660026436403E-006
                   108 -3.519437391633088E-005
                   109 -4.774556537522380E-006
                   110 -4.057299097423418E-004
                   111  4.772815406043463E-004
                   112 -1.716252738709487E-006
                   113  7.523737036808892E-004
                   114 -5.337942470039953E-006
                   115 -5.141653442467197E-005
                   116  1.053992257682354E-004
                   117 -1.222606048280015E-006
                   118  1.724344947266365E-005
                   119  4.767063124336979E-006
                   120 -3.101497272304999E-005
                   121  5.268789667648496E-006
                   122 -1.520497770871711E-004
                   123 -7.241774789298560E-004
                   124  2.497054226758979E-004
                   125 -3.066624068376849E-004
                   126 -1.911925873421085E-004
                   127  2.507824565092354E-005
                   128 -4.574624402308811E-005
                   129  6.021645296487757E-004
                   130 -4.747356694598131E-006
                   131  5.312782495243510E-005
                   132  6.315964073614888E-004
                   133 -2.670242503000199E-007
                   134  3.610427802205084E-004
                   135 -1.795548954013536E-008
                   136  4.193388535315427E-005
                   137  1.850935955155738E-007
                   138 -3.314246586535980E-005
                   139 -1.757199897338256E-006
                   140  1.960152554965544E-004
                   141 -2.623904433796839E-004
                   142  2.713249656826495E-006
                   143 -2.651056602042996E-004
                   144 -4.114577019634018E-007
                   145 -1.827359695785412E-005
                   146  1.412359508699698E-005
                   147 -1.135817242197439E-007
                   148 -1.273745198044607E-005
                   149 -2.333415751250071E-006
                   150 -2.485440288481480E-005
                   151 -5.003098563134874E-007
                   152 -1.424377831538918E-004
                   153 -7.058968993256528E-004
                   154  2.552161413100867E-004
                   155 -3.377415706651868E-004
                   156 -1.871807816917486E-004
                   157  2.078018226044212E-005
                   158  3.989031584272608E-005
                   159  5.968225745041990E-004
                   160  1.016865147117533E-006