[Molden Format]
[Atoms] AU
  N     1    7    -0.1122210500   -4.3599459700    0.0000000000        
  C     2    6     0.0335913200   -1.8109490900    0.0000000000        
  C     3    6    -2.2887225800   -0.4296606100    0.0000000000        
  C     4    6     2.3335870100   -0.3906131500    0.0000000000        
  C     5    6    -2.2786527300    2.1540276000    0.0000000000        
  C     6    6     2.3003188500    2.1863690200    0.0000000000        
  C     7    6     0.0032261900    3.4879101500    0.0000000000        
  H     8    1    -7.9643882600   -9.6154280300    0.0000000000        
  H     9    1     1.6906756500   -5.1120232200    0.0000000000        
  H    10    1    -4.0236500100   -1.4744530400    0.0000000000        
  H    11    1     4.0964291800   -1.3976801700    0.0000000000        
  H    12    1    -4.0313054100    3.1764614600    0.0000000000        
  H    13    1     4.0386937700    3.2333879300    0.0000000000        
  H    14    1    -0.0101142100    5.5162228000    0.0000000000        
[5D]
[7F]
[GTO]
  1  0
   s    12 1.00
  0.114200D+05  0.172695D-04
  0.171200D+04  0.134411D-03
  0.389300D+03  0.694561D-03
  0.110000D+03  0.278531D-02
  0.355700D+02  0.863457D-02
  0.125400D+02  0.199805D-01
  0.464400D+01  0.262908D-01
  0.129300D+01 -0.243845D-01
  0.511800D+00 -0.924934D-01
  0.178700D+00 -0.339683D+00
  0.246240D-01  0.345111D+00
  0.112530D-01  0.752750D+00
   s    10 1.00
  0.114200D+05  0.523000D-03
  0.171200D+04  0.404500D-02
  0.389300D+03  0.207750D-01
  0.110000D+03  0.807269D-01
  0.355700D+02  0.233074D+00
  0.125400D+02  0.433501D+00
  0.464400D+01  0.347472D+00
  0.129300D+01  0.412620D-01
  0.511800D+00 -0.850799D-02
  0.178700D+00  0.238400D-02
   s    10 1.00
  0.114200D+05 -0.115000D-03
  0.171200D+04 -0.895000D-03
  0.389300D+03 -0.462400D-02
  0.110000D+03 -0.185280D-01
  0.355700D+02 -0.573390D-01
  0.125400D+02 -0.132076D+00
  0.464400D+01 -0.172510D+00
  0.129300D+01  0.151814D+00
  0.511800D+00  0.599944D+00
  0.178700D+00  0.387462D+00
   s     1 1.00
  0.129300D+01  0.100000D+01
   s     1 1.00
  0.178700D+00  0.100000D+01
   p     5 1.00
  0.266300D+02  0.146700D-01
  0.594800D+01  0.917640D-01
  0.174200D+01  0.298683D+00
  0.555000D+00  0.498487D+00
  0.172500D+00  0.337023D+00
   p     1 1.00
  0.174200D+01  0.100000D+01
   p     1 1.00
  0.555000D+00  0.100000D+01
   d     1 1.00
  0.165400D+01  0.100000D+01
   d     1 1.00
  0.469000D+00  0.100000D+01
   f     1 1.00
  0.109300D+01  0.100000D+01
  
  2  0
   s    10 1.00
  0.823600D+04  0.531000D-03
  0.123500D+04  0.410800D-02
  0.280800D+03  0.210870D-01
  0.792700D+02  0.818530D-01
  0.255900D+02  0.234817D+00
  0.899700D+01  0.434401D+00
  0.331900D+01  0.346129D+00
  0.905900D+00  0.393780D-01
  0.364300D+00 -0.898300D-02
  0.128500D+00  0.238500D-02
   s    10 1.00
  0.823600D+04 -0.113000D-03
  0.123500D+04 -0.878000D-03
  0.280800D+03 -0.454000D-02
  0.792700D+02 -0.181330D-01
  0.255900D+02 -0.557600D-01
  0.899700D+01 -0.126895D+00
  0.331900D+01 -0.170352D+00
  0.905900D+00  0.140382D+00
  0.364300D+00  0.598684D+00
  0.128500D+00  0.395389D+00
   s     1 1.00
  0.905900D+00  0.100000D+01
   s     1 1.00
  0.364300D+00  0.100000D+01
   p     5 1.00
  0.187100D+02  0.140310D-01
  0.413300D+01  0.868660D-01
  0.120000D+01  0.290216D+00
  0.382700D+00  0.501008D+00
  0.120900D+00  0.343406D+00
   p     1 1.00
  0.382700D+00  0.100000D+01
   p     1 1.00
  0.120900D+00  0.100000D+01
   d     1 1.00
  0.109700D+01  0.100000D+01
   d     1 1.00
  0.318000D+00  0.100000D+01
   f     1 1.00
  0.761000D+00  0.100000D+01
  
  3  0
   s    10 1.00
  0.823600D+04  0.531000D-03
  0.123500D+04  0.410800D-02
  0.280800D+03  0.210870D-01
  0.792700D+02  0.818530D-01
  0.255900D+02  0.234817D+00
  0.899700D+01  0.434401D+00
  0.331900D+01  0.346129D+00
  0.905900D+00  0.393780D-01
  0.364300D+00 -0.898300D-02
  0.128500D+00  0.238500D-02
   s    10 1.00
  0.823600D+04 -0.113000D-03
  0.123500D+04 -0.878000D-03
  0.280800D+03 -0.454000D-02
  0.792700D+02 -0.181330D-01
  0.255900D+02 -0.557600D-01
  0.899700D+01 -0.126895D+00
  0.331900D+01 -0.170352D+00
  0.905900D+00  0.140382D+00
  0.364300D+00  0.598684D+00
  0.128500D+00  0.395389D+00
   s     1 1.00
  0.905900D+00  0.100000D+01
   s     1 1.00
  0.364300D+00  0.100000D+01
   p     5 1.00
  0.187100D+02  0.140310D-01
  0.413300D+01  0.868660D-01
  0.120000D+01  0.290216D+00
  0.382700D+00  0.501008D+00
  0.120900D+00  0.343406D+00
   p     1 1.00
  0.382700D+00  0.100000D+01
   p     1 1.00
  0.120900D+00  0.100000D+01
   d     1 1.00
  0.109700D+01  0.100000D+01
   d     1 1.00
  0.318000D+00  0.100000D+01
   f     1 1.00
  0.761000D+00  0.100000D+01
  
  4  0
   s    10 1.00
  0.823600D+04  0.531000D-03
  0.123500D+04  0.410800D-02
  0.280800D+03  0.210870D-01
  0.792700D+02  0.818530D-01
  0.255900D+02  0.234817D+00
  0.899700D+01  0.434401D+00
  0.331900D+01  0.346129D+00
  0.905900D+00  0.393780D-01
  0.364300D+00 -0.898300D-02
  0.128500D+00  0.238500D-02
   s    10 1.00
  0.823600D+04 -0.113000D-03
  0.123500D+04 -0.878000D-03
  0.280800D+03 -0.454000D-02
  0.792700D+02 -0.181330D-01
  0.255900D+02 -0.557600D-01
  0.899700D+01 -0.126895D+00
  0.331900D+01 -0.170352D+00
  0.905900D+00  0.140382D+00
  0.364300D+00  0.598684D+00
  0.128500D+00  0.395389D+00
   s     1 1.00
  0.905900D+00  0.100000D+01
   s     1 1.00
  0.364300D+00  0.100000D+01
   p     5 1.00
  0.187100D+02  0.140310D-01
  0.413300D+01  0.868660D-01
  0.120000D+01  0.290216D+00
  0.382700D+00  0.501008D+00
  0.120900D+00  0.343406D+00
   p     1 1.00
  0.382700D+00  0.100000D+01
   p     1 1.00
  0.120900D+00  0.100000D+01
   d     1 1.00
  0.109700D+01  0.100000D+01
   d     1 1.00
  0.318000D+00  0.100000D+01
   f     1 1.00
  0.761000D+00  0.100000D+01
  
  5  0
   s    10 1.00
  0.823600D+04  0.531000D-03
  0.123500D+04  0.410800D-02
  0.280800D+03  0.210870D-01
  0.792700D+02  0.818530D-01
  0.255900D+02  0.234817D+00
  0.899700D+01  0.434401D+00
  0.331900D+01  0.346129D+00
  0.905900D+00  0.393780D-01
  0.364300D+00 -0.898300D-02
  0.128500D+00  0.238500D-02
   s    10 1.00
  0.823600D+04 -0.113000D-03
  0.123500D+04 -0.878000D-03
  0.280800D+03 -0.454000D-02
  0.792700D+02 -0.181330D-01
  0.255900D+02 -0.557600D-01
  0.899700D+01 -0.126895D+00
  0.331900D+01 -0.170352D+00
  0.905900D+00  0.140382D+00
  0.364300D+00  0.598684D+00
  0.128500D+00  0.395389D+00
   s     1 1.00
  0.905900D+00  0.100000D+01
   s     1 1.00
  0.364300D+00  0.100000D+01
   p     5 1.00
  0.187100D+02  0.140310D-01
  0.413300D+01  0.868660D-01
  0.120000D+01  0.290216D+00
  0.382700D+00  0.501008D+00
  0.120900D+00  0.343406D+00
   p     1 1.00
  0.382700D+00  0.100000D+01
   p     1 1.00
  0.120900D+00  0.100000D+01
   d     1 1.00
  0.109700D+01  0.100000D+01
   d     1 1.00
  0.318000D+00  0.100000D+01
   f     1 1.00
  0.761000D+00  0.100000D+01
  
  6  0
   s    10 1.00
  0.823600D+04  0.531000D-03
  0.123500D+04  0.410800D-02
  0.280800D+03  0.210870D-01
  0.792700D+02  0.818530D-01
  0.255900D+02  0.234817D+00
  0.899700D+01  0.434401D+00
  0.331900D+01  0.346129D+00
  0.905900D+00  0.393780D-01
  0.364300D+00 -0.898300D-02
  0.128500D+00  0.238500D-02
   s    10 1.00
  0.823600D+04 -0.113000D-03
  0.123500D+04 -0.878000D-03
  0.280800D+03 -0.454000D-02
  0.792700D+02 -0.181330D-01
  0.255900D+02 -0.557600D-01
  0.899700D+01 -0.126895D+00
  0.331900D+01 -0.170352D+00
  0.905900D+00  0.140382D+00
  0.364300D+00  0.598684D+00
  0.128500D+00  0.395389D+00
   s     1 1.00
  0.905900D+00  0.100000D+01
   s     1 1.00
  0.364300D+00  0.100000D+01
   p     5 1.00
  0.187100D+02  0.140310D-01
  0.413300D+01  0.868660D-01
  0.120000D+01  0.290216D+00
  0.382700D+00  0.501008D+00
  0.120900D+00  0.343406D+00
   p     1 1.00
  0.382700D+00  0.100000D+01
   p     1 1.00
  0.120900D+00  0.100000D+01
   d     1 1.00
  0.109700D+01  0.100000D+01
   d     1 1.00
  0.318000D+00  0.100000D+01
   f     1 1.00
  0.761000D+00  0.100000D+01
  
  7  0
   s    10 1.00
  0.823600D+04  0.531000D-03
  0.123500D+04  0.410800D-02
  0.280800D+03  0.210870D-01
  0.792700D+02  0.818530D-01
  0.255900D+02  0.234817D+00
  0.899700D+01  0.434401D+00
  0.331900D+01  0.346129D+00
  0.905900D+00  0.393780D-01
  0.364300D+00 -0.898300D-02
  0.128500D+00  0.238500D-02
   s    10 1.00
  0.823600D+04 -0.113000D-03
  0.123500D+04 -0.878000D-03
  0.280800D+03 -0.454000D-02
  0.792700D+02 -0.181330D-01
  0.255900D+02 -0.557600D-01
  0.899700D+01 -0.126895D+00
  0.331900D+01 -0.170352D+00
  0.905900D+00  0.140382D+00
  0.364300D+00  0.598684D+00
  0.128500D+00  0.395389D+00
   s     1 1.00
  0.905900D+00  0.100000D+01
   s     1 1.00
  0.364300D+00  0.100000D+01
   p     5 1.00
  0.187100D+02  0.140310D-01
  0.413300D+01  0.868660D-01
  0.120000D+01  0.290216D+00
  0.382700D+00  0.501008D+00
  0.120900D+00  0.343406D+00
   p     1 1.00
  0.382700D+00  0.100000D+01
   p     1 1.00
  0.120900D+00  0.100000D+01
   d     1 1.00
  0.109700D+01  0.100000D+01
   d     1 1.00
  0.318000D+00  0.100000D+01
   f     1 1.00
  0.761000D+00  0.100000D+01
  
  8  0
   s     4 1.00
  0.130100D+02  0.196850D-01
  0.196200D+01  0.137977D+00
  0.444600D+00  0.478148D+00
  0.122000D+00  0.501240D+00
   s     1 1.00
  0.122000D+00  0.100000D+01
   p     1 1.00
  0.727000D+00  0.100000D+01
  
  9  0
   s     4 1.00
  0.130100D+02  0.196850D-01
  0.196200D+01  0.137977D+00
  0.444600D+00  0.478148D+00
  0.122000D+00  0.501240D+00
   s     1 1.00
  0.122000D+00  0.100000D+01
   p     1 1.00
  0.727000D+00  0.100000D+01
  
 10  0
   s     4 1.00
  0.130100D+02  0.196850D-01
  0.196200D+01  0.137977D+00
  0.444600D+00  0.478148D+00
  0.122000D+00  0.501240D+00
   s     1 1.00
  0.122000D+00  0.100000D+01
   p     1 1.00
  0.727000D+00  0.100000D+01
  
 11  0
   s     4 1.00
  0.130100D+02  0.196850D-01
  0.196200D+01  0.137977D+00
  0.444600D+00  0.478148D+00
  0.122000D+00  0.501240D+00
   s     1 1.00
  0.122000D+00  0.100000D+01
   p     1 1.00
  0.727000D+00  0.100000D+01
  
 12  0
   s     4 1.00
  0.130100D+02  0.196850D-01
  0.196200D+01  0.137977D+00
  0.444600D+00  0.478148D+00
  0.122000D+00  0.501240D+00
   s     1 1.00
  0.122000D+00  0.100000D+01
   p     1 1.00
  0.727000D+00  0.100000D+01
  
 13  0
   s     4 1.00
  0.130100D+02  0.196850D-01
  0.196200D+01  0.137977D+00
  0.444600D+00  0.478148D+00
  0.122000D+00  0.501240D+00
   s     1 1.00
  0.122000D+00  0.100000D+01
   p     1 1.00
  0.727000D+00  0.100000D+01
  
 14  0
   s     4 1.00
  0.130100D+02  0.196850D-01
  0.196200D+01  0.137977D+00
  0.444600D+00  0.478148D+00
  0.122000D+00  0.501240D+00
   s     1 1.00
  0.122000D+00  0.100000D+01
   p     1 1.00
  0.727000D+00  0.100000D+01
  
[MO]
 Sym= __1_A'_
 Ene=  0.000000000000000E+000
 Spin= Alpha
 Occup=    2.00000000000000     
                     1  1.445679135538652E-004
                     2  0.998338686820623     
                     3 -2.629725873074396E-003
                     4  1.838804541635294E-003
                     5  6.605702942727112E-003
                     6  2.831216724031074E-003
                     7  5.959611669918176E-003
                     8  0.000000000000000E+000
                     9 -6.941858026623511E-004
                    10 -7.267837781213003E-004
                    11  0.000000000000000E+000
                    12 -2.484366120570382E-003
                    13 -1.910909733101683E-003
                    14  0.000000000000000E+000
                    15 -2.683085286258090E-005
                    16  0.000000000000000E+000
                    17  0.000000000000000E+000
                    18 -1.533118496698929E-004
                    19 -5.780898112616161E-005
                    20  8.905476250697801E-005
                    21  0.000000000000000E+000
                    22  0.000000000000000E+000
                    23 -2.059004589761866E-004
                    24  5.024901270284156E-004
                    25  0.000000000000000E+000
                    26 -5.710135003897251E-006
                    27 -4.864476895724447E-005
                    28  0.000000000000000E+000
                    29  0.000000000000000E+000
                    30  3.802606378501304E-005
                    31 -1.077446151240816E-004
                    32 -4.015539264530567E-004
                    33  1.368741305727880E-004
                    34  3.148604940583610E-004
                    35 -5.064843638680056E-005
                    36 -4.951842359633915E-005
                    37 -2.733064720398827E-003
                    38  0.000000000000000E+000
                    39  3.752213857940793E-004
                    40  2.006511557613434E-004
                    41  0.000000000000000E+000
                    42 -2.060845941954847E-003
                    43  5.142232547941849E-003
                    44  0.000000000000000E+000
                    45  1.502569465205465E-006
                    46  0.000000000000000E+000
                    47  0.000000000000000E+000
                    48 -1.375305179322131E-004
                    49  2.041520613262130E-005
                    50 -2.009514152535505E-004
                    51  0.000000000000000E+000
                    52  0.000000000000000E+000
                    53  4.842351670297886E-005
                    54  7.753566185468247E-004
                    55  0.000000000000000E+000
                    56 -3.048887735606316E-006
                    57 -7.048577506374341E-005
                    58  0.000000000000000E+000
                    59  0.000000000000000E+000
                    60  2.476778840148104E-005
                    61 -1.224477510836859E-004
                    62 -5.640343883602493E-004
                    63 -2.260659811340768E-003
                    64 -8.556544118971792E-005
                    65  2.271237583791187E-003
                    66 -5.261967750268097E-004
                    67  1.625927048620367E-004
                    68  0.000000000000000E+000
                    69  3.887421002481970E-004
                    70  8.926062973126085E-004
                    71  0.000000000000000E+000
                    72 -1.693059993554953E-003
                    73  6.831687613339174E-004
                    74  0.000000000000000E+000
                    75 -4.299768156912837E-005
                    76  0.000000000000000E+000
                    77  0.000000000000000E+000
                    78 -6.496419076974075E-005
                    79 -2.011700964755943E-005
                    80 -1.326564846329173E-004
                    81  0.000000000000000E+000
                    82  0.000000000000000E+000
                    83  4.174786692720344E-005
                    84  1.732203926371959E-005
                    85  0.000000000000000E+000
                    86  8.195769465732081E-006
                    87 -4.619315836236375E-005
                    88  0.000000000000000E+000
                    89  0.000000000000000E+000
                    90 -2.475166638405347E-005
                    91 -1.538190059752229E-004
                    92 -1.838141796449800E-004
                    93 -6.718032508026136E-004
                    94  1.555494824669219E-004
                    95 -4.476811359364930E-005
                    96  2.256519704577691E-004
                    97  9.060119377035792E-006
                    98  0.000000000000000E+000
                    99  3.377750959082373E-004
                   100  3.991345550372735E-004
                   101  0.000000000000000E+000
                   102  6.620720665825657E-004
                   103 -1.784938948475480E-003
                   104  0.000000000000000E+000
                   105 -1.199564722811642E-005
                   106  0.000000000000000E+000
                   107  0.000000000000000E+000
                   108 -4.675700727931090E-005
                   109 -1.331989089173405E-005
                   110  8.421317314429945E-005
                   111  0.000000000000000E+000
                   112  0.000000000000000E+000
                   113 -1.677920398068788E-004
                   114  8.497779412319838E-005
                   115  0.000000000000000E+000
                   116 -1.991164480896026E-005
                   117 -2.264303921293055E-005
                   118  0.000000000000000E+000
                   119  0.000000000000000E+000
                   120 -1.218855375888475E-005
                   121 -3.731620855040177E-005
                   122 -2.429043660641862E-004
                   123 -5.865990091233216E-004
                   124  1.647373275279278E-004
                   125  3.312362991971539E-004
                   126 -3.312951294106128E-005
                   127 -3.434180405904213E-004
                   128  0.000000000000000E+000
                   129  2.463847283341250E-004
                   130  6.536755334383518E-004
                   131  0.000000000000000E+000
                   132  3.808244530129057E-004
                   133  2.029871021959861E-003
                   134  0.000000000000000E+000
                   135  1.320900395475415E-005
                   136  0.000000000000000E+000
                   137  0.000000000000000E+000
                   138  4.564267629247336E-005
                   139 -1.699669150100767E-006
                   140  2.049011298143654E-004
                   141  0.000000000000000E+000
                   142  0.000000000000000E+000
                   143  4.049957224251712E-004
                   144  2.403498976111426E-004
                   145  0.000000000000000E+000
                   146 -1.256408110701465E-005
                   147 -6.525170341437346E-005
                   148  0.000000000000000E+000
                   149  0.000000000000000E+000
                   150 -1.352848334045501E-005
                   151 -5.323202721524788E-005
                   152 -1.299223675356991E-004
                   153 -3.523632422479007E-004
                   154  5.521332223475561E-005
                   155  1.878301080691819E-004
                   156  1.037871278009609E-005
                   157 -9.001852729181261E-005
                   158  0.000000000000000E+000
                   159  1.165573478346669E-005
                   160  6.448486942329245E-005
                   161  0.000000000000000E+000
                   162  7.288442643309121E-004
                   163 -3.598604855490785E-004
                   164  0.000000000000000E+000
                   165  1.937538103525820E-006
                   166  0.000000000000000E+000
                   167  0.000000000000000E+000
                   168  3.168496517484040E-006
                   169  9.641842951421506E-006
                   170  1.082634890546769E-004
                   171  0.000000000000000E+000
                   172  0.000000000000000E+000
                   173  5.723228994948102E-005
                   174  2.644675136787282E-005
                   175  0.000000000000000E+000
                   176  3.024933043263103E-006
                   177 -1.514850256017699E-005
                   178  0.000000000000000E+000
                   179  0.000000000000000E+000
                   180 -2.072762322020683E-005
                   181 -3.056045336755624E-005
                   182 -1.339945081355266E-004
                   183 -3.898647561114288E-004
                   184  3.315676414673371E-005
                   185  1.842229455459025E-004
                   186 -5.059020441507568E-005
                   187 -6.477882326204336E-005
                   188  0.000000000000000E+000
                   189  2.741574797285765E-004
                   190  1.263036407915333E-004
                   191  0.000000000000000E+000
                   192  1.345453941223417E-003
                   193 -3.510468572930753E-004
                   194  0.000000000000000E+000
                   195  1.808907379942802E-006
                   196  0.000000000000000E+000
                   197  0.000000000000000E+000
                   198 -3.769169632775676E-006
                   199  4.068064896735169E-006
                   200 -7.211515402429748E-006
                   201  0.000000000000000E+000
                   202  0.000000000000000E+000
                   203 -8.345808918964520E-005
                   204 -2.035862509066259E-004
                   205  0.000000000000000E+000
                   206 -1.057602074815544E-005
                   207 -4.589745021653715E-006
                   208  0.000000000000000E+000
                   209  0.000000000000000E+000
                   210  7.443161202337025E-006
                   211 -2.856281612327938E-006
                   212  1.062455241578761E-005
                   213 -2.667723909817501E-005
                   214 -1.247868058368156E-006
                   215 -7.812131405111807E-007
                   216  0.000000000000000E+000
                   217 -8.609166708434241E-004
                   218 -6.647885937152746E-004
                   219 -2.392997245421035E-004
                   220  6.461059575834434E-005
                   221  0.000000000000000E+000
                   222 -2.111790421091272E-004
                   223 -5.552860695948597E-004
                   224  2.469208271044140E-005
                   225 -5.824721195219263E-005
                   226  0.000000000000000E+000
                   227  6.804959214777256E-005
                   228 -7.138701774726112E-004
                   229 -4.584401316919350E-005
                   230 -1.343204738681079E-005
                   231  0.000000000000000E+000
                   232  4.281674589296024E-006
                   233 -5.385748405992147E-004
                   234  1.250137492611874E-005
                   235 -3.572645270700088E-006
                   236  0.000000000000000E+000
                   237  7.565663618709839E-006
                   238 -3.727844136149258E-004
                   239 -6.016415668676486E-006
                   240 -1.504011379105838E-006
                   241  0.000000000000000E+000
                   242 -6.451011614014644E-005
                   243  9.932601696135458E-005
                   244  1.982070266429151E-007
                   245  3.166713872989193E-005
                   246  0.000000000000000E+000
 Sym= __2_A'_
 Ene=  0.000000000000000E+000
 Spin= Alpha
 Occup=    2.00000000000000     
                     1  1.564447118950293E-005
                     2  2.822316113183944E-004
                     3 -3.565986896741771E-003
                     4 -9.748588695365603E-005
                     5 -1.474174109852893E-003
                     6  9.769462826577549E-004
                     7 -3.874032231220464E-003
                     8  0.000000000000000E+000
                     9 -9.141479199522063E-006
                    10  8.645801221077649E-005
                    11  0.000000000000000E+000
                    12 -3.417719017154258E-005
                    13  2.323192085092242E-004
                    14  0.000000000000000E+000
                    15 -1.831441145530501E-005
                    16  0.000000000000000E+000
                    17  0.000000000000000E+000
                    18  8.006559731319480E-005
                    19 -3.337137676311869E-005
                    20  1.472107553000757E-004
                    21  0.000000000000000E+000
                    22  0.000000000000000E+000
                    23 -2.909897522400080E-005
                    24  1.555132167772012E-004
                    25  0.000000000000000E+000
                    26  1.256878414092204E-005
                    27 -8.162682653775055E-005
                    28  0.000000000000000E+000
                    29  0.000000000000000E+000
                    30  7.355604951392390E-005
                    31 -1.347471465392866E-004
                    32  -1.00074987087070     
                    33 -9.316050867277008E-003
                    34 -2.841215357633427E-003
                    35  8.126689552377536E-003
                    36  3.947210652045255E-004
                    37  4.432705669523953E-003
                    38  0.000000000000000E+000
                    39  2.205764819967644E-004
                    40 -3.710575100030704E-004
                    41  0.000000000000000E+000
                    42 -4.163042900097414E-005
                    43 -4.452823973875122E-003
                    44  0.000000000000000E+000
                    45  5.178566950918535E-004
                    46  0.000000000000000E+000
                    47  0.000000000000000E+000
                    48  2.104952405681476E-004
                    49 -5.037048695987748E-005
                    50 -5.620721253444879E-004
                    51  0.000000000000000E+000
                    52  0.000000000000000E+000
                    53  6.906510558426172E-004
                    54  4.867876957950105E-004
                    55  0.000000000000000E+000
                    56 -2.205960499589384E-005
                    57 -9.934341894213027E-005
                    58  0.000000000000000E+000
                    59  0.000000000000000E+000
                    60  4.320732275721886E-005
                    61 -3.762756698417605E-004
                    62 -1.431056610180246E-002
                    63  2.274347449784471E-003
                    64  2.073458360416994E-004
                    65 -2.657168236414713E-003
                    66  1.227830237248731E-004
                    67 -3.483869935752499E-004
                    68  0.000000000000000E+000
                    69 -4.461143836982840E-004
                    70 -1.424249711776442E-004
                    71  0.000000000000000E+000
                    72  2.044385035796873E-003
                    73 -2.534294062793960E-004
                    74  0.000000000000000E+000
                    75 -3.869453116780694E-005
                    76  0.000000000000000E+000
                    77  0.000000000000000E+000
                    78  2.877737195104836E-005
                    79 -5.793625360543524E-006
                    80  4.182807394044230E-004
                    81  0.000000000000000E+000
                    82  0.000000000000000E+000
                    83  7.146569023946846E-004
                    84  2.375949954254502E-004
                    85  0.000000000000000E+000
                    86 -3.124383690080026E-005
                    87  5.660795787528394E-005
                    88  0.000000000000000E+000
                    89  0.000000000000000E+000
                    90 -5.369968875273496E-005
                    91 -1.535610762784674E-004
                    92 -1.849752817981412E-002
                    93  2.363358646100533E-003
                    94  3.000086980411186E-004
                    95 -3.297625685050058E-003
                    96 -5.618360225213102E-004
                    97 -5.413391225496366E-004
                    98  0.000000000000000E+000
                    99  9.968650310646372E-004
                   100  4.400864602581203E-006
                   101  0.000000000000000E+000
                   102 -1.803567853482314E-003
                   103  5.122341767117187E-005
                   104  0.000000000000000E+000
                   105 -2.279233698799464E-005
                   106  0.000000000000000E+000
                   107  0.000000000000000E+000
                   108  2.630626982703184E-005
                   109  2.779840119291332E-006
                   110  4.163453563041526E-004
                   111  0.000000000000000E+000
                   112  0.000000000000000E+000
                   113  4.000944046402778E-004
                   114 -2.430047096642253E-004
                   115  0.000000000000000E+000
                   116  3.689862130587299E-005
                   117  7.588461751516671E-005
                   118  0.000000000000000E+000
                   119  0.000000000000000E+000
                   120  1.064192817918386E-005
                   121 -1.346818982296586E-004
                   122 -1.658775459283206E-004
                   123  5.740897435509313E-004
                   124 -2.222913750246613E-004
                   125  1.012318809980417E-004
                   126  1.187993662563535E-005
                   127  5.667103959824832E-004
                   128  0.000000000000000E+000
                   129  6.271757049794263E-005
                   130 -6.249943907900686E-004
                   131  0.000000000000000E+000
                   132 -3.115421737261006E-004
                   133 -9.489148729608538E-004
                   134  0.000000000000000E+000
                   135 -1.706639989128261E-005
                   136  0.000000000000000E+000
                   137  0.000000000000000E+000
                   138  8.217348308140429E-007
                   139 -4.867463203294766E-005
                   140 -1.211424096215110E-004
                   141  0.000000000000000E+000
                   142  0.000000000000000E+000
                   143 -2.558278019550240E-004
                   144  9.721268616416957E-005
                   145  0.000000000000000E+000
                   146 -8.808791459336179E-006
                   147  3.422642313705347E-005
                   148  0.000000000000000E+000
                   149  0.000000000000000E+000
                   150  4.617374481190041E-005
                   151 -3.986372030668978E-005
                   152 -5.785422190260636E-004
                   153  5.098830083663603E-004
                   154 -2.296260897451656E-004
                   155  3.685343879571996E-005
                   156  7.321348546945366E-005
                   157  6.635159558331338E-004
                   158  0.000000000000000E+000
                   159 -1.422908108818663E-004
                   160 -5.737423328303363E-004