[Molden Format]
[Atoms] AU
  N     1    7     0.0000000000   -4.2907334100    0.0000000000        
  C     2    6     0.0000000000   -1.7772236300    0.0000000000        
  C     3    6    -2.3389203600   -0.4111016300    0.0000000000        
  C     4    6     2.3389203600   -0.4111016300    0.0000000000        
  C     5    6    -2.2998668500    2.1639215300    0.0000000000        
  C     6    6     2.2998668500    2.1639215300    0.0000000000        
  C     7    6     0.0000000000    3.4755251800    0.0000000000        
  H     8    1    -2.8949410900   -6.0766690900    0.0000000000        
  H     9    1     1.6528040300   -5.3103747800    0.0000000000        
  H    10    1    -4.0745407300   -1.4447408500    0.0000000000        
  H    11    1     4.0745407300   -1.4447408500    0.0000000000        
  H    12    1    -4.0420632100    3.1963889500    0.0000000000        
  H    13    1     4.0420632100    3.1963889500    0.0000000000        
  H    14    1     0.0000000000    5.5020335600    0.0000000000        
[5D]
[7F]
[GTO]
  1  0
   s    12 1.00
  0.114200D+05  0.172695D-04
  0.171200D+04  0.134411D-03
  0.389300D+03  0.694561D-03
  0.110000D+03  0.278531D-02
  0.355700D+02  0.863457D-02
  0.125400D+02  0.199805D-01
  0.464400D+01  0.262908D-01
  0.129300D+01 -0.243845D-01
  0.511800D+00 -0.924934D-01
  0.178700D+00 -0.339683D+00
  0.246240D-01  0.345111D+00
  0.112530D-01  0.752750D+00
   s    10 1.00
  0.114200D+05  0.523000D-03
  0.171200D+04  0.404500D-02
  0.389300D+03  0.207750D-01
  0.110000D+03  0.807269D-01
  0.355700D+02  0.233074D+00
  0.125400D+02  0.433501D+00
  0.464400D+01  0.347472D+00
  0.129300D+01  0.412620D-01
  0.511800D+00 -0.850799D-02
  0.178700D+00  0.238400D-02
   s    10 1.00
  0.114200D+05 -0.115000D-03
  0.171200D+04 -0.895000D-03
  0.389300D+03 -0.462400D-02
  0.110000D+03 -0.185280D-01
  0.355700D+02 -0.573390D-01
  0.125400D+02 -0.132076D+00
  0.464400D+01 -0.172510D+00
  0.129300D+01  0.151814D+00
  0.511800D+00  0.599944D+00
  0.178700D+00  0.387462D+00
   s     1 1.00
  0.129300D+01  0.100000D+01
   s     1 1.00
  0.178700D+00  0.100000D+01
   p     5 1.00
  0.266300D+02  0.146700D-01
  0.594800D+01  0.917640D-01
  0.174200D+01  0.298683D+00
  0.555000D+00  0.498487D+00
  0.172500D+00  0.337023D+00
   p     1 1.00
  0.174200D+01  0.100000D+01
   p     1 1.00
  0.555000D+00  0.100000D+01
   d     1 1.00
  0.165400D+01  0.100000D+01
   d     1 1.00
  0.469000D+00  0.100000D+01
   f     1 1.00
  0.109300D+01  0.100000D+01
  
  2  0
   s    10 1.00
  0.823600D+04  0.531000D-03
  0.123500D+04  0.410800D-02
  0.280800D+03  0.210870D-01
  0.792700D+02  0.818530D-01
  0.255900D+02  0.234817D+00
  0.899700D+01  0.434401D+00
  0.331900D+01  0.346129D+00
  0.905900D+00  0.393780D-01
  0.364300D+00 -0.898300D-02
  0.128500D+00  0.238500D-02
   s    10 1.00
  0.823600D+04 -0.113000D-03
  0.123500D+04 -0.878000D-03
  0.280800D+03 -0.454000D-02
  0.792700D+02 -0.181330D-01
  0.255900D+02 -0.557600D-01
  0.899700D+01 -0.126895D+00
  0.331900D+01 -0.170352D+00
  0.905900D+00  0.140382D+00
  0.364300D+00  0.598684D+00
  0.128500D+00  0.395389D+00
   s     1 1.00
  0.905900D+00  0.100000D+01
   s     1 1.00
  0.364300D+00  0.100000D+01
   p     5 1.00
  0.187100D+02  0.140310D-01
  0.413300D+01  0.868660D-01
  0.120000D+01  0.290216D+00
  0.382700D+00  0.501008D+00
  0.120900D+00  0.343406D+00
   p     1 1.00
  0.382700D+00  0.100000D+01
   p     1 1.00
  0.120900D+00  0.100000D+01
   d     1 1.00
  0.109700D+01  0.100000D+01
   d     1 1.00
  0.318000D+00  0.100000D+01
   f     1 1.00
  0.761000D+00  0.100000D+01
  
  3  0
   s    10 1.00
  0.823600D+04  0.531000D-03
  0.123500D+04  0.410800D-02
  0.280800D+03  0.210870D-01
  0.792700D+02  0.818530D-01
  0.255900D+02  0.234817D+00
  0.899700D+01  0.434401D+00
  0.331900D+01  0.346129D+00
  0.905900D+00  0.393780D-01
  0.364300D+00 -0.898300D-02
  0.128500D+00  0.238500D-02
   s    10 1.00
  0.823600D+04 -0.113000D-03
  0.123500D+04 -0.878000D-03
  0.280800D+03 -0.454000D-02
  0.792700D+02 -0.181330D-01
  0.255900D+02 -0.557600D-01
  0.899700D+01 -0.126895D+00
  0.331900D+01 -0.170352D+00
  0.905900D+00  0.140382D+00
  0.364300D+00  0.598684D+00
  0.128500D+00  0.395389D+00
   s     1 1.00
  0.905900D+00  0.100000D+01
   s     1 1.00
  0.364300D+00  0.100000D+01
   p     5 1.00
  0.187100D+02  0.140310D-01
  0.413300D+01  0.868660D-01
  0.120000D+01  0.290216D+00
  0.382700D+00  0.501008D+00
  0.120900D+00  0.343406D+00
   p     1 1.00
  0.382700D+00  0.100000D+01
   p     1 1.00
  0.120900D+00  0.100000D+01
   d     1 1.00
  0.109700D+01  0.100000D+01
   d     1 1.00
  0.318000D+00  0.100000D+01
   f     1 1.00
  0.761000D+00  0.100000D+01
  
  4  0
   s    10 1.00
  0.823600D+04  0.531000D-03
  0.123500D+04  0.410800D-02
  0.280800D+03  0.210870D-01
  0.792700D+02  0.818530D-01
  0.255900D+02  0.234817D+00
  0.899700D+01  0.434401D+00
  0.331900D+01  0.346129D+00
  0.905900D+00  0.393780D-01
  0.364300D+00 -0.898300D-02
  0.128500D+00  0.238500D-02
   s    10 1.00
  0.823600D+04 -0.113000D-03
  0.123500D+04 -0.878000D-03
  0.280800D+03 -0.454000D-02
  0.792700D+02 -0.181330D-01
  0.255900D+02 -0.557600D-01
  0.899700D+01 -0.126895D+00
  0.331900D+01 -0.170352D+00
  0.905900D+00  0.140382D+00
  0.364300D+00  0.598684D+00
  0.128500D+00  0.395389D+00
   s     1 1.00
  0.905900D+00  0.100000D+01
   s     1 1.00
  0.364300D+00  0.100000D+01
   p     5 1.00
  0.187100D+02  0.140310D-01
  0.413300D+01  0.868660D-01
  0.120000D+01  0.290216D+00
  0.382700D+00  0.501008D+00
  0.120900D+00  0.343406D+00
   p     1 1.00
  0.382700D+00  0.100000D+01
   p     1 1.00
  0.120900D+00  0.100000D+01
   d     1 1.00
  0.109700D+01  0.100000D+01
   d     1 1.00
  0.318000D+00  0.100000D+01
   f     1 1.00
  0.761000D+00  0.100000D+01
  
  5  0
   s    10 1.00
  0.823600D+04  0.531000D-03
  0.123500D+04  0.410800D-02
  0.280800D+03  0.210870D-01
  0.792700D+02  0.818530D-01
  0.255900D+02  0.234817D+00
  0.899700D+01  0.434401D+00
  0.331900D+01  0.346129D+00
  0.905900D+00  0.393780D-01
  0.364300D+00 -0.898300D-02
  0.128500D+00  0.238500D-02
   s    10 1.00
  0.823600D+04 -0.113000D-03
  0.123500D+04 -0.878000D-03
  0.280800D+03 -0.454000D-02
  0.792700D+02 -0.181330D-01
  0.255900D+02 -0.557600D-01
  0.899700D+01 -0.126895D+00
  0.331900D+01 -0.170352D+00
  0.905900D+00  0.140382D+00
  0.364300D+00  0.598684D+00
  0.128500D+00  0.395389D+00
   s     1 1.00
  0.905900D+00  0.100000D+01
   s     1 1.00
  0.364300D+00  0.100000D+01
   p     5 1.00
  0.187100D+02  0.140310D-01
  0.413300D+01  0.868660D-01
  0.120000D+01  0.290216D+00
  0.382700D+00  0.501008D+00
  0.120900D+00  0.343406D+00
   p     1 1.00
  0.382700D+00  0.100000D+01
   p     1 1.00
  0.120900D+00  0.100000D+01
   d     1 1.00
  0.109700D+01  0.100000D+01
   d     1 1.00
  0.318000D+00  0.100000D+01
   f     1 1.00
  0.761000D+00  0.100000D+01
  
  6  0
   s    10 1.00
  0.823600D+04  0.531000D-03
  0.123500D+04  0.410800D-02
  0.280800D+03  0.210870D-01
  0.792700D+02  0.818530D-01
  0.255900D+02  0.234817D+00
  0.899700D+01  0.434401D+00
  0.331900D+01  0.346129D+00
  0.905900D+00  0.393780D-01
  0.364300D+00 -0.898300D-02
  0.128500D+00  0.238500D-02
   s    10 1.00
  0.823600D+04 -0.113000D-03
  0.123500D+04 -0.878000D-03
  0.280800D+03 -0.454000D-02
  0.792700D+02 -0.181330D-01
  0.255900D+02 -0.557600D-01
  0.899700D+01 -0.126895D+00
  0.331900D+01 -0.170352D+00
  0.905900D+00  0.140382D+00
  0.364300D+00  0.598684D+00
  0.128500D+00  0.395389D+00
   s     1 1.00
  0.905900D+00  0.100000D+01
   s     1 1.00
  0.364300D+00  0.100000D+01
   p     5 1.00
  0.187100D+02  0.140310D-01
  0.413300D+01  0.868660D-01
  0.120000D+01  0.290216D+00
  0.382700D+00  0.501008D+00
  0.120900D+00  0.343406D+00
   p     1 1.00
  0.382700D+00  0.100000D+01
   p     1 1.00
  0.120900D+00  0.100000D+01
   d     1 1.00
  0.109700D+01  0.100000D+01
   d     1 1.00
  0.318000D+00  0.100000D+01
   f     1 1.00
  0.761000D+00  0.100000D+01
  
  7  0
   s    10 1.00
  0.823600D+04  0.531000D-03
  0.123500D+04  0.410800D-02
  0.280800D+03  0.210870D-01
  0.792700D+02  0.818530D-01
  0.255900D+02  0.234817D+00
  0.899700D+01  0.434401D+00
  0.331900D+01  0.346129D+00
  0.905900D+00  0.393780D-01
  0.364300D+00 -0.898300D-02
  0.128500D+00  0.238500D-02
   s    10 1.00
  0.823600D+04 -0.113000D-03
  0.123500D+04 -0.878000D-03
  0.280800D+03 -0.454000D-02
  0.792700D+02 -0.181330D-01
  0.255900D+02 -0.557600D-01
  0.899700D+01 -0.126895D+00
  0.331900D+01 -0.170352D+00
  0.905900D+00  0.140382D+00
  0.364300D+00  0.598684D+00
  0.128500D+00  0.395389D+00
   s     1 1.00
  0.905900D+00  0.100000D+01
   s     1 1.00
  0.364300D+00  0.100000D+01
   p     5 1.00
  0.187100D+02  0.140310D-01
  0.413300D+01  0.868660D-01
  0.120000D+01  0.290216D+00
  0.382700D+00  0.501008D+00
  0.120900D+00  0.343406D+00
   p     1 1.00
  0.382700D+00  0.100000D+01
   p     1 1.00
  0.120900D+00  0.100000D+01
   d     1 1.00
  0.109700D+01  0.100000D+01
   d     1 1.00
  0.318000D+00  0.100000D+01
   f     1 1.00
  0.761000D+00  0.100000D+01
  
  8  0
   s     4 1.00
  0.130100D+02  0.196850D-01
  0.196200D+01  0.137977D+00
  0.444600D+00  0.478148D+00
  0.122000D+00  0.501240D+00
   s     1 1.00
  0.122000D+00  0.100000D+01
   p     1 1.00
  0.727000D+00  0.100000D+01
  
  9  0
   s     4 1.00
  0.130100D+02  0.196850D-01
  0.196200D+01  0.137977D+00
  0.444600D+00  0.478148D+00
  0.122000D+00  0.501240D+00
   s     1 1.00
  0.122000D+00  0.100000D+01
   p     1 1.00
  0.727000D+00  0.100000D+01
  
 10  0
   s     4 1.00
  0.130100D+02  0.196850D-01
  0.196200D+01  0.137977D+00
  0.444600D+00  0.478148D+00
  0.122000D+00  0.501240D+00
   s     1 1.00
  0.122000D+00  0.100000D+01
   p     1 1.00
  0.727000D+00  0.100000D+01
  
 11  0
   s     4 1.00
  0.130100D+02  0.196850D-01
  0.196200D+01  0.137977D+00
  0.444600D+00  0.478148D+00
  0.122000D+00  0.501240D+00
   s     1 1.00
  0.122000D+00  0.100000D+01
   p     1 1.00
  0.727000D+00  0.100000D+01
  
 12  0
   s     4 1.00
  0.130100D+02  0.196850D-01
  0.196200D+01  0.137977D+00
  0.444600D+00  0.478148D+00
  0.122000D+00  0.501240D+00
   s     1 1.00
  0.122000D+00  0.100000D+01
   p     1 1.00
  0.727000D+00  0.100000D+01
  
 13  0
   s     4 1.00
  0.130100D+02  0.196850D-01
  0.196200D+01  0.137977D+00
  0.444600D+00  0.478148D+00
  0.122000D+00  0.501240D+00
   s     1 1.00
  0.122000D+00  0.100000D+01
   p     1 1.00
  0.727000D+00  0.100000D+01
  
 14  0
   s     4 1.00
  0.130100D+02  0.196850D-01
  0.196200D+01  0.137977D+00
  0.444600D+00  0.478148D+00
  0.122000D+00  0.501240D+00
   s     1 1.00
  0.122000D+00  0.100000D+01
   p     1 1.00
  0.727000D+00  0.100000D+01
  
[MO]
 Sym= __1_A__
 Ene=   1.00000000000000     
 Spin= Alpha
 Occup=    1.00000000000000     
                     1  8.040523815458876E-005
                     2  0.998347355879785     
                     3  2.223726553390369E-003
                     4  1.786031309937179E-003
                     5  4.980310728746985E-003
                     6  2.976460542522420E-003
                     7  5.775408998369471E-003
                     8  2.230557665474588E-013
                     9 -5.901497764668317E-004
                    10 -4.408943255559714E-004
                    11  4.565882745114420E-012
                    12 -2.283348484898319E-003
                    13 -1.280276187921694E-003
                    14 -9.015269635698260E-014
                    15 -1.152293975717901E-004
                    16  1.638322097850278E-012
                    17 -1.103376571987710E-013
                    18 -2.090650144025562E-004
                    19 -1.101581490061267E-004
                    20  1.706669874446637E-004
                    21  1.509650797421875E-013
                    22  2.760522890160948E-012
                    23 -2.254195066416418E-004
                    24  6.281871903994277E-004
                    25 -5.595215555443067E-013
                    26 -2.645031402096534E-006
                    27 -5.458639685205116E-005
                    28 -5.559321231532524E-013
                    29  1.564046018633171E-012
                    30  1.968147777247001E-005
                    31 -1.379995841264111E-004
                    32 -3.327837527090857E-004
                    33  1.326115079250577E-003
                    34  2.733840024276522E-004
                    35 -2.704763589430286E-004
                    36 -1.867601538716645E-004
                    37 -4.884193861496610E-003
                    38  7.931457848448153E-012
                    39  4.768992578914929E-004
                    40  3.024560156043899E-004
                    41 -3.463937479761825E-012
                    42 -2.071968343015364E-003
                    43  5.200682925910647E-003
                    44  6.295229737642880E-012
                    45 -2.252542436003619E-005
                    46 -4.643036316385693E-013
                    47 -1.495999530457895E-012
                    48 -2.426201235651888E-004
                    49 -1.327159185748228E-005
                    50 -2.525665307631161E-004
                    51  1.648466232792281E-012
                    52  2.670100043908785E-012
                    53  9.473873398452440E-005
                    54  8.545251218666916E-004
                    55  4.937472311815734E-012
                    56 -1.178464951682137E-005
                    57 -5.307460623902656E-005
                    58 -6.124614234767162E-013
                    59 -2.188595372934872E-012
                    60 -1.490106404607583E-005
                    61 -1.263517262947793E-004
                    62 -4.703634862538462E-004
                    63 -2.224773487312619E-003
                    64 -8.364655022205919E-005
                    65  2.033441854068787E-003
                    66 -7.074013315740648E-004
                    67  5.428223343689993E-004
                    68  1.411784837537925E-011
                    69  4.655611065847853E-004
                    70  7.839961477482464E-004
                    71  1.762531543620807E-012
                    72 -1.646542934736783E-003
                    73  7.055333815269620E-004
                    74 -8.110469339138436E-012
                    75 -4.053803447073734E-005
                    76  6.012761714985152E-012
                    77  2.772763555985934E-012
                    78 -8.840356520340190E-005
                    79 -3.300572443395909E-005
                    80 -1.257163490750675E-004
                    81 -1.040276735416248E-012
                    82  1.036806623478168E-011
                    83  1.259278051037654E-004
                    84  1.306053834877569E-004
                    85 -3.001061783324851E-012
                    86  1.259886750849412E-005
                    87 -4.674369603541391E-005
                    88 -4.043836164048426E-012
                    89  2.519875775236349E-012
                    90 -1.480711903788103E-005
                    91 -1.468075689676279E-004
                    92 -1.289465964737696E-004
                    93 -1.044903941065404E-003
                    94  2.135659455259587E-004
                    95 -3.434839308061640E-004
                    96  5.906435639292291E-004
                    97  7.086658747962628E-004
                    98 -1.927283689199081E-012
                    99  4.400724629559497E-004
                   100  3.270668434060407E-004
                   101  9.921262019696929E-013
                   102  4.654035772995588E-004
                   103 -1.381665767420079E-003
                   104 -5.916964599002492E-012
                   105 -1.328865132280160E-006
                   106 -1.800124408536451E-012
                   107 -1.893692294085240E-012
                   108 -6.948081247834015E-005
                   109 -1.859177931391027E-005
                   110  1.288481277394008E-004
                   111 -1.606882102262599E-012
                   112  6.505178460454857E-012
                   113 -1.301920561539989E-004
                   114 -7.280619092221653E-005
                   115  2.212202656934058E-012
                   116 -2.382119562557697E-005
                   117 -2.939717316478396E-005
                   118 -3.717951286267366E-012
                   119 -4.763099358259995E-013
                   120  1.200433140722772E-005
                   121 -2.435074458348451E-005
                   122 -2.544643151779299E-004
                   123 -4.808126993950128E-004
                   124  1.642252178967749E-004
                   125  3.745417293888722E-004
                   126 -4.413766838686157E-006
                   127 -5.781849181537959E-004
                   128 -1.200190547295151E-011
                   129  1.559886156109857E-004
                   130  5.741913607554769E-004
                   131  6.081987638218433E-012
                   132  3.561291214059241E-004
                   133  1.926530337568685E-003
                   134  9.722307906391928E-012
                   135  1.225876030995981E-005
                   136 -1.617247624779407E-012
                   137 -2.879317897526538E-012
                   138  3.960569657825576E-005
                   139  8.887857543358647E-007
                   140  1.919622492224815E-004
                   141  2.795147199596803E-012
                   142  9.821498688166216E-012
                   143  3.426707914200312E-004
                   144  2.592857218221514E-004
                   145  1.061885168960712E-012
                   146 -7.994035833371067E-006
                   147 -5.881515587857667E-005
                   148  1.088480321641304E-012
                   149  1.912226999403627E-012
                   150 -2.129679417708109E-005
                   151 -4.760374890424184E-005
                   152 -1.728331568376623E-004
                   153 -2.285631569349144E-004
                   154  3.619694330511959E-005
                   155  3.728291720494558E-004
                   156 -3.259228810704728E-005
                   157 -5.135592557614467E-004
                   158  3.206423801798285E-012
                   159  2.276215057448733E-005
                   160  5.564524583506048E-005
                   161 -1.344106569403970E-011
                   162  6.875844403776700E-004
                   163 -2.224420447336158E-004
                   164  1.775338418353888E-011
                   165 -3.017043507418255E-006
                   166  1.445497524422914E-012
                   167  1.762144703972997E-013
                   168 -9.139415494299887E-006
                   169  3.900996392063303E-006
                   170  5.828219004564643E-005
                   171  2.158521325049986E-012
                   172  3.162540609781941E-012
                   173  1.604403424274950E-005
                   174 -3.812358759761336E-005
                   175 -1.225314020638045E-012
                   176  4.002995666695882E-006
                   177 -8.132404984715520E-006
                   178 -1.339234013107413E-013
                   179  1.365228312538491E-012
                   180 -2.142786019810590E-005
                   181 -7.951872190977804E-006
                   182 -1.643040970998716E-004
                   183 -4.693628654509594E-004
                   184  4.516579173234792E-005
                   185  2.337839323989017E-004
                   186 -3.458389241051039E-005
                   187 -5.204451361480568E-005
                   188  4.479392265991265E-013
                   189  1.889138678120251E-004
                   190  6.233858549605554E-005
                   191 -2.297678466317906E-012
                   192  1.215545092644164E-003
                   193 -1.642599519338828E-004
                   194 -1.538028594951912E-011
                   195 -6.415230242095570E-007
                   196 -1.006246348644733E-012
                   197 -2.898949434455908E-012
                   198 -1.378357560838435E-005
                   199  6.483291374072139E-006
                   200  1.282867198374541E-005
                   201  7.245371301433785E-012
                   202  4.565168419415349E-012
                   203 -8.642503053599666E-005
                   204 -1.655471317541540E-004
                   205 -4.330978987068356E-012
                   206 -4.858288948637650E-006
                   207 -5.160885673623232E-006
                   208 -1.069061711671294E-012
                   209  1.423339695915736E-013
                   210  9.987322229270301E-006
                   211 -5.792399011061490E-006
                   212 -1.410626434994275E-005
                   213  8.107510974428684E-005
                   214  6.769809876533955E-005
                   215  8.222793031780066E-005
                   216 -1.588674013236229E-012
                   217  1.175879967950404E-003
                   218 -1.515303758923390E-003
                   219 -4.141055233770870E-004
                   220  1.978429646052652E-004
                   221 -2.075936080674110E-012
                   222 -4.849121934978693E-004
                   223 -5.855580497461262E-004
                   224  6.681739859091326E-006
                   225 -7.354778392761021E-005
                   226  1.253660530369707E-013
                   227 -2.893386801409554E-004
                   228 -4.282574184815104E-004
                   229 -4.623982619168339E-006
                   230 -1.717058991568835E-005
                   231  1.934663991319086E-012
                   232 -8.486134286174630E-005
                   233 -5.386270083596561E-004
                   234  3.532868535885686E-006
                   235  1.361281922436578E-007
                   236 -2.992992883259478E-012
                   237 -1.799921502658209E-004
                   238 -3.928474307901680E-004
                   239  8.534635664255701E-006
                   240  4.181812847116199E-006
                   241 -6.208641996719023E-013
                   242  1.603797130006032E-005
                   243 -2.315282707995615E-005
                   244 -9.018443089220558E-007
                   245  2.286205635931809E-005
                   246  2.959660361627088E-012
 Sym= __2_A__
 Ene=   2.00000000000000     
 Spin= Alpha
 Occup=    1.00000000000000     
                     1 -4.829458597100304E-005
                     2 -3.166911458580129E-004
                     3  2.727050407613721E-003
                     4  1.416058519630760E-004
                     5  1.363140229229075E-003
                     6 -3.654369091542965E-004
                     7  2.996111615261661E-003
                     8 -9.253936918599452E-012
                     9 -8.092000608395308E-005
                    10 -1.069638843645462E-004
                    11 -1.043877307811561E-011
                    12  1.142464299930130E-004
                    13 -4.275569708142925E-004
                    14  8.387264626094760E-012
                    15  3.183348188904414E-005
                    16  4.574546544202444E-013
                    17 -8.225732375110520E-013
                    18 -4.611507963669354E-005
                    19  9.474653145044247E-006
                    20 -1.189050916079229E-004
                    21 -2.175474444798127E-013
                    22 -1.224089171706898E-012
                    23  1.649928577649229E-004
                    24 -1.918505532375047E-005
                    25  4.009160054028859E-013
                    26 -2.057177436135362E-005
                    27  8.726269865219525E-005
                    28 -1.228926494117646E-012
                    29 -1.022057948381354E-012
                    30 -2.286700030557278E-005
                    31  1.446545681263672E-004
                    32   1.00104004055502     
                    33  9.330099981326181E-003
                    34  2.707559342112229E-003
                    35 -8.135646196828486E-003
                    36 -1.189762647603834E-004
                    37 -3.568244202331908E-003
                    38  4.287458002595264E-012
                    39  1.294148525214303E-004
                    40  4.145384739117701E-004
                    41 -1.031391659759501E-011
                    42  4.704885765826473E-005
                    43  4.237837316825188E-003
                    44  1.033569725580559E-011
                    45 -5.659173759867430E-004
                    46  1.993682555245220E-012
                    47  4.802917423165270E-013
                    48 -1.976906978031794E-004
                    49 -8.197118527830749E-006
                    50  5.476817168056298E-004
                    51 -2.069421803470906E-012
                    52 -8.607551308263681E-012
                    53 -9.084100002602086E-004
                    54  6.471727077308464E-005
                    55 -6.750289871745860E-012
                    56 -3.756676747248873E-006
                    57  9.438821533910857E-005
                    58 -1.754440841593050E-012
                    59  4.046733433105094E-012
                    60  1.775971031265916E-006
                    61  3.990779826925579E-004
                    62  9.032842054844246E-003
                    63 -2.083974319184330E-003
                    64 -2.988921890204151E-004
                    65  3.074116354339488E-003
                    66 -1.974369676886311E-005
                    67  1.150360227969841E-004
                    68  5.186146236621264E-012
                    69  7.423928795829415E-004
                    70 -9.938288423499772E-006
                    71 -1.575716547295745E-012
                    72 -2.068223273546162E-003
                    73  6.178868871181520E-005
                    74 -8.797562404172262E-012
                    75  2.566184749986386E-005
                    76  1.169834155977391E-012
                    77  2.156709171362926E-012
                    78 -2.331265795419948E-006
                    79  1.909418486685225E-007
                    80 -4.126898496452432E-004
                    81  5.459192830378302E-012
                    82 -9.914534836770961E-013
                    83 -5.852065488177734E-004
                    84 -3.777637041826443E-004
                    85 -4.342354702702964E-013
                    86  3.316575548047599E-005
                    87 -5.944612892056021E-005
                    88  1.722647860600715E-012
                    89 -3.055453359145496E-012
                    90  5.113216643820406E-005
                    91  1.402697704448917E-004
                    92  9.842030701717295E-003
                    93 -2.066444161354986E-003
                    94 -2.839933920455179E-004
                    95  3.024750254192467E-003
                    96  1.784916590474820E-005
                    97  8.212744369383823E-005
                    98  1.100537245317249E-011
                    99 -6.642545522812263E-004
                   100  4.792612928038197E-005
                   101 -5.619498364014616E-012
                   102  2.041799783402244E-003
                   103  5.967493586595768E-005
                   104 -6.252636859289160E-012
                   105  3.050453282771870E-005
                   106 -2.056669284508336E-013
                   107 -9.215221559530183E-013
                   108 -4.540396397565812E-006
                   109 -7.545512576667677E-006
                   110 -4.131686924968664E-004
                   111 -3.000905350614453E-012
                   112 -1.757044287513404E-012
                   113 -6.169097817825592E-004
                   114  3.699572900220943E-004
                   115 -2.538340057043669E-012
                   116 -3.179454902749053E-005
                   117 -5.984474556374392E-005
                   118  3.265976795279678E-012
                   119  1.627647379893418E-012
                   120 -4.896605088274962E-005
                   121  1.358195024968961E-004
                   122 -1.539349293488633E-004
                   123 -6.670581508303200E-004
                   124  2.250265843395118E-004
                   125 -1.053181658239289E-004
                   126 -3.144427779563729E-006
                   127 -3.425687015784846E-004
                   128 -3.551608748322541E-012
                   129 -6.262055520856767E-005
                   130  5.385674677825725E-004
                   131 -1.223780175420400E-012
                   132  3.177481325266403E-004
                   133  7.593907884289115E-004
                   134  1.234306192705189E-011
                   135  1.873854970280719E-005
                   136 -1.481878960715829E-012
                   137 -1.139054416745350E-012
                   138  3.993911010937812E-006
                   139  5.259832920026842E-005
                   140  1.379459784522368E-004
                   141  3.187046553401081E-012
                   142  2.592646645512085E-012
                   143  2.413399615733234E-004
                   144 -1.796018190963400E-004
                   145  3.121136401723805E-012
                   146  7.304158436375290E-006
                   147 -3.396779123578752E-005
                   148  1.829339996413329E-013
                   149  1.432937004065687E-013
                   150 -4.770299814834802E-005
                   151  2.861666003209175E-005
                   152 -1.331718278071100E-004
                   153 -6.764318640136319E-004
                   154  2.302571599168554E-004
                   155 -1.373463796393732E-004
                   156  5.515631992491422E-007
                   157 -3.334008158752195E-004
                   158 -8.976926933107645E-012
                   159  4.441867846037083E-005
                   160  5.669438056539282E-004