[Molden Format]
[Atoms] AU
  N     1    7     0.0000000000   -4.2907334100    0.0000000000        
  C     2    6     0.0000000000   -1.7772236300    0.0000000000        
  C     3    6    -2.3389203600   -0.4111016300    0.0000000000        
  C     4    6     2.3389203600   -0.4111016300    0.0000000000        
  C     5    6    -2.2998668500    2.1639215300    0.0000000000        
  C     6    6     2.2998668500    2.1639215300    0.0000000000        
  C     7    6     0.0000000000    3.4755251800    0.0000000000        
  H     8    1    -2.5732809600   -5.8782317900    0.0000000000        
  H     9    1     1.9299607200   -5.4813572000    0.0000000000        
  H    10    1    -4.0745407300   -1.4447408500    0.0000000000        
  H    11    1     4.0745407300   -1.4447408500    0.0000000000        
  H    12    1    -4.0420632100    3.1963889500    0.0000000000        
  H    13    1     4.0420632100    3.1963889500    0.0000000000        
  H    14    1     0.0000000000    5.5020335600    0.0000000000        
[5D]
[7F]
[GTO]
  1  0
   s    12 1.00
  0.114200D+05  0.172695D-04
  0.171200D+04  0.134411D-03
  0.389300D+03  0.694561D-03
  0.110000D+03  0.278531D-02
  0.355700D+02  0.863457D-02
  0.125400D+02  0.199805D-01
  0.464400D+01  0.262908D-01
  0.129300D+01 -0.243845D-01
  0.511800D+00 -0.924934D-01
  0.178700D+00 -0.339683D+00
  0.246240D-01  0.345111D+00
  0.112530D-01  0.752750D+00
   s    10 1.00
  0.114200D+05  0.523000D-03
  0.171200D+04  0.404500D-02
  0.389300D+03  0.207750D-01
  0.110000D+03  0.807269D-01
  0.355700D+02  0.233074D+00
  0.125400D+02  0.433501D+00
  0.464400D+01  0.347472D+00
  0.129300D+01  0.412620D-01
  0.511800D+00 -0.850799D-02
  0.178700D+00  0.238400D-02
   s    10 1.00
  0.114200D+05 -0.115000D-03
  0.171200D+04 -0.895000D-03
  0.389300D+03 -0.462400D-02
  0.110000D+03 -0.185280D-01
  0.355700D+02 -0.573390D-01
  0.125400D+02 -0.132076D+00
  0.464400D+01 -0.172510D+00
  0.129300D+01  0.151814D+00
  0.511800D+00  0.599944D+00
  0.178700D+00  0.387462D+00
   s     1 1.00
  0.129300D+01  0.100000D+01
   s     1 1.00
  0.178700D+00  0.100000D+01
   p     5 1.00
  0.266300D+02  0.146700D-01
  0.594800D+01  0.917640D-01
  0.174200D+01  0.298683D+00
  0.555000D+00  0.498487D+00
  0.172500D+00  0.337023D+00
   p     1 1.00
  0.174200D+01  0.100000D+01
   p     1 1.00
  0.555000D+00  0.100000D+01
   d     1 1.00
  0.165400D+01  0.100000D+01
   d     1 1.00
  0.469000D+00  0.100000D+01
   f     1 1.00
  0.109300D+01  0.100000D+01
  
  2  0
   s    10 1.00
  0.823600D+04  0.531000D-03
  0.123500D+04  0.410800D-02
  0.280800D+03  0.210870D-01
  0.792700D+02  0.818530D-01
  0.255900D+02  0.234817D+00
  0.899700D+01  0.434401D+00
  0.331900D+01  0.346129D+00
  0.905900D+00  0.393780D-01
  0.364300D+00 -0.898300D-02
  0.128500D+00  0.238500D-02
   s    10 1.00
  0.823600D+04 -0.113000D-03
  0.123500D+04 -0.878000D-03
  0.280800D+03 -0.454000D-02
  0.792700D+02 -0.181330D-01
  0.255900D+02 -0.557600D-01
  0.899700D+01 -0.126895D+00
  0.331900D+01 -0.170352D+00
  0.905900D+00  0.140382D+00
  0.364300D+00  0.598684D+00
  0.128500D+00  0.395389D+00
   s     1 1.00
  0.905900D+00  0.100000D+01
   s     1 1.00
  0.364300D+00  0.100000D+01
   p     5 1.00
  0.187100D+02  0.140310D-01
  0.413300D+01  0.868660D-01
  0.120000D+01  0.290216D+00
  0.382700D+00  0.501008D+00
  0.120900D+00  0.343406D+00
   p     1 1.00
  0.382700D+00  0.100000D+01
   p     1 1.00
  0.120900D+00  0.100000D+01
   d     1 1.00
  0.109700D+01  0.100000D+01
   d     1 1.00
  0.318000D+00  0.100000D+01
   f     1 1.00
  0.761000D+00  0.100000D+01
  
  3  0
   s    10 1.00
  0.823600D+04  0.531000D-03
  0.123500D+04  0.410800D-02
  0.280800D+03  0.210870D-01
  0.792700D+02  0.818530D-01
  0.255900D+02  0.234817D+00
  0.899700D+01  0.434401D+00
  0.331900D+01  0.346129D+00
  0.905900D+00  0.393780D-01
  0.364300D+00 -0.898300D-02
  0.128500D+00  0.238500D-02
   s    10 1.00
  0.823600D+04 -0.113000D-03
  0.123500D+04 -0.878000D-03
  0.280800D+03 -0.454000D-02
  0.792700D+02 -0.181330D-01
  0.255900D+02 -0.557600D-01
  0.899700D+01 -0.126895D+00
  0.331900D+01 -0.170352D+00
  0.905900D+00  0.140382D+00
  0.364300D+00  0.598684D+00
  0.128500D+00  0.395389D+00
   s     1 1.00
  0.905900D+00  0.100000D+01
   s     1 1.00
  0.364300D+00  0.100000D+01
   p     5 1.00
  0.187100D+02  0.140310D-01
  0.413300D+01  0.868660D-01
  0.120000D+01  0.290216D+00
  0.382700D+00  0.501008D+00
  0.120900D+00  0.343406D+00
   p     1 1.00
  0.382700D+00  0.100000D+01
   p     1 1.00
  0.120900D+00  0.100000D+01
   d     1 1.00
  0.109700D+01  0.100000D+01
   d     1 1.00
  0.318000D+00  0.100000D+01
   f     1 1.00
  0.761000D+00  0.100000D+01
  
  4  0
   s    10 1.00
  0.823600D+04  0.531000D-03
  0.123500D+04  0.410800D-02
  0.280800D+03  0.210870D-01
  0.792700D+02  0.818530D-01
  0.255900D+02  0.234817D+00
  0.899700D+01  0.434401D+00
  0.331900D+01  0.346129D+00
  0.905900D+00  0.393780D-01
  0.364300D+00 -0.898300D-02
  0.128500D+00  0.238500D-02
   s    10 1.00
  0.823600D+04 -0.113000D-03
  0.123500D+04 -0.878000D-03
  0.280800D+03 -0.454000D-02
  0.792700D+02 -0.181330D-01
  0.255900D+02 -0.557600D-01
  0.899700D+01 -0.126895D+00
  0.331900D+01 -0.170352D+00
  0.905900D+00  0.140382D+00
  0.364300D+00  0.598684D+00
  0.128500D+00  0.395389D+00
   s     1 1.00
  0.905900D+00  0.100000D+01
   s     1 1.00
  0.364300D+00  0.100000D+01
   p     5 1.00
  0.187100D+02  0.140310D-01
  0.413300D+01  0.868660D-01
  0.120000D+01  0.290216D+00
  0.382700D+00  0.501008D+00
  0.120900D+00  0.343406D+00
   p     1 1.00
  0.382700D+00  0.100000D+01
   p     1 1.00
  0.120900D+00  0.100000D+01
   d     1 1.00
  0.109700D+01  0.100000D+01
   d     1 1.00
  0.318000D+00  0.100000D+01
   f     1 1.00
  0.761000D+00  0.100000D+01
  
  5  0
   s    10 1.00
  0.823600D+04  0.531000D-03
  0.123500D+04  0.410800D-02
  0.280800D+03  0.210870D-01
  0.792700D+02  0.818530D-01
  0.255900D+02  0.234817D+00
  0.899700D+01  0.434401D+00
  0.331900D+01  0.346129D+00
  0.905900D+00  0.393780D-01
  0.364300D+00 -0.898300D-02
  0.128500D+00  0.238500D-02
   s    10 1.00
  0.823600D+04 -0.113000D-03
  0.123500D+04 -0.878000D-03
  0.280800D+03 -0.454000D-02
  0.792700D+02 -0.181330D-01
  0.255900D+02 -0.557600D-01
  0.899700D+01 -0.126895D+00
  0.331900D+01 -0.170352D+00
  0.905900D+00  0.140382D+00
  0.364300D+00  0.598684D+00
  0.128500D+00  0.395389D+00
   s     1 1.00
  0.905900D+00  0.100000D+01
   s     1 1.00
  0.364300D+00  0.100000D+01
   p     5 1.00
  0.187100D+02  0.140310D-01
  0.413300D+01  0.868660D-01
  0.120000D+01  0.290216D+00
  0.382700D+00  0.501008D+00
  0.120900D+00  0.343406D+00
   p     1 1.00
  0.382700D+00  0.100000D+01
   p     1 1.00
  0.120900D+00  0.100000D+01
   d     1 1.00
  0.109700D+01  0.100000D+01
   d     1 1.00
  0.318000D+00  0.100000D+01
   f     1 1.00
  0.761000D+00  0.100000D+01
  
  6  0
   s    10 1.00
  0.823600D+04  0.531000D-03
  0.123500D+04  0.410800D-02
  0.280800D+03  0.210870D-01
  0.792700D+02  0.818530D-01
  0.255900D+02  0.234817D+00
  0.899700D+01  0.434401D+00
  0.331900D+01  0.346129D+00
  0.905900D+00  0.393780D-01
  0.364300D+00 -0.898300D-02
  0.128500D+00  0.238500D-02
   s    10 1.00
  0.823600D+04 -0.113000D-03
  0.123500D+04 -0.878000D-03
  0.280800D+03 -0.454000D-02
  0.792700D+02 -0.181330D-01
  0.255900D+02 -0.557600D-01
  0.899700D+01 -0.126895D+00
  0.331900D+01 -0.170352D+00
  0.905900D+00  0.140382D+00
  0.364300D+00  0.598684D+00
  0.128500D+00  0.395389D+00
   s     1 1.00
  0.905900D+00  0.100000D+01
   s     1 1.00
  0.364300D+00  0.100000D+01
   p     5 1.00
  0.187100D+02  0.140310D-01
  0.413300D+01  0.868660D-01
  0.120000D+01  0.290216D+00
  0.382700D+00  0.501008D+00
  0.120900D+00  0.343406D+00
   p     1 1.00
  0.382700D+00  0.100000D+01
   p     1 1.00
  0.120900D+00  0.100000D+01
   d     1 1.00
  0.109700D+01  0.100000D+01
   d     1 1.00
  0.318000D+00  0.100000D+01
   f     1 1.00
  0.761000D+00  0.100000D+01
  
  7  0
   s    10 1.00
  0.823600D+04  0.531000D-03
  0.123500D+04  0.410800D-02
  0.280800D+03  0.210870D-01
  0.792700D+02  0.818530D-01
  0.255900D+02  0.234817D+00
  0.899700D+01  0.434401D+00
  0.331900D+01  0.346129D+00
  0.905900D+00  0.393780D-01
  0.364300D+00 -0.898300D-02
  0.128500D+00  0.238500D-02
   s    10 1.00
  0.823600D+04 -0.113000D-03
  0.123500D+04 -0.878000D-03
  0.280800D+03 -0.454000D-02
  0.792700D+02 -0.181330D-01
  0.255900D+02 -0.557600D-01
  0.899700D+01 -0.126895D+00
  0.331900D+01 -0.170352D+00
  0.905900D+00  0.140382D+00
  0.364300D+00  0.598684D+00
  0.128500D+00  0.395389D+00
   s     1 1.00
  0.905900D+00  0.100000D+01
   s     1 1.00
  0.364300D+00  0.100000D+01
   p     5 1.00
  0.187100D+02  0.140310D-01
  0.413300D+01  0.868660D-01
  0.120000D+01  0.290216D+00
  0.382700D+00  0.501008D+00
  0.120900D+00  0.343406D+00
   p     1 1.00
  0.382700D+00  0.100000D+01
   p     1 1.00
  0.120900D+00  0.100000D+01
   d     1 1.00
  0.109700D+01  0.100000D+01
   d     1 1.00
  0.318000D+00  0.100000D+01
   f     1 1.00
  0.761000D+00  0.100000D+01
  
  8  0
   s     4 1.00
  0.130100D+02  0.196850D-01
  0.196200D+01  0.137977D+00
  0.444600D+00  0.478148D+00
  0.122000D+00  0.501240D+00
   s     1 1.00
  0.122000D+00  0.100000D+01
   p     1 1.00
  0.727000D+00  0.100000D+01
  
  9  0
   s     4 1.00
  0.130100D+02  0.196850D-01
  0.196200D+01  0.137977D+00
  0.444600D+00  0.478148D+00
  0.122000D+00  0.501240D+00
   s     1 1.00
  0.122000D+00  0.100000D+01
   p     1 1.00
  0.727000D+00  0.100000D+01
  
 10  0
   s     4 1.00
  0.130100D+02  0.196850D-01
  0.196200D+01  0.137977D+00
  0.444600D+00  0.478148D+00
  0.122000D+00  0.501240D+00
   s     1 1.00
  0.122000D+00  0.100000D+01
   p     1 1.00
  0.727000D+00  0.100000D+01
  
 11  0
   s     4 1.00
  0.130100D+02  0.196850D-01
  0.196200D+01  0.137977D+00
  0.444600D+00  0.478148D+00
  0.122000D+00  0.501240D+00
   s     1 1.00
  0.122000D+00  0.100000D+01
   p     1 1.00
  0.727000D+00  0.100000D+01
  
 12  0
   s     4 1.00
  0.130100D+02  0.196850D-01
  0.196200D+01  0.137977D+00
  0.444600D+00  0.478148D+00
  0.122000D+00  0.501240D+00
   s     1 1.00
  0.122000D+00  0.100000D+01
   p     1 1.00
  0.727000D+00  0.100000D+01
  
 13  0
   s     4 1.00
  0.130100D+02  0.196850D-01
  0.196200D+01  0.137977D+00
  0.444600D+00  0.478148D+00
  0.122000D+00  0.501240D+00
   s     1 1.00
  0.122000D+00  0.100000D+01
   p     1 1.00
  0.727000D+00  0.100000D+01
  
 14  0
   s     4 1.00
  0.130100D+02  0.196850D-01
  0.196200D+01  0.137977D+00
  0.444600D+00  0.478148D+00
  0.122000D+00  0.501240D+00
   s     1 1.00
  0.122000D+00  0.100000D+01
   p     1 1.00
  0.727000D+00  0.100000D+01
  
[MO]
 Sym= __1_a__
 Ene=  0.000000000000000E+000
 Spin= Alpha
 Occup=    2.00000000000000     
                     1  4.820918274014570E-005
                     2  0.998614150156669     
                     3  1.789866369926470E-003
                     4  1.480612694171870E-003
                     5  4.534924857795230E-003
                     6  3.267912363727600E-003
                     7  6.002676762305620E-003
                     8  6.496022606031910E-012
                     9 -7.373306401571020E-004
                    10 -4.501638899085630E-004
                    11  3.287228634427360E-013
                    12 -2.309361317596520E-003
                    13 -1.600135402289140E-003
                    14  8.053319119480090E-013
                    15 -8.042760880841859E-005
                    16 -9.526538961652590E-013
                    17  3.639592025517830E-013
                    18 -2.313030268895680E-004
                    19 -4.139918825539560E-005
                    20  2.120995705568822E-004
                    21  1.469161200173320E-012
                    22 -1.765211711026430E-012
                    23 -2.239741759485440E-004
                    24  5.141593383079560E-004
                    25  9.155640180490455E-013
                    26  6.249947368827991E-006
                    27 -5.557216684719658E-005
                    28  1.698890709107890E-012
                    29  3.605061748639730E-014
                    30  2.502459844558912E-005
                    31 -9.805618304333218E-005
                    32 -2.937916572726780E-004
                    33  1.371851707954240E-003
                    34  2.319642800425230E-004
                    35 -2.413610874765600E-004
                    36 -1.656010276539150E-004
                    37 -4.528034849502320E-003
                    38  3.349680749548620E-013
                    39  5.304185369527690E-004
                    40  1.143907109757130E-004
                    41  2.847297492370940E-012
                    42 -2.200861811606340E-003
                    43  5.189798032381510E-003
                    44 -1.324216849262610E-011
                    45 -2.494116474434439E-005
                    46 -8.649104197499450E-014
                    47  1.000287410249010E-012
                    48 -2.372824722724180E-004
                    49 -9.231429637270549E-006
                    50 -2.777692432260998E-004
                    51 -5.788139599613840E-012
                    52  2.550671850235120E-012
                    53 -6.599340321994540E-006
                    54  7.854818231322410E-004
                    55 -2.753657341110742E-013
                    56 -1.572578220750739E-005
                    57 -4.096878232016657E-005
                    58 -9.650395862743480E-013
                    59  3.015750079927940E-013
                    60 -8.766203852911267E-006
                    61 -1.128765613473133E-004
                    62 -4.852112884315490E-004
                    63 -2.191285241749960E-003
                    64 -9.485029583871540E-005
                    65  2.071616679674400E-003
                    66 -6.615498938870070E-004
                    67  4.514649817862980E-004
                    68 -8.001196528763410E-012
                    69  4.579432986764410E-004
                    70  7.667548211964990E-004
                    71  5.897463141519550E-012
                    72 -1.658968576266340E-003
                    73  7.169927891889600E-004
                    74  8.761602425822900E-012
                    75 -4.070018853201814E-005
                    76  2.938785017728950E-012
                    77  1.163194032296630E-012
                    78 -8.013934331779100E-005
                    79 -3.036038892812610E-005
                    80 -1.494113284524184E-004
                    81  7.332798389506230E-013
                    82  1.734345386819220E-012
                    83  8.739837438394120E-005
                    84  7.051105957429640E-005
                    85  1.632782098634398E-012
                    86  7.762873918936420E-006
                    87 -4.530475152515943E-005
                    88  1.417122500901714E-012
                    89 -2.628544410942430E-012
                    90 -1.632418425341863E-005
                    91 -1.520477418982538E-004
                    92 -1.131260148424900E-004
                    93 -9.013657486321280E-004
                    94  2.061468509668480E-004
                    95 -3.507541336969690E-004
                    96  5.180786309942371E-004
                    97  5.930258531533330E-004
                    98 -1.105004429033590E-011
                    99  4.272094291598590E-004
                   100  2.900116272492130E-004
                   101  1.517845311291910E-011
                   102  4.844991438004650E-004
                   103 -1.367783895137680E-003
                   104  1.382718749156160E-011
                   105 -3.690273977405644E-006
                   106 -7.376634264066160E-013
                   107  3.090378479604070E-012
                   108 -6.062316495358000E-005
                   109 -1.859291215572980E-005
                   110  1.372600571257455E-004
                   111 -2.585365435691550E-012
                   112 -3.325323863148430E-012
                   113 -1.346993623187884E-004
                   114 -4.014262357226160E-005
                   115  5.159668600689432E-013
                   116 -2.509516281404616E-005
                   117 -3.186365235532310E-005
                   118  4.245398436425780E-012
                   119 -7.686629786831360E-013
                   120  1.681144063627308E-005
                   121 -2.536541673309833E-005
                   122 -2.632222539158760E-004
                   123 -5.470326561072130E-004
                   124  1.698241108297190E-004
                   125  3.779499306959830E-004
                   126 -1.249154244935270E-005
                   127 -5.167698156623559E-004
                   128  1.645984371605860E-011
                   129  1.978421350785710E-004
                   130  5.913745129375640E-004
                   131 -1.955538831342420E-011
                   132  3.284893120467070E-004
                   133  1.939942295936550E-003
                   134 -9.865547652827471E-012
                   135  1.152968732974484E-005
                   136  2.766139871730270E-012
                   137  1.628366827160130E-012
                   138  4.352323348329040E-005
                   139  7.340139098538540E-008
                   140  2.014062172040654E-004
                   141 -2.443474411269650E-012
                   142 -2.610765363945330E-012
                   143  3.439838088771200E-004
                   144  2.438794382750340E-004
                   145  9.016489450107676E-013
                   146 -8.586144076793329E-006
                   147 -5.945490557488301E-005
                   148 -7.406381988038840E-013
                   149  1.557563728265470E-012
                   150 -1.895392499930775E-005
                   151 -4.766989861319575E-005
                   152 -1.748131554269190E-004
                   153 -2.818565936155730E-004
                   154  3.505643556386250E-005
                   155  3.857011602131770E-004
                   156 -2.638097997753090E-005
                   157 -4.386315887682290E-004
                   158  7.195592658084220E-012
                   159  8.354318989924651E-006
                   160  4.517980983059380E-005
                   161 -3.394639418203050E-012
                   162  6.862817429821820E-004
                   163 -2.610067611959790E-004
                   164 -7.827137593385790E-012
                   165 -2.655084431944684E-006
                   166 -1.688634803127340E-012
                   167  4.927033611173350E-013
                   168 -6.576633719981320E-006
                   169  5.598273433892560E-006
                   170  5.439241275883253E-005
                   171 -6.138163064568480E-013
                   172  1.991172620462780E-012
                   173  8.063290853171360E-006
                   174 -2.544036722430700E-005
                   175 -4.516277739820998E-013
                   176  4.861620054068852E-006
                   177 -7.579980201606170E-006
                   178  2.631025657901380E-013
                   179 -1.825565325640270E-012
                   180 -2.445623301313079E-005
                   181 -7.172102465244340E-006
                   182 -1.622431585380450E-004
                   183 -4.606704906728120E-004
                   184  4.950958229717640E-005
                   185  2.333438815674200E-004
                   186 -3.703971881343270E-005
                   187 -5.386173661713910E-005
                   188 -4.496957156700800E-012
                   189  1.927709668684990E-004
                   190  5.968000818964250E-005
                   191 -6.668616886417010E-013
                   192  1.237680532623860E-003
                   193 -1.374206358288430E-004
                   194  8.443406285762500E-012
                   195 -1.531629261953851E-006
                   196  2.520418395625490E-012
                   197  1.079396265275030E-016
                   198 -1.389025624280450E-005
                   199  6.912244285099580E-006
                   200  2.494095188683737E-005
                   201 -7.942757239600961E-012
                   202 -2.060778961221290E-013
                   203 -8.148147013817600E-005
                   204 -1.732761026948490E-004
                   205  1.264136806504095E-012
                   206 -5.283001868523965E-006
                   207 -6.217260103035165E-006
                   208  1.693176631900716E-012
                   209  8.341176248686750E-013
                   210  1.033234470754764E-005
                   211 -2.889314805940541E-006
                   212  4.612374962907190E-005
                   213  4.472284507721170E-005
                   214  1.294296071607530E-004
                   215  1.350441190027130E-004
                   216 -2.660851744983240E-012
                   217  2.483136622022790E-004
                   218 -8.412995124559050E-004
                   219 -3.727835001409520E-004
                   220  1.947698209343230E-004
                   221 -2.879594901142450E-012
                   222 -4.121154652472930E-004
                   223 -6.157864956840570E-004
                   224  4.416743896655340E-006
                   225 -6.738548109305499E-005
                   226  7.679799539415050E-014
                   227 -2.226821050471600E-004
                   228 -4.700420137325460E-004
                   229 -4.004430307827150E-006
                   230 -1.417960358339490E-005
                   231 -2.004333558814390E-012
                   232 -6.070114226339960E-005
                   233 -5.554760283004660E-004
                   234  6.652028789285480E-006
                   235 -3.683633648567060E-006
                   236  2.791465670297870E-012
                   237 -1.542201507359600E-004
                   238 -3.806765802970290E-004
                   239  7.150141306257310E-006
                   240  3.134033001854290E-006
                   241  2.791455884347410E-012
                   242  1.580156038874380E-005
                   243 -4.349409371292730E-005
                   244 -2.819656814727730E-007
                   245  2.033904980432740E-005
                   246  1.397603532512790E-012
 Sym= __2_a__
 Ene=  0.000000000000000E+000
 Spin= Alpha
 Occup=    2.00000000000000     
                     1 -5.216892256987800E-005
                     2 -3.449864775717940E-004
                     3  2.872446169329380E-003
                     4  1.603860670279400E-004
                     5  1.330825852768800E-003
                     6 -2.098504970205660E-004
                     7  2.942896194865940E-003
                     8 -1.102230545462490E-012
                     9 -4.540599443120110E-005
                    10 -1.129141450663330E-004
                    11 -1.281812460323120E-012
                    12  6.111543279082590E-005
                    13 -4.166563403827120E-004
                    14  3.437937103871250E-013
                    15  3.448472363427597E-005
                    16  1.071020023535100E-012
                    17 -1.830866529097070E-012
                    18 -5.091117794198600E-005
                    19  8.873869190988781E-006
                    20 -1.201244295253208E-004
                    21 -2.072499129782530E-012
                    22 -4.049290076836560E-013
                    23  1.502292121366138E-004
                    24 -7.277321679968100E-006
                    25 -1.180732134399484E-013
                    26 -1.233677581924977E-005
                    27  8.961478362670996E-005
                    28 -7.344037716874780E-013
                    29  5.855420123377500E-013
                    30 -1.028087897747878E-005
                    31  1.481932382383364E-004
                    32   1.00101880143136     
                    33  9.310817834780979E-003
                    34  2.731452375340020E-003
                    35 -8.114209015418350E-003
                    36 -1.096196103418890E-004
                    37 -3.633461268127770E-003
                    38 -1.354530362512480E-011
                    39  1.349806485425080E-004
                    40  4.910549338539740E-004
                    41  1.250675372789420E-011
                    42  3.700257883148940E-005
                    43  4.230118304375130E-003
                    44 -7.258040236101740E-013
                    45 -5.705830445851143E-004
                    46 -2.912866484861130E-012
                    47 -1.479578599837950E-012
                    48 -2.002188040896260E-004
                    49 -2.423923686589070E-006
                    50  5.489999252333135E-004
                    51 -7.848216414319010E-013
                    52  1.640165713938200E-012
                    53 -8.954785469007740E-004
                    54  5.213251975120160E-005
                    55  9.915720763829929E-014
                    56 -4.755880257986456E-006
                    57  9.297976522902232E-005
                    58  2.504779295017400E-012
                    59 -1.357756815176080E-013
                    60  3.372062227309036E-006
                    61  4.015761645557517E-004
                    62  9.120326334586679E-003
                    63 -2.090032049954180E-003
                    64 -2.954931823571740E-004
                    65  3.075177492186110E-003
                    66 -1.807992155317270E-005
                    67  1.056103464537800E-004
                    68  2.328036980593800E-012
                    69  7.316816076481860E-004
                    70 -8.215769157788090E-006
                    71 -1.161991819122570E-011
                    72 -2.052300242688110E-003
                    73  7.607861709266440E-005
                    74 -4.377098199069200E-012
                    75  2.652037388871966E-005
                    76 -1.163671156708170E-012
                    77  1.228365768949500E-012
                    78 -2.510745381708820E-006
                    79  1.976637635796160E-006
                    80 -4.106744214421237E-004
                    81 -3.344084329891540E-012
                    82  2.612271715597480E-013
                    83 -5.852730455697940E-004
                    84 -3.783539238227620E-004
                    85 -1.539850175416246E-012
                    86  3.284869776215759E-005
                    87 -5.860113836378244E-005
                    88  2.353223627411120E-012
                    89  1.876257344027910E-012
                    90  5.180277391923482E-005
                    91  1.406119166829101E-004
                    92  9.685486597241560E-003
                    93 -2.066363976741260E-003
                    94 -2.790507449631360E-004
                    95  3.013402433421460E-003
                    96  3.527883522713240E-006
                    97  7.567896110228710E-005
                    98  3.771783804575990E-012
                    99 -6.572040785878270E-004
                   100  5.219788368916700E-005
                   101 -1.296127940433950E-011
                   102  2.042405061897660E-003
                   103  6.702679657348250E-005
                   104 -3.136829776221020E-012
                   105  3.082241513329263E-005
                   106  4.206526960380650E-012
                   107 -1.151153221495310E-012
                   108 -4.927247348694740E-006
                   109 -7.524104484509110E-006
                   110 -4.093594848510322E-004
                   111 -4.780620950364050E-012
                   112 -7.132333062941819E-014
                   113 -6.152815146665860E-004
                   114  3.639533741630420E-004
                   115 -2.994584496186670E-012
                   116 -3.261683146233446E-005
                   117 -5.954246512075504E-005
                   118 -8.772941939852579E-013
                   119 -7.980883756002730E-013
                   120 -5.003264610428319E-005
                   121  1.376822973748928E-004
                   122 -1.599441244132410E-004
                   123 -6.772031016520000E-004
                   124  2.247798423647750E-004
                   125 -1.037055468234330E-004
                   126 -2.381360313562900E-006
                   127 -3.351098688993700E-004
                   128 -1.187053338661250E-011
                   129 -6.100646640378170E-005
                   130  5.348454747205580E-004
                   131  1.141618078379790E-011
                   132  3.201987590906130E-004
                   133  7.571253143402180E-004
                   134  1.783241735360130E-011
                   135  1.873692644567115E-005
                   136 -1.632992270198890E-012
                   137 -2.256280035950380E-012
                   138  3.603125676822540E-006
                   139  5.281253457052200E-005
                   140  1.362675287616259E-004
                   141  3.885768275235380E-012
                   142  1.102530844536460E-013
                   143  2.416295339668540E-004
                   144 -1.827586990815480E-004
                   145  2.420200228425707E-012
                   146  7.160715744291626E-006
                   147 -3.345954818750099E-005
                   148 -2.194298123548020E-012
                   149  1.226594974918520E-012
                   150 -4.756032601407294E-005
                   151  2.859232946125618E-005
                   152 -1.429442007015930E-004
                   153 -6.822247071906139E-004
                   154  2.293364229738670E-004
                   155 -1.333833145407280E-004
                   156  1.955048949563540E-006
                   157 -3.289519097660990E-004
                   158 -2.852606079099570E-012
                   159  4.763457570829870E-005
                   160  5.622482470155960E-004