[Molden Format]
[Atoms] AU
  N     1    7    -0.0761705400   -4.3310112700    0.0000000000        
  C     2    6     0.0345845400   -1.8329936800    0.0000000000        
  C     3    6    -2.3074634100   -0.4324493400    0.0000000000        
  C     4    6     2.3513304000   -0.3958665600    0.0000000000        
  C     5    6    -2.2846800000    2.1470382800    0.0000000000        
  C     6    6     2.2994937500    2.1819424700    0.0000000000        
  C     7    6    -0.0035991900    3.4849675500    0.0000000000        
  H     8    1    -2.5529032800   -5.7096667600    0.0000000000        
  H     9    1     1.6771990900   -5.1697587500    0.0000000000        
  H    10    1    -4.0348918300   -1.4810971700    0.0000000000        
  H    11    1     4.1135684700   -1.3983718000    0.0000000000        
  H    12    1    -4.0380021500    3.1682084900    0.0000000000        
  H    13    1     4.0380800500    3.2279140800    0.0000000000        
  H    14    1    -0.0171560400    5.5122433600    0.0000000000        
[5D]
[7F]
[GTO]
  1  0
   s    12 1.00
  0.114200D+05  0.172695D-04
  0.171200D+04  0.134411D-03
  0.389300D+03  0.694561D-03
  0.110000D+03  0.278531D-02
  0.355700D+02  0.863457D-02
  0.125400D+02  0.199805D-01
  0.464400D+01  0.262908D-01
  0.129300D+01 -0.243845D-01
  0.511800D+00 -0.924934D-01
  0.178700D+00 -0.339683D+00
  0.246240D-01  0.345111D+00
  0.112530D-01  0.752750D+00
   s    10 1.00
  0.114200D+05  0.523000D-03
  0.171200D+04  0.404500D-02
  0.389300D+03  0.207750D-01
  0.110000D+03  0.807269D-01
  0.355700D+02  0.233074D+00
  0.125400D+02  0.433501D+00
  0.464400D+01  0.347472D+00
  0.129300D+01  0.412620D-01
  0.511800D+00 -0.850799D-02
  0.178700D+00  0.238400D-02
   s    10 1.00
  0.114200D+05 -0.115000D-03
  0.171200D+04 -0.895000D-03
  0.389300D+03 -0.462400D-02
  0.110000D+03 -0.185280D-01
  0.355700D+02 -0.573390D-01
  0.125400D+02 -0.132076D+00
  0.464400D+01 -0.172510D+00
  0.129300D+01  0.151814D+00
  0.511800D+00  0.599944D+00
  0.178700D+00  0.387462D+00
   s     1 1.00
  0.129300D+01  0.100000D+01
   s     1 1.00
  0.178700D+00  0.100000D+01
   p     5 1.00
  0.266300D+02  0.146700D-01
  0.594800D+01  0.917640D-01
  0.174200D+01  0.298683D+00
  0.555000D+00  0.498487D+00
  0.172500D+00  0.337023D+00
   p     1 1.00
  0.174200D+01  0.100000D+01
   p     1 1.00
  0.555000D+00  0.100000D+01
   d     1 1.00
  0.165400D+01  0.100000D+01
   d     1 1.00
  0.469000D+00  0.100000D+01
   f     1 1.00
  0.109300D+01  0.100000D+01
  
  2  0
   s    10 1.00
  0.823600D+04  0.531000D-03
  0.123500D+04  0.410800D-02
  0.280800D+03  0.210870D-01
  0.792700D+02  0.818530D-01
  0.255900D+02  0.234817D+00
  0.899700D+01  0.434401D+00
  0.331900D+01  0.346129D+00
  0.905900D+00  0.393780D-01
  0.364300D+00 -0.898300D-02
  0.128500D+00  0.238500D-02
   s    10 1.00
  0.823600D+04 -0.113000D-03
  0.123500D+04 -0.878000D-03
  0.280800D+03 -0.454000D-02
  0.792700D+02 -0.181330D-01
  0.255900D+02 -0.557600D-01
  0.899700D+01 -0.126895D+00
  0.331900D+01 -0.170352D+00
  0.905900D+00  0.140382D+00
  0.364300D+00  0.598684D+00
  0.128500D+00  0.395389D+00
   s     1 1.00
  0.905900D+00  0.100000D+01
   s     1 1.00
  0.364300D+00  0.100000D+01
   p     5 1.00
  0.187100D+02  0.140310D-01
  0.413300D+01  0.868660D-01
  0.120000D+01  0.290216D+00
  0.382700D+00  0.501008D+00
  0.120900D+00  0.343406D+00
   p     1 1.00
  0.382700D+00  0.100000D+01
   p     1 1.00
  0.120900D+00  0.100000D+01
   d     1 1.00
  0.109700D+01  0.100000D+01
   d     1 1.00
  0.318000D+00  0.100000D+01
   f     1 1.00
  0.761000D+00  0.100000D+01
  
  3  0
   s    10 1.00
  0.823600D+04  0.531000D-03
  0.123500D+04  0.410800D-02
  0.280800D+03  0.210870D-01
  0.792700D+02  0.818530D-01
  0.255900D+02  0.234817D+00
  0.899700D+01  0.434401D+00
  0.331900D+01  0.346129D+00
  0.905900D+00  0.393780D-01
  0.364300D+00 -0.898300D-02
  0.128500D+00  0.238500D-02
   s    10 1.00
  0.823600D+04 -0.113000D-03
  0.123500D+04 -0.878000D-03
  0.280800D+03 -0.454000D-02
  0.792700D+02 -0.181330D-01
  0.255900D+02 -0.557600D-01
  0.899700D+01 -0.126895D+00
  0.331900D+01 -0.170352D+00
  0.905900D+00  0.140382D+00
  0.364300D+00  0.598684D+00
  0.128500D+00  0.395389D+00
   s     1 1.00
  0.905900D+00  0.100000D+01
   s     1 1.00
  0.364300D+00  0.100000D+01
   p     5 1.00
  0.187100D+02  0.140310D-01
  0.413300D+01  0.868660D-01
  0.120000D+01  0.290216D+00
  0.382700D+00  0.501008D+00
  0.120900D+00  0.343406D+00
   p     1 1.00
  0.382700D+00  0.100000D+01
   p     1 1.00
  0.120900D+00  0.100000D+01
   d     1 1.00
  0.109700D+01  0.100000D+01
   d     1 1.00
  0.318000D+00  0.100000D+01
   f     1 1.00
  0.761000D+00  0.100000D+01
  
  4  0
   s    10 1.00
  0.823600D+04  0.531000D-03
  0.123500D+04  0.410800D-02
  0.280800D+03  0.210870D-01
  0.792700D+02  0.818530D-01
  0.255900D+02  0.234817D+00
  0.899700D+01  0.434401D+00
  0.331900D+01  0.346129D+00
  0.905900D+00  0.393780D-01
  0.364300D+00 -0.898300D-02
  0.128500D+00  0.238500D-02
   s    10 1.00
  0.823600D+04 -0.113000D-03
  0.123500D+04 -0.878000D-03
  0.280800D+03 -0.454000D-02
  0.792700D+02 -0.181330D-01
  0.255900D+02 -0.557600D-01
  0.899700D+01 -0.126895D+00
  0.331900D+01 -0.170352D+00
  0.905900D+00  0.140382D+00
  0.364300D+00  0.598684D+00
  0.128500D+00  0.395389D+00
   s     1 1.00
  0.905900D+00  0.100000D+01
   s     1 1.00
  0.364300D+00  0.100000D+01
   p     5 1.00
  0.187100D+02  0.140310D-01
  0.413300D+01  0.868660D-01
  0.120000D+01  0.290216D+00
  0.382700D+00  0.501008D+00
  0.120900D+00  0.343406D+00
   p     1 1.00
  0.382700D+00  0.100000D+01
   p     1 1.00
  0.120900D+00  0.100000D+01
   d     1 1.00
  0.109700D+01  0.100000D+01
   d     1 1.00
  0.318000D+00  0.100000D+01
   f     1 1.00
  0.761000D+00  0.100000D+01
  
  5  0
   s    10 1.00
  0.823600D+04  0.531000D-03
  0.123500D+04  0.410800D-02
  0.280800D+03  0.210870D-01
  0.792700D+02  0.818530D-01
  0.255900D+02  0.234817D+00
  0.899700D+01  0.434401D+00
  0.331900D+01  0.346129D+00
  0.905900D+00  0.393780D-01
  0.364300D+00 -0.898300D-02
  0.128500D+00  0.238500D-02
   s    10 1.00
  0.823600D+04 -0.113000D-03
  0.123500D+04 -0.878000D-03
  0.280800D+03 -0.454000D-02
  0.792700D+02 -0.181330D-01
  0.255900D+02 -0.557600D-01
  0.899700D+01 -0.126895D+00
  0.331900D+01 -0.170352D+00
  0.905900D+00  0.140382D+00
  0.364300D+00  0.598684D+00
  0.128500D+00  0.395389D+00
   s     1 1.00
  0.905900D+00  0.100000D+01
   s     1 1.00
  0.364300D+00  0.100000D+01
   p     5 1.00
  0.187100D+02  0.140310D-01
  0.413300D+01  0.868660D-01
  0.120000D+01  0.290216D+00
  0.382700D+00  0.501008D+00
  0.120900D+00  0.343406D+00
   p     1 1.00
  0.382700D+00  0.100000D+01
   p     1 1.00
  0.120900D+00  0.100000D+01
   d     1 1.00
  0.109700D+01  0.100000D+01
   d     1 1.00
  0.318000D+00  0.100000D+01
   f     1 1.00
  0.761000D+00  0.100000D+01
  
  6  0
   s    10 1.00
  0.823600D+04  0.531000D-03
  0.123500D+04  0.410800D-02
  0.280800D+03  0.210870D-01
  0.792700D+02  0.818530D-01
  0.255900D+02  0.234817D+00
  0.899700D+01  0.434401D+00
  0.331900D+01  0.346129D+00
  0.905900D+00  0.393780D-01
  0.364300D+00 -0.898300D-02
  0.128500D+00  0.238500D-02
   s    10 1.00
  0.823600D+04 -0.113000D-03
  0.123500D+04 -0.878000D-03
  0.280800D+03 -0.454000D-02
  0.792700D+02 -0.181330D-01
  0.255900D+02 -0.557600D-01
  0.899700D+01 -0.126895D+00
  0.331900D+01 -0.170352D+00
  0.905900D+00  0.140382D+00
  0.364300D+00  0.598684D+00
  0.128500D+00  0.395389D+00
   s     1 1.00
  0.905900D+00  0.100000D+01
   s     1 1.00
  0.364300D+00  0.100000D+01
   p     5 1.00
  0.187100D+02  0.140310D-01
  0.413300D+01  0.868660D-01
  0.120000D+01  0.290216D+00
  0.382700D+00  0.501008D+00
  0.120900D+00  0.343406D+00
   p     1 1.00
  0.382700D+00  0.100000D+01
   p     1 1.00
  0.120900D+00  0.100000D+01
   d     1 1.00
  0.109700D+01  0.100000D+01
   d     1 1.00
  0.318000D+00  0.100000D+01
   f     1 1.00
  0.761000D+00  0.100000D+01
  
  7  0
   s    10 1.00
  0.823600D+04  0.531000D-03
  0.123500D+04  0.410800D-02
  0.280800D+03  0.210870D-01
  0.792700D+02  0.818530D-01
  0.255900D+02  0.234817D+00
  0.899700D+01  0.434401D+00
  0.331900D+01  0.346129D+00
  0.905900D+00  0.393780D-01
  0.364300D+00 -0.898300D-02
  0.128500D+00  0.238500D-02
   s    10 1.00
  0.823600D+04 -0.113000D-03
  0.123500D+04 -0.878000D-03
  0.280800D+03 -0.454000D-02
  0.792700D+02 -0.181330D-01
  0.255900D+02 -0.557600D-01
  0.899700D+01 -0.126895D+00
  0.331900D+01 -0.170352D+00
  0.905900D+00  0.140382D+00
  0.364300D+00  0.598684D+00
  0.128500D+00  0.395389D+00
   s     1 1.00
  0.905900D+00  0.100000D+01
   s     1 1.00
  0.364300D+00  0.100000D+01
   p     5 1.00
  0.187100D+02  0.140310D-01
  0.413300D+01  0.868660D-01
  0.120000D+01  0.290216D+00
  0.382700D+00  0.501008D+00
  0.120900D+00  0.343406D+00
   p     1 1.00
  0.382700D+00  0.100000D+01
   p     1 1.00
  0.120900D+00  0.100000D+01
   d     1 1.00
  0.109700D+01  0.100000D+01
   d     1 1.00
  0.318000D+00  0.100000D+01
   f     1 1.00
  0.761000D+00  0.100000D+01
  
  8  0
   s     4 1.00
  0.130100D+02  0.196850D-01
  0.196200D+01  0.137977D+00
  0.444600D+00  0.478148D+00
  0.122000D+00  0.501240D+00
   s     1 1.00
  0.122000D+00  0.100000D+01
   p     1 1.00
  0.727000D+00  0.100000D+01
  
  9  0
   s     4 1.00
  0.130100D+02  0.196850D-01
  0.196200D+01  0.137977D+00
  0.444600D+00  0.478148D+00
  0.122000D+00  0.501240D+00
   s     1 1.00
  0.122000D+00  0.100000D+01
   p     1 1.00
  0.727000D+00  0.100000D+01
  
 10  0
   s     4 1.00
  0.130100D+02  0.196850D-01
  0.196200D+01  0.137977D+00
  0.444600D+00  0.478148D+00
  0.122000D+00  0.501240D+00
   s     1 1.00
  0.122000D+00  0.100000D+01
   p     1 1.00
  0.727000D+00  0.100000D+01
  
 11  0
   s     4 1.00
  0.130100D+02  0.196850D-01
  0.196200D+01  0.137977D+00
  0.444600D+00  0.478148D+00
  0.122000D+00  0.501240D+00
   s     1 1.00
  0.122000D+00  0.100000D+01
   p     1 1.00
  0.727000D+00  0.100000D+01
  
 12  0
   s     4 1.00
  0.130100D+02  0.196850D-01
  0.196200D+01  0.137977D+00
  0.444600D+00  0.478148D+00
  0.122000D+00  0.501240D+00
   s     1 1.00
  0.122000D+00  0.100000D+01
   p     1 1.00
  0.727000D+00  0.100000D+01
  
 13  0
   s     4 1.00
  0.130100D+02  0.196850D-01
  0.196200D+01  0.137977D+00
  0.444600D+00  0.478148D+00
  0.122000D+00  0.501240D+00
   s     1 1.00
  0.122000D+00  0.100000D+01
   p     1 1.00
  0.727000D+00  0.100000D+01
  
 14  0
   s     4 1.00
  0.130100D+02  0.196850D-01
  0.196200D+01  0.137977D+00
  0.444600D+00  0.478148D+00
  0.122000D+00  0.501240D+00
   s     1 1.00
  0.122000D+00  0.100000D+01
   p     1 1.00
  0.727000D+00  0.100000D+01
  
[MO]
 Sym= __1_A'_
 Ene=  0.000000000000000E+000
 Spin= Alpha
 Occup=    2.00000000000000     
                     1  6.025777468543521E-005
                     2  0.998391430059598     
                     3  3.252820015813954E-003
                     4  1.721292706358701E-003
                     5  4.514730958250453E-003
                     6  3.407767342439099E-003
                     7  6.404840167770236E-003
                     8  0.000000000000000E+000
                     9 -5.877736590095786E-004
                    10 -5.437485787802643E-004
                    11  0.000000000000000E+000
                    12 -2.212678626916716E-003
                    13 -1.411512260986293E-003
                    14  0.000000000000000E+000
                    15 -1.456924192633951E-004
                    16  0.000000000000000E+000
                    17  0.000000000000000E+000
                    18 -1.862830346251481E-004
                    19 -5.175071460740223E-005
                    20  1.846895390935130E-004
                    21  0.000000000000000E+000
                    22  0.000000000000000E+000
                    23 -4.063015706187922E-004
                    24  4.289848444280517E-004
                    25  0.000000000000000E+000
                    26 -1.662493960379349E-005
                    27 -6.925420502115004E-005
                    28  0.000000000000000E+000
                    29  0.000000000000000E+000
                    30  2.919530420063834E-005
                    31 -1.468571572747003E-004
                    32 -3.680202311269108E-004
                    33  1.681363437691145E-003
                    34  3.056317584721085E-004
                    35 -4.566807561628042E-004
                    36 -2.850511601495414E-004
                    37 -5.365290223897939E-003
                    38  0.000000000000000E+000
                    39  3.928642314476620E-004
                    40  5.388894224933992E-004
                    41  0.000000000000000E+000
                    42 -1.903600626451971E-003
                    43  5.408597225555332E-003
                    44  0.000000000000000E+000
                    45 -1.498452602670456E-005
                    46  0.000000000000000E+000
                    47  0.000000000000000E+000
                    48 -2.412103126860220E-004
                    49 -1.596220732069414E-005
                    50 -2.845922512422600E-004
                    51  0.000000000000000E+000
                    52  0.000000000000000E+000
                    53  1.063856321206978E-004
                    54  6.498429274824661E-004
                    55  0.000000000000000E+000
                    56 -1.347765201368884E-005
                    57 -5.241210050838125E-005
                    58  0.000000000000000E+000
                    59  0.000000000000000E+000
                    60  4.889259582184492E-005
                    61 -1.311663070637200E-004
                    62 -4.360203316128093E-004
                    63 -2.113034713135248E-003
                    64 -7.596166338666140E-005
                    65  1.833581010966109E-003
                    66 -7.028437284004565E-004
                    67  5.329051655630505E-004
                    68  0.000000000000000E+000
                    69  3.245121047915309E-004
                    70  8.485980874252827E-004
                    71  0.000000000000000E+000
                    72 -1.847036843161253E-003
                    73  8.264597078553336E-004
                    74  0.000000000000000E+000
                    75 -3.665824660784105E-005
                    76  0.000000000000000E+000
                    77  0.000000000000000E+000
                    78 -7.551933779301918E-005
                    79 -2.303730908000461E-005
                    80 -1.176465620433095E-004
                    81  0.000000000000000E+000
                    82  0.000000000000000E+000
                    83 -3.418624985863286E-006
                    84  1.102848032675622E-004
                    85  0.000000000000000E+000
                    86  1.277494781996998E-005
                    87 -5.022228154263160E-005
                    88  0.000000000000000E+000
                    89  0.000000000000000E+000
                    90 -3.071355661860498E-005
                    91 -1.435752634043355E-004
                    92 -1.809390833531004E-004
                    93 -1.300305522479240E-003
                    94  1.980314432592162E-004
                    95 -1.111443789440355E-004
                    96  6.422997222804963E-004
                    97  7.800753081224353E-004
                    98  0.000000000000000E+000
                    99  3.563166937103066E-004
                   100  3.869157784819373E-004
                   101  0.000000000000000E+000
                   102  4.516892037682638E-004
                   103 -1.505552647284833E-003
                   104  0.000000000000000E+000
                   105 -7.221746939714217E-007
                   106  0.000000000000000E+000
                   107  0.000000000000000E+000
                   108 -8.611550633221837E-005
                   109 -1.620452254377633E-005
                   110  8.902617913996402E-005
                   111  0.000000000000000E+000
                   112  0.000000000000000E+000
                   113 -1.112046285877342E-004
                   114 -6.226235932084563E-005
                   115  0.000000000000000E+000
                   116 -2.683816426524107E-005
                   117 -2.802406290602462E-005
                   118  0.000000000000000E+000
                   119  0.000000000000000E+000
                   120 -1.639339057650600E-005
                   121 -3.568310011747337E-005
                   122 -2.503782708001073E-004
                   123 -4.708829476424281E-004
                   124  1.717966040536915E-004
                   125  2.740117833558080E-004
                   126 -1.202518421912442E-005
                   127 -5.867681345389946E-004
                   128  0.000000000000000E+000
                   129  1.791511609326297E-004
                   130  6.387174596326311E-004
                   131  0.000000000000000E+000
                   132  5.361615183280706E-004
                   133  1.942672421152696E-003
                   134  0.000000000000000E+000
                   135  1.540376428880479E-005
                   136  0.000000000000000E+000
                   137  0.000000000000000E+000
                   138  3.870453126310010E-005
                   139  1.499274195873989E-006
                   140  1.726167859437512E-004
                   141  0.000000000000000E+000
                   142  0.000000000000000E+000
                   143  3.635380759850732E-004
                   144  2.273756544492056E-004
                   145  0.000000000000000E+000
                   146 -9.549170252356991E-006
                   147 -5.726097892726355E-005
                   148  0.000000000000000E+000
                   149  0.000000000000000E+000
                   150 -1.074691553806977E-005
                   151 -4.238948370218266E-005
                   152 -1.667804394756725E-004
                   153 -1.862272229565673E-004
                   154  6.055248407054233E-005
                   155  2.832319957933934E-004
                   156 -2.875205534110643E-005
                   157 -5.442738548981042E-004
                   158  0.000000000000000E+000
                   159  3.779928735632868E-005
                   160  6.888439097188113E-005
                   161  0.000000000000000E+000
                   162  7.690002177419269E-004
                   163 -2.250209840379908E-004
                   164  0.000000000000000E+000
                   165 -8.091460099803182E-007
                   166  0.000000000000000E+000
                   167  0.000000000000000E+000
                   168 -4.578822141096100E-006
                   169  4.630730064449400E-007
                   170  9.317475592474637E-005
                   171  0.000000000000000E+000
                   172  0.000000000000000E+000
                   173  2.977562478394718E-005
                   174 -3.632591213666203E-005
                   175  0.000000000000000E+000
                   176  7.995639692091820E-007
                   177 -1.179498193105081E-005
                   178  0.000000000000000E+000
                   179  0.000000000000000E+000
                   180 -1.123952484169225E-005
                   181 -2.029398708195521E-005
                   182 -1.658110112593100E-004
                   183 -4.789500808650562E-004
                   184  4.104042385979509E-005
                   185  2.404494665939260E-004
                   186 -4.308302102912888E-005
                   187 -4.783095543087473E-005
                   188  0.000000000000000E+000
                   189  2.337857848661705E-004
                   190  6.986723319378184E-005
                   191  0.000000000000000E+000
                   192  1.258655847563022E-003
                   193 -1.670580954059061E-004
                   194  0.000000000000000E+000
                   195  3.363256308641798E-007
                   196  0.000000000000000E+000
                   197  0.000000000000000E+000
                   198 -1.273062884425793E-005
                   199  2.536532780333864E-006
                   200 -2.467840811800314E-006
                   201  0.000000000000000E+000
                   202  0.000000000000000E+000
                   203 -8.055669314837100E-005
                   204 -1.799660544907569E-004
                   205  0.000000000000000E+000
                   206 -8.496073453173602E-006
                   207 -4.794749134855410E-006
                   208  0.000000000000000E+000
                   209  0.000000000000000E+000
                   210  5.352983398485680E-006
                   211 -8.551607060079246E-006
                   212  1.616148006333222E-004
                   213 -4.842765810151504E-005
                   214  1.882421482059548E-004
                   215  1.689480934746088E-004
                   216  0.000000000000000E+000
                   217  1.855878522347697E-003
                   218 -1.709299616115704E-003
                   219 -4.358016080671364E-004
                   220  2.361071231296351E-004
                   221  0.000000000000000E+000
                   222 -4.473012248981206E-004
                   223 -6.915219506584975E-004
                   224 -8.808781207675081E-006
                   225 -5.651875939599179E-005
                   226  0.000000000000000E+000
                   227 -3.436928063458794E-004
                   228 -4.083777567029376E-004
                   229 -1.302049545301047E-005
                   230 -2.791964065529768E-005
                   231  0.000000000000000E+000
                   232 -1.160483444133745E-004
                   233 -4.497525808329002E-004
                   234  2.193306562643886E-007
                   235  2.284962362247211E-006
                   236  0.000000000000000E+000
                   237 -1.708960032946816E-004
                   238 -4.348576553369727E-004
                   239  3.387567458163464E-006
                   240 -6.957060980699799E-007
                   241  0.000000000000000E+000
                   242  1.074536773187786E-005
                   243 -1.588972589043503E-005
                   244  3.554966362766858E-007
                   245  2.518047303132967E-005
                   246  0.000000000000000E+000
 Sym= __2_A'_
 Ene=  0.000000000000000E+000
 Spin= Alpha
 Occup=    2.00000000000000     
                     1 -4.986739426317493E-005
                     2 -3.236740817846662E-004
                     3  2.569397428826594E-003
                     4  1.485525148386442E-004
                     5  1.430097050072796E-003
                     6 -3.133084970690395E-004
                     7  3.144766258299376E-003
                     8  0.000000000000000E+000
                     9 -1.989596734685087E-005
                    10 -1.017572667935518E-004
                    11  0.000000000000000E+000
                    12  1.165953027416013E-005
                    13 -4.803583830492535E-004
                    14  0.000000000000000E+000
                    15  4.050934044766658E-005
                    16  0.000000000000000E+000
                    17  0.000000000000000E+000
                    18 -5.197033085987048E-005
                    19  1.645353370901587E-005
                    20 -1.341279231216598E-004
                    21  0.000000000000000E+000
                    22  0.000000000000000E+000
                    23  2.080782471281072E-004
                    24 -1.201895525567958E-004
                    25  0.000000000000000E+000
                    26 -1.608536400401923E-005
                    27  9.454134376390180E-005
                    28  0.000000000000000E+000
                    29  0.000000000000000E+000
                    30 -5.699381849543828E-005
                    31  1.308810073140935E-004
                    32   1.00100107772197     
                    33  9.346084142606072E-003
                    34  2.705873595811077E-003
                    35 -7.979953205449343E-003
                    36 -1.572228549042108E-005
                    37 -3.495062529374862E-003
                    38  0.000000000000000E+000
                    39 -1.937042366445808E-004
                    40  1.997145833884033E-004
                    41  0.000000000000000E+000
                    42 -1.062746498901037E-004
                    43  4.282372700304067E-003
                    44  0.000000000000000E+000
                    45 -5.680818776670922E-004
                    46  0.000000000000000E+000
                    47  0.000000000000000E+000
                    48 -2.483922286668870E-004
                    49  4.623447110115539E-005
                    50  5.123138247328532E-004
                    51  0.000000000000000E+000
                    52  0.000000000000000E+000
                    53 -7.241090238568916E-004
                    54 -3.503811482937099E-004
                    55  0.000000000000000E+000
                    56  1.266410886537389E-005
                    57  1.075363391801558E-004
                    58  0.000000000000000E+000
                    59  0.000000000000000E+000
                    60 -3.579178018441419E-005
                    61  4.086623700415279E-004
                    62  8.381684193793567E-003
                    63 -2.085308072872328E-003
                    64 -2.369324793721083E-004
                    65  2.724104657419175E-003
                    66 -4.920324922677107E-007
                    67  5.771118617613685E-005
                    68  0.000000000000000E+000
                    69  5.582924589824147E-004
                    70  1.205371931212244E-004
                    71  0.000000000000000E+000
                    72 -2.159202738735165E-003
                    73  2.596711280936882E-004
                    74  0.000000000000000E+000
                    75  3.318365686716811E-005
                    76  0.000000000000000E+000
                    77  0.000000000000000E+000
                    78 -4.724557714491680E-006
                    79  3.756553063277775E-007
                    80 -4.041114402177199E-004
                    81  0.000000000000000E+000
                    82  0.000000000000000E+000
                    83 -6.151983055518312E-004
                    84 -2.562084437351471E-004
                    85  0.000000000000000E+000
                    86  2.676800175180408E-005
                    87 -5.717506481219188E-005
                    88  0.000000000000000E+000
                    89  0.000000000000000E+000
                    90  4.662749903655921E-005
                    91  1.532567282066186E-004
                    92  9.835040048353711E-003
                    93 -2.101020917864394E-003
                    94 -3.153440666762782E-004
                    95  3.207110312457081E-003
                    96  6.201785404818302E-005
                    97  2.947125492289740E-005
                    98  0.000000000000000E+000
                    99 -9.351421850612995E-004
                   100  2.165539858381307E-005
                   101  0.000000000000000E+000
                   102  1.852034038404118E-003
                   103  3.143689762979089E-005
                   104  0.000000000000000E+000
                   105  2.113193304386873E-005
                   106  0.000000000000000E+000
                   107  0.000000000000000E+000
                   108 -9.006998256129846E-007
                   109  1.245890684335217E-005
                   110 -4.221244682286404E-004
                   111  0.000000000000000E+000
                   112  0.000000000000000E+000
                   113 -3.972749128718262E-004
                   114  2.787225639921572E-004
                   115  0.000000000000000E+000
                   116 -2.539725534278826E-005
                   117 -6.856151576272871E-005
                   118  0.000000000000000E+000
                   119  0.000000000000000E+000
                   120 -1.260398946257268E-005
                   121  1.369405734000874E-004
                   122 -2.053681655142037E-004
                   123 -7.166616534869300E-004
                   124  2.230683258968132E-004
                   125 -6.837624426036643E-005
                   126  7.335403268370652E-006
                   127 -3.309370981036030E-004
                   128  0.000000000000000E+000
                   129 -8.944689220245128E-005
                   130  5.699585600645739E-004
                   131  0.000000000000000E+000
                   132  3.634952217831720E-004
                   133  9.169722313990327E-004
                   134  0.000000000000000E+000
                   135  1.601520121992051E-005
                   136  0.000000000000000E+000
                   137  0.000000000000000E+000
                   138  2.493081070423886E-006
                   139  4.455367505157256E-005
                   140  1.338192153448788E-004
                   141  0.000000000000000E+000
                   142  0.000000000000000E+000
                   143  2.411082671473676E-004
                   144 -1.086651876797420E-004
                   145  0.000000000000000E+000
                   146  1.040786965952906E-005
                   147 -3.737264093447285E-005
                   148  0.000000000000000E+000
                   149  0.000000000000000E+000
                   150 -4.860107910191469E-005
                   151  3.779844341501572E-005
                   152 -1.393022462588229E-004
                   153 -7.018385056252775E-004
                   154  2.313178756612602E-004
                   155 -2.999935191217339E-005
                   156 -2.721091762256725E-005
                   157 -3.309687188212197E-004
                   158  0.000000000000000E+000
                   159  1.300974941484343E-004
                   160  5.378652578083648E-004