[Molden Format]
[Atoms] AU
  N     1    7    -0.0038794800   -0.0013650500   -4.3283267800        
  C     2    6    -0.0022367700   -0.0024411200   -1.7674001400        
  C     3    6     0.0732913100   -2.3361033400   -0.4136208000        
  C     4    6    -0.0760267400    2.3300825400   -0.4115643300        
  C     5    6     0.1182514400   -2.2997348800    2.1707960800        
  C     6    6    -0.1176711800    2.2915421800    2.1728766200        
  C     7    6     0.0011263900   -0.0046441300    3.4754986700        
  H     8    1    -1.0544268300   -1.2939339500   -5.3405922200        
  H     9    1     1.0453691000    1.2920546500   -5.3408525100        
  H    10    1     0.1628931200   -4.0667731900   -1.4513445600        
  H    11    1    -0.1669588800    4.0616238100   -1.4477175100        
  H    12    1     0.2425786200   -4.0374737900    3.2033359400        
  H    13    1    -0.2406726000    4.0284126900    3.2070351300        
  H    14    1     0.0024270600   -0.0054961100    5.5031025800        
[5D]
[7F]
[GTO]
  1  0
   s    12 1.00
  0.114200D+05  0.172695D-04
  0.171200D+04  0.134411D-03
  0.389300D+03  0.694561D-03
  0.110000D+03  0.278531D-02
  0.355700D+02  0.863457D-02
  0.125400D+02  0.199805D-01
  0.464400D+01  0.262908D-01
  0.129300D+01 -0.243845D-01
  0.511800D+00 -0.924934D-01
  0.178700D+00 -0.339683D+00
  0.246240D-01  0.345111D+00
  0.112530D-01  0.752750D+00
   s    10 1.00
  0.114200D+05  0.523000D-03
  0.171200D+04  0.404500D-02
  0.389300D+03  0.207750D-01
  0.110000D+03  0.807269D-01
  0.355700D+02  0.233074D+00
  0.125400D+02  0.433501D+00
  0.464400D+01  0.347472D+00
  0.129300D+01  0.412620D-01
  0.511800D+00 -0.850799D-02
  0.178700D+00  0.238400D-02
   s    10 1.00
  0.114200D+05 -0.115000D-03
  0.171200D+04 -0.895000D-03
  0.389300D+03 -0.462400D-02
  0.110000D+03 -0.185280D-01
  0.355700D+02 -0.573390D-01
  0.125400D+02 -0.132076D+00
  0.464400D+01 -0.172510D+00
  0.129300D+01  0.151814D+00
  0.511800D+00  0.599944D+00
  0.178700D+00  0.387462D+00
   s     1 1.00
  0.129300D+01  0.100000D+01
   s     1 1.00
  0.178700D+00  0.100000D+01
   p     5 1.00
  0.266300D+02  0.146700D-01
  0.594800D+01  0.917640D-01
  0.174200D+01  0.298683D+00
  0.555000D+00  0.498487D+00
  0.172500D+00  0.337023D+00
   p     1 1.00
  0.174200D+01  0.100000D+01
   p     1 1.00
  0.555000D+00  0.100000D+01
   d     1 1.00
  0.165400D+01  0.100000D+01
   d     1 1.00
  0.469000D+00  0.100000D+01
   f     1 1.00
  0.109300D+01  0.100000D+01
  
  2  0
   s    10 1.00
  0.823600D+04  0.531000D-03
  0.123500D+04  0.410800D-02
  0.280800D+03  0.210870D-01
  0.792700D+02  0.818530D-01
  0.255900D+02  0.234817D+00
  0.899700D+01  0.434401D+00
  0.331900D+01  0.346129D+00
  0.905900D+00  0.393780D-01
  0.364300D+00 -0.898300D-02
  0.128500D+00  0.238500D-02
   s    10 1.00
  0.823600D+04 -0.113000D-03
  0.123500D+04 -0.878000D-03
  0.280800D+03 -0.454000D-02
  0.792700D+02 -0.181330D-01
  0.255900D+02 -0.557600D-01
  0.899700D+01 -0.126895D+00
  0.331900D+01 -0.170352D+00
  0.905900D+00  0.140382D+00
  0.364300D+00  0.598684D+00
  0.128500D+00  0.395389D+00
   s     1 1.00
  0.905900D+00  0.100000D+01
   s     1 1.00
  0.364300D+00  0.100000D+01
   p     5 1.00
  0.187100D+02  0.140310D-01
  0.413300D+01  0.868660D-01
  0.120000D+01  0.290216D+00
  0.382700D+00  0.501008D+00
  0.120900D+00  0.343406D+00
   p     1 1.00
  0.382700D+00  0.100000D+01
   p     1 1.00
  0.120900D+00  0.100000D+01
   d     1 1.00
  0.109700D+01  0.100000D+01
   d     1 1.00
  0.318000D+00  0.100000D+01
   f     1 1.00
  0.761000D+00  0.100000D+01
  
  3  0
   s    10 1.00
  0.823600D+04  0.531000D-03
  0.123500D+04  0.410800D-02
  0.280800D+03  0.210870D-01
  0.792700D+02  0.818530D-01
  0.255900D+02  0.234817D+00
  0.899700D+01  0.434401D+00
  0.331900D+01  0.346129D+00
  0.905900D+00  0.393780D-01
  0.364300D+00 -0.898300D-02
  0.128500D+00  0.238500D-02
   s    10 1.00
  0.823600D+04 -0.113000D-03
  0.123500D+04 -0.878000D-03
  0.280800D+03 -0.454000D-02
  0.792700D+02 -0.181330D-01
  0.255900D+02 -0.557600D-01
  0.899700D+01 -0.126895D+00
  0.331900D+01 -0.170352D+00
  0.905900D+00  0.140382D+00
  0.364300D+00  0.598684D+00
  0.128500D+00  0.395389D+00
   s     1 1.00
  0.905900D+00  0.100000D+01
   s     1 1.00
  0.364300D+00  0.100000D+01
   p     5 1.00
  0.187100D+02  0.140310D-01
  0.413300D+01  0.868660D-01
  0.120000D+01  0.290216D+00
  0.382700D+00  0.501008D+00
  0.120900D+00  0.343406D+00
   p     1 1.00
  0.382700D+00  0.100000D+01
   p     1 1.00
  0.120900D+00  0.100000D+01
   d     1 1.00
  0.109700D+01  0.100000D+01
   d     1 1.00
  0.318000D+00  0.100000D+01
   f     1 1.00
  0.761000D+00  0.100000D+01
  
  4  0
   s    10 1.00
  0.823600D+04  0.531000D-03
  0.123500D+04  0.410800D-02
  0.280800D+03  0.210870D-01
  0.792700D+02  0.818530D-01
  0.255900D+02  0.234817D+00
  0.899700D+01  0.434401D+00
  0.331900D+01  0.346129D+00
  0.905900D+00  0.393780D-01
  0.364300D+00 -0.898300D-02
  0.128500D+00  0.238500D-02
   s    10 1.00
  0.823600D+04 -0.113000D-03
  0.123500D+04 -0.878000D-03
  0.280800D+03 -0.454000D-02
  0.792700D+02 -0.181330D-01
  0.255900D+02 -0.557600D-01
  0.899700D+01 -0.126895D+00
  0.331900D+01 -0.170352D+00
  0.905900D+00  0.140382D+00
  0.364300D+00  0.598684D+00
  0.128500D+00  0.395389D+00
   s     1 1.00
  0.905900D+00  0.100000D+01
   s     1 1.00
  0.364300D+00  0.100000D+01
   p     5 1.00
  0.187100D+02  0.140310D-01
  0.413300D+01  0.868660D-01
  0.120000D+01  0.290216D+00
  0.382700D+00  0.501008D+00
  0.120900D+00  0.343406D+00
   p     1 1.00
  0.382700D+00  0.100000D+01
   p     1 1.00
  0.120900D+00  0.100000D+01
   d     1 1.00
  0.109700D+01  0.100000D+01
   d     1 1.00
  0.318000D+00  0.100000D+01
   f     1 1.00
  0.761000D+00  0.100000D+01
  
  5  0
   s    10 1.00
  0.823600D+04  0.531000D-03
  0.123500D+04  0.410800D-02
  0.280800D+03  0.210870D-01
  0.792700D+02  0.818530D-01
  0.255900D+02  0.234817D+00
  0.899700D+01  0.434401D+00
  0.331900D+01  0.346129D+00
  0.905900D+00  0.393780D-01
  0.364300D+00 -0.898300D-02
  0.128500D+00  0.238500D-02
   s    10 1.00
  0.823600D+04 -0.113000D-03
  0.123500D+04 -0.878000D-03
  0.280800D+03 -0.454000D-02
  0.792700D+02 -0.181330D-01
  0.255900D+02 -0.557600D-01
  0.899700D+01 -0.126895D+00
  0.331900D+01 -0.170352D+00
  0.905900D+00  0.140382D+00
  0.364300D+00  0.598684D+00
  0.128500D+00  0.395389D+00
   s     1 1.00
  0.905900D+00  0.100000D+01
   s     1 1.00
  0.364300D+00  0.100000D+01
   p     5 1.00
  0.187100D+02  0.140310D-01
  0.413300D+01  0.868660D-01
  0.120000D+01  0.290216D+00
  0.382700D+00  0.501008D+00
  0.120900D+00  0.343406D+00
   p     1 1.00
  0.382700D+00  0.100000D+01
   p     1 1.00
  0.120900D+00  0.100000D+01
   d     1 1.00
  0.109700D+01  0.100000D+01
   d     1 1.00
  0.318000D+00  0.100000D+01
   f     1 1.00
  0.761000D+00  0.100000D+01
  
  6  0
   s    10 1.00
  0.823600D+04  0.531000D-03
  0.123500D+04  0.410800D-02
  0.280800D+03  0.210870D-01
  0.792700D+02  0.818530D-01
  0.255900D+02  0.234817D+00
  0.899700D+01  0.434401D+00
  0.331900D+01  0.346129D+00
  0.905900D+00  0.393780D-01
  0.364300D+00 -0.898300D-02
  0.128500D+00  0.238500D-02
   s    10 1.00
  0.823600D+04 -0.113000D-03
  0.123500D+04 -0.878000D-03
  0.280800D+03 -0.454000D-02
  0.792700D+02 -0.181330D-01
  0.255900D+02 -0.557600D-01
  0.899700D+01 -0.126895D+00
  0.331900D+01 -0.170352D+00
  0.905900D+00  0.140382D+00
  0.364300D+00  0.598684D+00
  0.128500D+00  0.395389D+00
   s     1 1.00
  0.905900D+00  0.100000D+01
   s     1 1.00
  0.364300D+00  0.100000D+01
   p     5 1.00
  0.187100D+02  0.140310D-01
  0.413300D+01  0.868660D-01
  0.120000D+01  0.290216D+00
  0.382700D+00  0.501008D+00
  0.120900D+00  0.343406D+00
   p     1 1.00
  0.382700D+00  0.100000D+01
   p     1 1.00
  0.120900D+00  0.100000D+01
   d     1 1.00
  0.109700D+01  0.100000D+01
   d     1 1.00
  0.318000D+00  0.100000D+01
   f     1 1.00
  0.761000D+00  0.100000D+01
  
  7  0
   s    10 1.00
  0.823600D+04  0.531000D-03
  0.123500D+04  0.410800D-02
  0.280800D+03  0.210870D-01
  0.792700D+02  0.818530D-01
  0.255900D+02  0.234817D+00
  0.899700D+01  0.434401D+00
  0.331900D+01  0.346129D+00
  0.905900D+00  0.393780D-01
  0.364300D+00 -0.898300D-02
  0.128500D+00  0.238500D-02
   s    10 1.00
  0.823600D+04 -0.113000D-03
  0.123500D+04 -0.878000D-03
  0.280800D+03 -0.454000D-02
  0.792700D+02 -0.181330D-01
  0.255900D+02 -0.557600D-01
  0.899700D+01 -0.126895D+00
  0.331900D+01 -0.170352D+00
  0.905900D+00  0.140382D+00
  0.364300D+00  0.598684D+00
  0.128500D+00  0.395389D+00
   s     1 1.00
  0.905900D+00  0.100000D+01
   s     1 1.00
  0.364300D+00  0.100000D+01
   p     5 1.00
  0.187100D+02  0.140310D-01
  0.413300D+01  0.868660D-01
  0.120000D+01  0.290216D+00
  0.382700D+00  0.501008D+00
  0.120900D+00  0.343406D+00
   p     1 1.00
  0.382700D+00  0.100000D+01
   p     1 1.00
  0.120900D+00  0.100000D+01
   d     1 1.00
  0.109700D+01  0.100000D+01
   d     1 1.00
  0.318000D+00  0.100000D+01
   f     1 1.00
  0.761000D+00  0.100000D+01
  
  8  0
   s     4 1.00
  0.130100D+02  0.196850D-01
  0.196200D+01  0.137977D+00
  0.444600D+00  0.478148D+00
  0.122000D+00  0.501240D+00
   s     1 1.00
  0.122000D+00  0.100000D+01
   p     1 1.00
  0.727000D+00  0.100000D+01
  
  9  0
   s     4 1.00
  0.130100D+02  0.196850D-01
  0.196200D+01  0.137977D+00
  0.444600D+00  0.478148D+00
  0.122000D+00  0.501240D+00
   s     1 1.00
  0.122000D+00  0.100000D+01
   p     1 1.00
  0.727000D+00  0.100000D+01
  
 10  0
   s     4 1.00
  0.130100D+02  0.196850D-01
  0.196200D+01  0.137977D+00
  0.444600D+00  0.478148D+00
  0.122000D+00  0.501240D+00
   s     1 1.00
  0.122000D+00  0.100000D+01
   p     1 1.00
  0.727000D+00  0.100000D+01
  
 11  0
   s     4 1.00
  0.130100D+02  0.196850D-01
  0.196200D+01  0.137977D+00
  0.444600D+00  0.478148D+00
  0.122000D+00  0.501240D+00
   s     1 1.00
  0.122000D+00  0.100000D+01
   p     1 1.00
  0.727000D+00  0.100000D+01
  
 12  0
   s     4 1.00
  0.130100D+02  0.196850D-01
  0.196200D+01  0.137977D+00
  0.444600D+00  0.478148D+00
  0.122000D+00  0.501240D+00
   s     1 1.00
  0.122000D+00  0.100000D+01
   p     1 1.00
  0.727000D+00  0.100000D+01
  
 13  0
   s     4 1.00
  0.130100D+02  0.196850D-01
  0.196200D+01  0.137977D+00
  0.444600D+00  0.478148D+00
  0.122000D+00  0.501240D+00
   s     1 1.00
  0.122000D+00  0.100000D+01
   p     1 1.00
  0.727000D+00  0.100000D+01
  
 14  0
   s     4 1.00
  0.130100D+02  0.196850D-01
  0.196200D+01  0.137977D+00
  0.444600D+00  0.478148D+00
  0.122000D+00  0.501240D+00
   s     1 1.00
  0.122000D+00  0.100000D+01
   p     1 1.00
  0.727000D+00  0.100000D+01
  
[MO]
 Sym= __1_A__
 Ene=   1.00000000000000     
 Spin= Alpha
 Occup=    1.00000000000000     
                     1  4.749807666543095E-005
                     2  0.997969288782035     
                     3  9.551760827380905E-003
                     4  2.099369665699076E-003
                     5  1.575965466614162E-003
                     6  2.762301096464728E-006
                     7 -1.813853272837463E-006
                     8  4.293564009093738E-003
                     9 -1.274458329897890E-007
                    10  9.051628086392162E-008
                    11 -1.924692068014613E-004
                    12 -2.363305838368232E-007
                    13  1.238795121892323E-007
                    14 -3.646385368778301E-004
                    15  2.178119532088133E-004
                    16  3.037212468348431E-007
                    17 -1.961110260278921E-007
                    18 -3.940353269441738E-005
                    19  8.501585232897678E-005
                    20  1.137484258518491E-004
                    21 -1.772775657160279E-007
                    22  1.429374795848663E-007
                    23  1.472020269078980E-004
                    24 -4.861500733102843E-004
                    25 -1.818602309283680E-004
                    26  2.025558672294794E-007
                    27 -1.582376054968878E-007
                    28  4.401823373191220E-005
                    29 -5.752526759615124E-005
                    30 -4.291399507255909E-009
                    31 -6.866972340772223E-008
                    32 -2.681610028941968E-004
                    33  2.805821135982680E-003
                    34  1.375989187691226E-004
                    35 -4.300096987077421E-004
                    36 -4.370331149791268E-006
                    37  2.877811522105333E-006
                    38 -6.805828565651569E-003
                    39  8.075715020591155E-008
                    40 -9.941546377650477E-008
                    41  1.144370633468070E-004
                    42  2.711942508861493E-006
                    43 -1.737710753740844E-006
                    44  4.238953725565675E-003
                    45  3.536499082291292E-004
                    46  3.136842552237920E-007
                    47 -2.874828816844081E-007
                    48  1.149059896850193E-004
                    49 -1.353771986239369E-005
                    50  3.584705205616418E-004
                    51  5.592749574161976E-007
                    52 -3.994808449364262E-007
                    53 -1.758937513493139E-004
                    54  1.147934459815541E-004
                    55 -8.799957081878452E-005
                    56  6.482555418810690E-008
                    57 -1.100748607431187E-007
                    58  5.878854413731844E-005
                    59 -2.201406877243908E-005
                    60 -3.502785117830066E-008
                    61 -5.131286198892169E-008
                    62 -2.050278736285645E-004
                    63 -1.666086861058422E-003
                    64  2.425050390794756E-005
                    65  7.081944651875052E-004
                    66 -1.761981201783624E-005
                    67 -8.515810125696262E-004
                    68  1.048694930851165E-003
                    69  5.687689520894301E-005
                    70  3.927876115149446E-005
                    71  3.895331450213270E-004
                    72  4.123052856778958E-005
                    73 -6.718073514312354E-004
                    74 -2.185174031898789E-004
                    75  8.899139633306804E-005
                    76  2.829014558488229E-006
                    77 -1.153781312354184E-005
                    78  3.442581502652074E-005
                    79 -9.806552116036195E-008
                    80  3.090434202715503E-005
                    81 -3.228222492602104E-005
                    82  9.502291728600511E-005
                    83 -1.770920751766014E-007
                    84  3.442294567914005E-005
                    85 -8.449547710927641E-005
                    86  5.447879492203593E-006
                    87 -1.527295206321274E-005
                    88  2.148331783684550E-005
                    89 -7.240308590127805E-006
                    90  2.235806433078991E-006
                    91  1.857238398007922E-005
                    92 -2.049918362712103E-004
                    93 -1.665942350224897E-003
                    94  2.441351812163326E-005
                    95  7.076647973509079E-004
                    96  1.896325337046578E-005
                    97  8.507184727769811E-004
                    98  1.049495125007694E-003
                    99 -5.636474759198735E-005
                   100 -3.974377671215378E-005
                   101  3.889565006828953E-004
                   102 -4.147950590859486E-005
                   103  6.714246697828931E-004
                   104 -2.177386531156533E-004
                   105  8.898231280069901E-005
                   106 -2.675045991506195E-006
                   107  1.139620691015290E-005
                   108  3.443380833914032E-005
                   109 -8.130325679806145E-008
                   110  3.025889259263556E-005
                   111  3.239089291409423E-005
                   112 -9.521667935529651E-005
                   113 -3.030864452247808E-007
                   114  3.426996052794088E-005
                   115 -8.447631450414032E-005
                   116 -5.233859470653109E-006
                   117  1.508757945156439E-005
                   118  2.146568973116010E-005
                   119 -7.176264612793954E-006
                   120 -2.262475452369592E-006
                   121 -1.860482369064873E-005
                   122 -1.547742184447527E-004
                   123 -1.977680729383198E-005
                   124  9.688898967651455E-005
                   125  1.902885382819404E-004
                   126 -4.211592914262064E-005
                   127  4.308643415897448E-005
                   128 -7.846966597981021E-004
                   129 -8.176690634485463E-007
                   130  2.584056940282600E-005
                   131  2.867694761587373E-004
                   132  2.023779413925076E-005
                   133 -9.561488347252601E-005
                   134  6.591143730966005E-004
                   135 -1.061911182281151E-005
                   136  2.159031124323637E-006
                   137  3.470893044133273E-006
                   138 -4.174525215770434E-007
                   139  1.767461134973875E-006
                   140 -1.652831163178261E-004
                   141 -1.849492299356640E-005
                   142  1.335097721684889E-004
                   143  2.300043494396802E-005
                   144 -9.036692135527910E-006
                   145 -3.272330205834380E-005
                   146  8.833130236264561E-008
                   147 -1.995822362090946E-006
                   148 -8.588721356423362E-006
                   149 -1.624494234066472E-006
                   150 -8.531690619463057E-007
                   151 -2.787048061559120E-006
                   152 -1.552471606919312E-004
                   153 -2.145002628398710E-005
                   154  9.640713863796251E-005
                   155  1.933067819619806E-004
                   156  4.109950140081177E-005
                   157 -4.236869430417483E-005
                   158 -7.847561392576824E-004
                   159  1.222885567012295E-006
                   160 -2.644980426246568E-005
                   161  2.864060336570552E-004
                   162 -1.942681061735645E-005
                   163  9.559641078305007E-005
                   164  6.593917969146609E-004
                   165 -1.056600346140105E-005
                   166 -2.182295868796642E-006
                   167 -3.465781252038210E-006
                   168 -4.751405113251854E-007
                   169  1.758487388618838E-006
                   170 -1.653910024066242E-004
                   171  1.809487621277437E-005
                   172 -1.335342490491046E-004
                   173  2.286258105423442E-005
                   174 -9.224568333348887E-006
                   175 -3.264030821225916E-005
                   176  3.284525155110447E-008
                   177  1.950046999040024E-006
                   178 -8.633699678877084E-006
                   179 -1.629595066967718E-006
                   180  8.689084150136993E-007
                   181  2.803162602988686E-006
                   182 -1.304906274804398E-004
                   183 -3.522038254332668E-004
                   184  2.966390902693275E-005
                   185  1.988029216076981E-004
                   186 -3.710355847723351E-008
                   187  1.072885525696122E-007
                   188 -4.534348783215414E-005
                   189  3.782855112684921E-008
                   190 -4.492779179914112E-007
                   191  1.516368985054045E-005
                   192 -2.809129865841645E-009
                   193 -3.772774491095702E-008
                   194 -1.169635503072877E-005
                   195  1.861304533817609E-005
                   196  1.458213068006821E-008
                   197  6.823564983001298E-009
                   198  7.790095629930954E-006
                   199  1.097136460424812E-006
                   200  4.880073604954669E-005
                   201  1.876500149301557E-008
                   202  1.682222623562747E-007
                   203  3.609962707167912E-005
                   204 -4.986924394423476E-006
                   205 -1.138159816720253E-005
                   206  1.682877802968253E-008
                   207 -2.348790860736017E-008
                   208  3.025551905239404E-006
                   209  2.099851316128550E-006
                   210  7.447522846006206E-010
                   211  2.769999273242895E-008
                   212  4.175036969138689E-003
                   213 -2.461020900137493E-003
                   214  3.244879671178797E-004
                   215  3.722296405063372E-004
                   216  3.715520346482646E-004
                   217  4.175008221181291E-003
                   218 -2.461009706566627E-003
                   219 -3.240091293790442E-004
                   220 -3.725408929728332E-004
                   221  3.716546785853251E-004
                   222 -6.256831674994294E-004
                   223 -2.230409783951207E-004
                   224  3.068341219803572E-006
                   225 -2.654267408110772E-005
                   226 -4.216810319816913E-005
                   227 -6.257498209497465E-004
                   228 -2.226724577717732E-004
                   229 -3.122225731730513E-006
                   230  2.656012466004091E-005
                   231 -4.216806258456299E-005
                   232 -2.370664207692710E-004
                   233 -3.407470015349357E-004
                   234 -2.768685634025383E-006
                   235 -9.247143656330378E-006
                   236  2.629387233338311E-006
                   237 -2.371073345852874E-004
                   238 -3.409022585552537E-004
                   239  2.768578704052416E-006
                   240  9.290770145182030E-006
                   241  2.681311099120145E-006
                   242  7.550177663023546E-005
                   243 -7.888087320443654E-005
                   244  1.010702313821880E-008
                   245 -2.812580382070363E-008
                   246  1.516760659694836E-005
 Sym= __2_A__
 Ene=   2.00000000000000     
 Spin= Alpha
 Occup=    1.00000000000000     
                     1 -3.052022263391917E-005
                     2 -1.460120849452549E-004
                     3  2.084415581658177E-003
                     4  7.496294755759903E-005
                     5  1.232631356307093E-003
                     6  1.640604875945684E-006
                     7 -1.076282651926314E-006
                     8  2.566369169400810E-003
                     9 -4.787828290300797E-008
                    10  3.052889998764994E-008
                    11 -7.849259750052305E-005
                    12 -1.723655081032214E-007
                    13  1.207209803880875E-007
                    14 -2.744359438633186E-004
                    15  4.759361316201358E-005
                    16  1.720968542554989E-008
                    17 -2.985750679494029E-008
                    18  3.539093480496892E-005
                    19 -3.000450649413565E-005
                    20 -1.920453318318960E-004
                    21 -5.253812609470770E-008
                    22  1.098539434007946E-007
                    23 -1.519270682801493E-004
                    24  1.473977285870800E-004
                    25  1.931446590343653E-004
                    26 -2.936016748238361E-007
                    27  2.518478411510839E-007
                    28 -3.035401531893714E-005
                    29 -3.273901369989820E-005
                    30  4.065516135703105E-008
                    31 -9.418494596386876E-009
                    32   1.00106350599811     
                    33  9.042136701770996E-003
                    34  2.584573210138729E-003
                    35 -7.793782003181424E-003
                    36 -2.358939044714788E-006
                    37  1.539607938412267E-006
                    38 -3.677565741353414E-003
                    39  7.427708067404033E-007
                    40 -4.834655965838093E-007
                    41  1.158999901147927E-003
                    42  2.619380066413539E-006
                    43 -1.780607691318732E-006
                    44  4.074922166885558E-003
                    45  3.887864874808891E-004
                    46  6.976092012918147E-007
                    47 -1.260191538889011E-007
                    48 -4.039128225200452E-004
                    49  1.556296170133736E-005
                    50  4.220113529194752E-004
                    51 -6.679419988363275E-008
                    52 -6.384624014975750E-007
                    53  8.314829172097508E-004
                    54 -7.681108577585350E-006
                    55  3.409016774005357E-004
                    56 -3.376640827550256E-007
                    57  4.620081972730141E-007
                    58 -1.873275642448734E-004
                    59  1.281194972473662E-005
                    60  1.407388961733954E-007
                    61  1.082311012606585E-007
                    62  8.817541365643288E-003
                    63 -1.928707608861947E-003
                    64 -2.703118981674322E-004
                    65  2.933659338044525E-003
                    66  4.037043739146894E-006
                    67  1.584978395312985E-004
                    68 -7.196002110360300E-005
                    69 -3.952217000502693E-005
                    70  5.463727944046753E-004
                    71  8.661546289819397E-005
                    72  8.732251885485057E-005
                    73 -1.948262833168766E-003
                    74  1.108340431272494E-004
                    75 -1.954935537881525E-005
                    76  1.876955605209889E-006
                    77  1.658972422333369E-005
                    78  2.784895038929450E-005
                    79  2.639865180398932E-006
                    80  7.535856567152089E-004
                    81  3.457130985955532E-005
                    82 -4.168862108781404E-004
                    83 -2.228421702154412E-005
                    84 -2.029164310088043E-005
                    85  6.246734657970162E-005
                    86 -1.252778814014006E-006
                    87  3.548410645000504E-005
                    88 -1.190476374153041E-004
                    89 -5.284216970410953E-007
                    90  4.199358660533928E-006
                    91  4.925517700429942E-005
                    92  8.817514966648234E-003
                    93 -1.928790071011590E-003
                    94 -2.703573848632221E-004
                    95  2.933862220306827E-003
                    96 -4.128606259545624E-006
                    97 -1.584386570323852E-004
                    98 -7.211361821507851E-005
                    99  3.963056642002242E-005
                   100 -5.464405170584294E-004
                   101  8.624788011194369E-005
                   102 -8.718811914259381E-005
                   103  1.948307106455819E-003
                   104  1.124278743133713E-004
                   105 -1.955515270614494E-005
                   106 -1.954178542405476E-006
                   107 -1.659430174874053E-005
                   108  2.783104134173558E-005
                   109  2.620307924619345E-006
                   110  7.543396568059177E-004
                   111 -3.288772991658433E-005
                   112  4.158811410123944E-004
                   113 -2.195652542941956E-005
                   114 -1.972806911287005E-005
                   115  6.252911635438385E-005
                   116  1.296584013021349E-006
                   117 -3.519400193654592E-005
                   118 -1.191468466717695E-004
                   119 -5.285379806718614E-007
                   120 -4.011331504418658E-006
                   121 -4.913226612938346E-005
                   122 -2.093010749661988E-004
                   123 -7.488601485101627E-004
                   124  2.263710705134101E-004
                   125 -1.441762615143152E-004
                   126 -7.398868732803368E-006
                   127 -2.786458934193941E-005
                   128 -2.234369477648954E-004
                   129  1.654511936405317E-005
                   130  9.363086621918578E-006
                   131  5.493881855975465E-004
                   132 -1.204129504989203E-005
                   133  3.050155192545437E-004
                   134  7.015393432358985E-004
                   135 -1.829168424058563E-005
                   136 -3.514508435733069E-006
                   137  4.930992112863501E-005
                   138  1.463234491708490E-005
                   139  2.948960416432661E-006
                   140 -2.994638668011915E-004
                   141  4.049655207958760E-007
                   142 -2.320568946964762E-004
                   143 -1.999723717877298E-005
                   144 -1.350521876066049E-005
                   145 -3.600465358771832E-006
                   146  4.622898607876585E-006
                   147 -3.352757841429655E-005
                   148 -3.529399732560954E-005
                   149 -4.148387099877108E-006
                   150  8.377949050918997E-007
                   151 -6.596174478647041E-006
                   152 -2.090111806822520E-004
                   153 -7.478971890952760E-004
                   154  2.264475396121874E-004
                   155 -1.452383070975045E-004
                   156  7.113551663598741E-006
                   157  2.804106131475000E-005
                   158 -2.234269791383025E-004
                   159 -1.584619500296948E-005
                   160 -9.767571092816083E-006