[Molden Format]
[Atoms] AU
  N     1    7    -4.4519150800    0.1645695100   -0.0000004400        
  C     2    6    -1.7695092000   -0.0145096000   -0.0000001700        
  C     3    6    -0.4270927200   -0.0061402300   -2.2691546100        
  C     4    6    -0.4270931100   -0.0061391100    2.2691544900        
  C     5    6     2.1889955900   -0.0004823800   -2.2566388900        
  C     6    6     2.1889952100   -0.0004812700    2.2566392100        
  C     7    6     3.5149715000    0.0022090000    0.0000002700        
  H     8    1    -5.1855378300   -0.7126266600   -1.5571957100        
  H     9    1    -5.1855380900   -0.7126258900    1.5571951400        
  H    10    1    -1.4305344500   -0.0005073500   -4.0318143700        
  H    11    1    -1.4305351200   -0.0005053700    4.0318140800        
  H    12    1     3.1914120400   -0.0010699000   -4.0209976100        
  H    13    1     3.1914113700   -0.0010679200    4.0209980900        
  H    14    1     5.5428332300    0.0050250700    0.0000004400        
[5D]
[7F]
[GTO]
  1  0
   s    12 1.00
  0.114200D+05  0.172695D-04
  0.171200D+04  0.134411D-03
  0.389300D+03  0.694561D-03
  0.110000D+03  0.278531D-02
  0.355700D+02  0.863457D-02
  0.125400D+02  0.199805D-01
  0.464400D+01  0.262908D-01
  0.129300D+01 -0.243845D-01
  0.511800D+00 -0.924934D-01
  0.178700D+00 -0.339683D+00
  0.246240D-01  0.345111D+00
  0.112530D-01  0.752750D+00
   s    10 1.00
  0.114200D+05  0.523000D-03
  0.171200D+04  0.404500D-02
  0.389300D+03  0.207750D-01
  0.110000D+03  0.807269D-01
  0.355700D+02  0.233074D+00
  0.125400D+02  0.433501D+00
  0.464400D+01  0.347472D+00
  0.129300D+01  0.412620D-01
  0.511800D+00 -0.850799D-02
  0.178700D+00  0.238400D-02
   s    10 1.00
  0.114200D+05 -0.115000D-03
  0.171200D+04 -0.895000D-03
  0.389300D+03 -0.462400D-02
  0.110000D+03 -0.185280D-01
  0.355700D+02 -0.573390D-01
  0.125400D+02 -0.132076D+00
  0.464400D+01 -0.172510D+00
  0.129300D+01  0.151814D+00
  0.511800D+00  0.599944D+00
  0.178700D+00  0.387462D+00
   s     1 1.00
  0.129300D+01  0.100000D+01
   s     1 1.00
  0.178700D+00  0.100000D+01
   p     5 1.00
  0.266300D+02  0.146700D-01
  0.594800D+01  0.917640D-01
  0.174200D+01  0.298683D+00
  0.555000D+00  0.498487D+00
  0.172500D+00  0.337023D+00
   p     1 1.00
  0.174200D+01  0.100000D+01
   p     1 1.00
  0.555000D+00  0.100000D+01
   d     1 1.00
  0.165400D+01  0.100000D+01
   d     1 1.00
  0.469000D+00  0.100000D+01
   f     1 1.00
  0.109300D+01  0.100000D+01
  
  2  0
   s    10 1.00
  0.823600D+04  0.531000D-03
  0.123500D+04  0.410800D-02
  0.280800D+03  0.210870D-01
  0.792700D+02  0.818530D-01
  0.255900D+02  0.234817D+00
  0.899700D+01  0.434401D+00
  0.331900D+01  0.346129D+00
  0.905900D+00  0.393780D-01
  0.364300D+00 -0.898300D-02
  0.128500D+00  0.238500D-02
   s    10 1.00
  0.823600D+04 -0.113000D-03
  0.123500D+04 -0.878000D-03
  0.280800D+03 -0.454000D-02
  0.792700D+02 -0.181330D-01
  0.255900D+02 -0.557600D-01
  0.899700D+01 -0.126895D+00
  0.331900D+01 -0.170352D+00
  0.905900D+00  0.140382D+00
  0.364300D+00  0.598684D+00
  0.128500D+00  0.395389D+00
   s     1 1.00
  0.905900D+00  0.100000D+01
   s     1 1.00
  0.364300D+00  0.100000D+01
   p     5 1.00
  0.187100D+02  0.140310D-01
  0.413300D+01  0.868660D-01
  0.120000D+01  0.290216D+00
  0.382700D+00  0.501008D+00
  0.120900D+00  0.343406D+00
   p     1 1.00
  0.382700D+00  0.100000D+01
   p     1 1.00
  0.120900D+00  0.100000D+01
   d     1 1.00
  0.109700D+01  0.100000D+01
   d     1 1.00
  0.318000D+00  0.100000D+01
   f     1 1.00
  0.761000D+00  0.100000D+01
  
  3  0
   s    10 1.00
  0.823600D+04  0.531000D-03
  0.123500D+04  0.410800D-02
  0.280800D+03  0.210870D-01
  0.792700D+02  0.818530D-01
  0.255900D+02  0.234817D+00
  0.899700D+01  0.434401D+00
  0.331900D+01  0.346129D+00
  0.905900D+00  0.393780D-01
  0.364300D+00 -0.898300D-02
  0.128500D+00  0.238500D-02
   s    10 1.00
  0.823600D+04 -0.113000D-03
  0.123500D+04 -0.878000D-03
  0.280800D+03 -0.454000D-02
  0.792700D+02 -0.181330D-01
  0.255900D+02 -0.557600D-01
  0.899700D+01 -0.126895D+00
  0.331900D+01 -0.170352D+00
  0.905900D+00  0.140382D+00
  0.364300D+00  0.598684D+00
  0.128500D+00  0.395389D+00
   s     1 1.00
  0.905900D+00  0.100000D+01
   s     1 1.00
  0.364300D+00  0.100000D+01
   p     5 1.00
  0.187100D+02  0.140310D-01
  0.413300D+01  0.868660D-01
  0.120000D+01  0.290216D+00
  0.382700D+00  0.501008D+00
  0.120900D+00  0.343406D+00
   p     1 1.00
  0.382700D+00  0.100000D+01
   p     1 1.00
  0.120900D+00  0.100000D+01
   d     1 1.00
  0.109700D+01  0.100000D+01
   d     1 1.00
  0.318000D+00  0.100000D+01
   f     1 1.00
  0.761000D+00  0.100000D+01
  
  4  0
   s    10 1.00
  0.823600D+04  0.531000D-03
  0.123500D+04  0.410800D-02
  0.280800D+03  0.210870D-01
  0.792700D+02  0.818530D-01
  0.255900D+02  0.234817D+00
  0.899700D+01  0.434401D+00
  0.331900D+01  0.346129D+00
  0.905900D+00  0.393780D-01
  0.364300D+00 -0.898300D-02
  0.128500D+00  0.238500D-02
   s    10 1.00
  0.823600D+04 -0.113000D-03
  0.123500D+04 -0.878000D-03
  0.280800D+03 -0.454000D-02
  0.792700D+02 -0.181330D-01
  0.255900D+02 -0.557600D-01
  0.899700D+01 -0.126895D+00
  0.331900D+01 -0.170352D+00
  0.905900D+00  0.140382D+00
  0.364300D+00  0.598684D+00
  0.128500D+00  0.395389D+00
   s     1 1.00
  0.905900D+00  0.100000D+01
   s     1 1.00
  0.364300D+00  0.100000D+01
   p     5 1.00
  0.187100D+02  0.140310D-01
  0.413300D+01  0.868660D-01
  0.120000D+01  0.290216D+00
  0.382700D+00  0.501008D+00
  0.120900D+00  0.343406D+00
   p     1 1.00
  0.382700D+00  0.100000D+01
   p     1 1.00
  0.120900D+00  0.100000D+01
   d     1 1.00
  0.109700D+01  0.100000D+01
   d     1 1.00
  0.318000D+00  0.100000D+01
   f     1 1.00
  0.761000D+00  0.100000D+01
  
  5  0
   s    10 1.00
  0.823600D+04  0.531000D-03
  0.123500D+04  0.410800D-02
  0.280800D+03  0.210870D-01
  0.792700D+02  0.818530D-01
  0.255900D+02  0.234817D+00
  0.899700D+01  0.434401D+00
  0.331900D+01  0.346129D+00
  0.905900D+00  0.393780D-01
  0.364300D+00 -0.898300D-02
  0.128500D+00  0.238500D-02
   s    10 1.00
  0.823600D+04 -0.113000D-03
  0.123500D+04 -0.878000D-03
  0.280800D+03 -0.454000D-02
  0.792700D+02 -0.181330D-01
  0.255900D+02 -0.557600D-01
  0.899700D+01 -0.126895D+00
  0.331900D+01 -0.170352D+00
  0.905900D+00  0.140382D+00
  0.364300D+00  0.598684D+00
  0.128500D+00  0.395389D+00
   s     1 1.00
  0.905900D+00  0.100000D+01
   s     1 1.00
  0.364300D+00  0.100000D+01
   p     5 1.00
  0.187100D+02  0.140310D-01
  0.413300D+01  0.868660D-01
  0.120000D+01  0.290216D+00
  0.382700D+00  0.501008D+00
  0.120900D+00  0.343406D+00
   p     1 1.00
  0.382700D+00  0.100000D+01
   p     1 1.00
  0.120900D+00  0.100000D+01
   d     1 1.00
  0.109700D+01  0.100000D+01
   d     1 1.00
  0.318000D+00  0.100000D+01
   f     1 1.00
  0.761000D+00  0.100000D+01
  
  6  0
   s    10 1.00
  0.823600D+04  0.531000D-03
  0.123500D+04  0.410800D-02
  0.280800D+03  0.210870D-01
  0.792700D+02  0.818530D-01
  0.255900D+02  0.234817D+00
  0.899700D+01  0.434401D+00
  0.331900D+01  0.346129D+00
  0.905900D+00  0.393780D-01
  0.364300D+00 -0.898300D-02
  0.128500D+00  0.238500D-02
   s    10 1.00
  0.823600D+04 -0.113000D-03
  0.123500D+04 -0.878000D-03
  0.280800D+03 -0.454000D-02
  0.792700D+02 -0.181330D-01
  0.255900D+02 -0.557600D-01
  0.899700D+01 -0.126895D+00
  0.331900D+01 -0.170352D+00
  0.905900D+00  0.140382D+00
  0.364300D+00  0.598684D+00
  0.128500D+00  0.395389D+00
   s     1 1.00
  0.905900D+00  0.100000D+01
   s     1 1.00
  0.364300D+00  0.100000D+01
   p     5 1.00
  0.187100D+02  0.140310D-01
  0.413300D+01  0.868660D-01
  0.120000D+01  0.290216D+00
  0.382700D+00  0.501008D+00
  0.120900D+00  0.343406D+00
   p     1 1.00
  0.382700D+00  0.100000D+01
   p     1 1.00
  0.120900D+00  0.100000D+01
   d     1 1.00
  0.109700D+01  0.100000D+01
   d     1 1.00
  0.318000D+00  0.100000D+01
   f     1 1.00
  0.761000D+00  0.100000D+01
  
  7  0
   s    10 1.00
  0.823600D+04  0.531000D-03
  0.123500D+04  0.410800D-02
  0.280800D+03  0.210870D-01
  0.792700D+02  0.818530D-01
  0.255900D+02  0.234817D+00
  0.899700D+01  0.434401D+00
  0.331900D+01  0.346129D+00
  0.905900D+00  0.393780D-01
  0.364300D+00 -0.898300D-02
  0.128500D+00  0.238500D-02
   s    10 1.00
  0.823600D+04 -0.113000D-03
  0.123500D+04 -0.878000D-03
  0.280800D+03 -0.454000D-02
  0.792700D+02 -0.181330D-01
  0.255900D+02 -0.557600D-01
  0.899700D+01 -0.126895D+00
  0.331900D+01 -0.170352D+00
  0.905900D+00  0.140382D+00
  0.364300D+00  0.598684D+00
  0.128500D+00  0.395389D+00
   s     1 1.00
  0.905900D+00  0.100000D+01
   s     1 1.00
  0.364300D+00  0.100000D+01
   p     5 1.00
  0.187100D+02  0.140310D-01
  0.413300D+01  0.868660D-01
  0.120000D+01  0.290216D+00
  0.382700D+00  0.501008D+00
  0.120900D+00  0.343406D+00
   p     1 1.00
  0.382700D+00  0.100000D+01
   p     1 1.00
  0.120900D+00  0.100000D+01
   d     1 1.00
  0.109700D+01  0.100000D+01
   d     1 1.00
  0.318000D+00  0.100000D+01
   f     1 1.00
  0.761000D+00  0.100000D+01
  
  8  0
   s     4 1.00
  0.130100D+02  0.196850D-01
  0.196200D+01  0.137977D+00
  0.444600D+00  0.478148D+00
  0.122000D+00  0.501240D+00
   s     1 1.00
  0.122000D+00  0.100000D+01
   p     1 1.00
  0.727000D+00  0.100000D+01
  
  9  0
   s     4 1.00
  0.130100D+02  0.196850D-01
  0.196200D+01  0.137977D+00
  0.444600D+00  0.478148D+00
  0.122000D+00  0.501240D+00
   s     1 1.00
  0.122000D+00  0.100000D+01
   p     1 1.00
  0.727000D+00  0.100000D+01
  
 10  0
   s     4 1.00
  0.130100D+02  0.196850D-01
  0.196200D+01  0.137977D+00
  0.444600D+00  0.478148D+00
  0.122000D+00  0.501240D+00
   s     1 1.00
  0.122000D+00  0.100000D+01
   p     1 1.00
  0.727000D+00  0.100000D+01
  
 11  0
   s     4 1.00
  0.130100D+02  0.196850D-01
  0.196200D+01  0.137977D+00
  0.444600D+00  0.478148D+00
  0.122000D+00  0.501240D+00
   s     1 1.00
  0.122000D+00  0.100000D+01
   p     1 1.00
  0.727000D+00  0.100000D+01
  
 12  0
   s     4 1.00
  0.130100D+02  0.196850D-01
  0.196200D+01  0.137977D+00
  0.444600D+00  0.478148D+00
  0.122000D+00  0.501240D+00
   s     1 1.00
  0.122000D+00  0.100000D+01
   p     1 1.00
  0.727000D+00  0.100000D+01
  
 13  0
   s     4 1.00
  0.130100D+02  0.196850D-01
  0.196200D+01  0.137977D+00
  0.444600D+00  0.478148D+00
  0.122000D+00  0.501240D+00
   s     1 1.00
  0.122000D+00  0.100000D+01
   p     1 1.00
  0.727000D+00  0.100000D+01
  
 14  0
   s     4 1.00
  0.130100D+02  0.196850D-01
  0.196200D+01  0.137977D+00
  0.444600D+00  0.478148D+00
  0.122000D+00  0.501240D+00
   s     1 1.00
  0.122000D+00  0.100000D+01
   p     1 1.00
  0.727000D+00  0.100000D+01
  
[MO]
 Sym= __1_a__
 Ene=  0.000000000000000E+000
 Spin= Alpha
 Occup=    2.00000000000000     
                     1  2.221757164468980E-004
                     2  0.998066392724233     
                     3  4.235045613335960E-003
                     4  1.919408394273910E-003
                     5  5.409201459308930E-003
                     6  5.444757891038590E-003
                     7 -4.763656817131270E-003
                     8 -6.953774163557760E-009
                     9 -7.487198043199420E-004
                    10  2.359707210352190E-004
                    11  4.288329944616260E-009
                    12 -1.327608251994230E-003
                    13  3.096080622310770E-003
                    14 -1.267754077647760E-008
                    15 -5.228678991106570E-006
                    16 -8.847271886187090E-010
                    17  2.235196421603850E-010
                    18  8.033187272031820E-005
                    19  6.442712886044190E-005
                    20 -3.858944521332273E-004
                    21  3.027352794194610E-009
                    22  3.662628635331310E-009
                    23  4.653959378567600E-005
                    24 -4.858091027775100E-004
                    25  4.977337877863164E-009
                    26 -1.471104746747595E-004
                    27 -7.341329076024674E-005
                    28  8.037380530909101E-009
                    29 -1.904944605638630E-009
                    30 -9.874080631651930E-005
                    31 -5.940033177239758E-005
                    32 -3.916818626463050E-004
                    33  9.793023271856441E-004
                    34  2.412789288584710E-004
                    35 -1.121486381631990E-004
                    36 -4.525289526671540E-003
                    37 -1.982217332099630E-006
                    38  6.007934145970830E-009
                    39  2.025146190740500E-004
                    40 -1.216742476561140E-005
                    41 -4.336473362376030E-009
                    42  4.855289455665560E-003
                    43  7.825604302091020E-004
                    44  9.612024249350560E-008
                    45 -2.287002163908287E-004
                    46  3.853934351419770E-009
                    47 -1.043275728899020E-010
                    48  2.103260465884540E-004
                    49  4.775432280092480E-005
                    50  4.613119352084814E-004
                    51 -2.839455655503320E-008
                    52 -3.205137491636520E-010
                    53 -4.598930129857420E-005
                    54 -3.539122012281230E-004
                    55 -6.757310635493195E-009
                    56 -6.248877534253876E-005
                    57  1.124938008286370E-005
                    58 -4.315639751763220E-009
                    59  5.020584865461130E-010
                    60 -3.487813950720869E-005
                    61  3.637667416657438E-005
                    62 -3.564014225199620E-004
                    63 -1.812244144625270E-003
                    64  9.676835944813810E-005
                    65  8.392032684392690E-004
                    66  6.117089375338800E-004
                    67 -8.754570543663780E-005
                    68 -6.046757562372740E-004
                    69  5.963864819021140E-004
                    70  8.410670735845620E-005
                    71  1.113649189778040E-004
                    72 -4.728118074957250E-004
                    73 -3.566801487717220E-004
                    74 -7.956416396006900E-004
                    75 -7.616233798763408E-005
                    76 -1.269658775301520E-005
                    77  1.829447353883080E-005
                    78  6.271546982613860E-005
                    79 -9.660821902817621E-006
                    80  1.796176749859584E-004
                    81  1.854451819993950E-004
                    82 -2.694339794096060E-005
                    83 -1.179654390986322E-004
                    84  5.442777164516900E-005
                    85 -7.857186812531206E-006
                    86 -5.589778459434443E-005
                    87  2.118950589270315E-005
                    88 -1.164062111545180E-005
                    89  1.299678736778570E-005
                    90 -4.632609668819557E-005
                    91 -1.135333527976278E-005
                    92 -3.563853145350310E-004
                    93 -1.812181067161270E-003
                    94  9.682981375494750E-005
                    95  8.390009582173150E-004
                    96  6.117439658730840E-004
                    97 -8.754547020876600E-005
                    98  6.046796603219650E-004
                    99  5.961947155965000E-004
                   100  8.410608036201331E-005
                   101 -1.113958656755560E-004
                   102 -4.726137410212040E-004
                   103 -3.566798264548800E-004
                   104  7.954474844298000E-004
                   105 -7.615655911860838E-005
                   106  1.270260624094730E-005
                   107 -1.829434035130600E-005
                   108  6.270458866714320E-005
                   109 -9.660764218617520E-006
                   110  1.797117453431889E-004
                   111 -1.855073976780460E-004
                   112  2.694329166612940E-005
                   113 -1.180803527876714E-004
                   114  5.442625602286860E-005
                   115  7.860880460298246E-006
                   116 -5.587914841544189E-005
                   117  2.118940162455359E-005
                   118  1.164286979341454E-005
                   119 -1.299679366410220E-005
                   120 -4.630779766777662E-005
                   121 -1.135350897329110E-005
                   122 -1.874396904427520E-004
                   123 -2.922049710084050E-004
                   124  5.346347455301410E-005
                   125  5.419456460827480E-004
                   126 -5.637966432390530E-004
                   127 -3.296454075057630E-005
                   128  2.501505502561020E-005
                   129  2.238304778972510E-004
                   130 -2.542347855762200E-005
                   131  9.018300434213810E-006
                   132  8.431511771957140E-004
                   133  1.562660949274350E-004
                   134 -2.709749417070360E-004
                   135  4.220989862340449E-006
                   136 -1.667704453317390E-008
                   137 -3.915730448651100E-006
                   138  2.912378319011960E-007
                   139  9.140829679806780E-006
                   140  7.489387821377284E-005
                   141  1.917805255715510E-004
                   142  8.757591025224669E-006
                   143 -1.828933421747764E-004
                   144 -1.536456991883940E-005
                   145 -1.106248480071162E-005
                   146 -1.488400008895963E-005
                   147  2.576372472721346E-006
                   148 -4.158271316321860E-006
                   149 -1.685748715641750E-006
                   150 -4.459720185017295E-005
                   151 -1.507445513150053E-006
                   152 -1.876708678902390E-004
                   153 -2.930147320235040E-004
                   154  5.327125345812210E-005
                   155  5.432669737824740E-004
                   156 -5.637943474580040E-004
                   157 -3.296445470540600E-005
                   158 -2.498711931223050E-005
                   159  2.237640207996030E-004
                   160 -2.542375231300690E-005
                   161 -9.204582853122459E-006
                   162  8.433326466581550E-004
                   163  1.562667519017970E-004
                   164  2.711689224313980E-004
                   165  4.231512423523260E-006
                   166  1.262784977265310E-008
                   167  3.915322159858500E-006
                   168  3.202432854433520E-007
                   169  9.140926743893300E-006
                   170  7.490459206687154E-005
                   171 -1.919056506736050E-004
                   172 -8.757168287670380E-006
                   173 -1.828525486631202E-004
                   174 -1.536554285966010E-005
                   175  1.106457067051794E-005
                   176 -1.484311454731294E-005
                   177  2.576310590374535E-006
                   178  4.154600125878520E-006
                   179  1.685855422619340E-006
                   180 -4.458450440315973E-005
                   181 -1.507445528480861E-006
                   182 -1.241713448106090E-004
                   183 -3.843045122030690E-004
                   184  2.704278514481030E-005
                   185  1.494256972330960E-004
                   186 -1.638375347779940E-005
                   187 -4.313931300336920E-005
                   188  4.007361896602780E-008
                   189  9.419890029023620E-005
                   190  2.207898833721470E-005
                   191 -2.171333089539800E-007
                   192 -3.650947744706430E-004
                   193 -1.098786828698530E-004
                   194 -7.095547895889810E-008
                   195 -1.045585680582402E-005
                   196  1.213052776140650E-008
                   197 -2.702876037204610E-011
                   198  4.187208292717760E-006
                   199 -2.384250594695790E-006
                   200 -1.134086590747053E-004
                   201  1.066871301873820E-007
                   202  7.756005277588020E-010
                   203  6.387260512049860E-005
                   204  1.703368829528790E-005
                   205  8.173008447008897E-009
                   206  8.961715976778279E-007
                   207  3.133962617610171E-006
                   208 -9.976728642147200E-009
                   209 -1.194389781413040E-010
                   210 -5.628434583065559E-006
                   211 -2.630447750289116E-006
                   212  2.869810106164570E-003
                   213 -2.235247381047780E-003
                   214  1.886826442116210E-004
                   215  3.024969065653780E-004
                   216  3.760961421550800E-004
                   217  2.869821589046760E-003
                   218 -2.235256184092250E-003
                   219  1.886872703930000E-004
                   220  3.024994954179420E-004
                   221 -3.761014622195290E-004
                   222 -5.100702025611500E-004
                   223 -3.067119758965120E-004
                   224 -6.126124204664470E-005
                   225  1.012467508906120E-005
                   226  3.734683996593570E-005
                   227 -5.100965049124940E-004
                   228 -3.065467298569140E-004
                   229 -6.126826144003810E-005
                   230  1.012459744621340E-005
                   231 -3.735148072315820E-005
                   232 -1.218900942388450E-004
                   233 -4.678742381891050E-004
                   234  5.063339833282980E-006
                   235 -1.595016675230530E-006
                   236 -9.562052077701569E-006
                   237 -1.219091979909540E-004
                   238 -4.679527190105350E-004
                   239  5.085468245237450E-006
                   240 -1.594986304608320E-006
                   241  9.581474337725030E-006
                   242  2.019542725147190E-005
                   243  1.154990113861900E-004
                   244  2.969743297891050E-005
                   245  1.807863983083000E-006
                   246 -1.026625097179030E-008
 Sym= __2_a__
 Ene=  0.000000000000000E+000
 Spin= Alpha
 Occup=    2.00000000000000     
                     1 -2.147632694068350E-005
                     2 -8.373177985613999E-005
                     3  1.979478099725220E-003
                     4 -1.224934833366220E-005
                     5  1.249223499554220E-003
                     6  1.961730934947090E-003
                     7  3.141420407010570E-004
                     8  4.715676828223940E-009
                     9 -1.487971154764290E-004
                    10  9.870316104334700E-005
                    11 -2.644738091350740E-009
                    12  3.362899753893280E-005
                    13  4.127252594018790E-005
                    14  4.147862539863950E-009
                    15 -7.308526280833852E-005
                    16  6.345438211149090E-010
                    17 -1.345624916809770E-010
                    18  3.959819875173740E-005
                    19 -3.056202600093060E-006
                    20  1.892758628843656E-004
                    21 -5.395099330297720E-009
                    22 -2.293073814424800E-009
                    23  9.704745603994220E-005
                    24 -3.929671851219960E-005
                    25 -3.255026065815325E-009
                    26  1.399896395664094E-004
                    27 -5.827962323780344E-005
                    28 -5.302308278140080E-009
                    29  1.175853733520050E-009
                    30  1.284635997524088E-004
                    31  3.607253403892706E-005
                    32   1.00097107068275     
                    33  8.779180331038080E-003
                    34  2.779788483572470E-003
                    35 -8.213433789563830E-003
                    36 -2.615932060538070E-003
                    37  7.085406256497560E-004
                    38 -5.346392199083720E-009
                    39  1.098186210773620E-003
                    40 -2.278670642445860E-004
                    41  1.172374502650320E-009
                    42  3.478801782303730E-003
                    43 -1.295668173449910E-004
                    44 -5.136543227648400E-008
                    45  2.960286989994943E-004
                    46 -1.598614959959010E-009
                    47  3.224033398939420E-010
                    48  4.206878676333520E-004
                    49 -2.518419800718540E-005
                    50 -1.048741915174965E-003
                    51  5.688120845036090E-010
                    52 -7.821848927817930E-010
                    53 -1.096734985129282E-004
                    54  3.279642551020970E-005
                    55  3.234509386246560E-009
                    56  3.135892269068732E-004
                    57 -8.584189677608385E-006
                    58  1.906957663084530E-009
                    59 -4.530595092583460E-010
                    60  8.263205610636144E-005
                    61  1.911552769419662E-005
                    62  1.237176374039150E-002
                    63 -1.866982747531080E-003
                    64 -3.129855448330960E-004
                    65  3.155114945410070E-003
                    66 -1.466655823122490E-004
                    67  1.273446843087960E-004
                    68  2.565891742698350E-004
                    69  2.822276824183130E-005
                    70  2.401112673894940E-006
                    71  5.205640157740740E-004
                    72  1.557429071436330E-004
                    73 -3.284263727657210E-005
                    74 -1.844556241256240E-003
                    75 -1.030069364825889E-005
                    76  2.470912961529540E-005
                    77  8.748381114624029E-006
                    78 -3.580603427628200E-005
                    79 -4.944492664160760E-006
                    80 -4.199087070349428E-004
                    81 -4.695836079381010E-004
                    82  8.672545306824650E-007
                    83  7.613928168948060E-004
                    84 -2.142877357642300E-006
                    85  5.112808707926036E-005
                    86  1.075186155985044E-004
                    87  5.890016460239592E-007
                    88 -1.636678782657632E-005
                    89 -6.886717667843540E-006
                    90 -2.956775387841081E-005
                    91  5.133436216987434E-006
                    92  1.237175626365280E-002
                    93 -1.867031558525920E-003
                    94 -3.130131439402820E-004
                    95  3.155237043148240E-003
                    96 -1.466801484645010E-004
                    97  1.273446461172080E-004
                    98 -2.565896291946640E-004
                    99  2.829911093372640E-005
                   100  2.400769260161190E-006
                   101 -5.205637746832420E-004
                   102  1.556375167731400E-004
                   103 -3.284192889838410E-005
                   104  1.844636815685830E-003
                   105 -1.030438069592035E-005
                   106 -2.471240698625570E-005
                   107 -8.748446081437579E-006
                   108 -3.579834706483820E-005
                   109 -4.944486727456380E-006
                   110 -4.199394062916919E-004
                   111  4.696154449378710E-004
                   112 -8.679477024255020E-007
                   113  7.614245723824560E-004
                   114 -2.143357125373490E-006
                   115 -5.112892272023831E-005
                   116  1.075109642258104E-004
                   117  5.893778004179174E-007
                   118  1.636625848275722E-005
                   119  6.886976037152350E-006
                   120 -2.957430145289894E-005
                   121  5.133343893290262E-006
                   122 -1.488211568878980E-004
                   123 -7.137005881339340E-004
                   124  2.527823257524120E-004
                   125 -3.236419551242580E-004
                   126 -1.905238340592580E-004
                   127  2.366943484400750E-005
                   128 -4.285563371918120E-005
                   129  6.005705511867480E-004
                   130 -1.627360769014830E-006
                   131  4.075873401166270E-005
                   132  5.773464728413970E-004
                   133  2.498932690877540E-006
                   134  3.434630021548970E-004
                   135 -3.310193204648742E-008
                   136  4.193358996915590E-005
                   137  1.881981561811370E-007
                   138 -3.400492137349240E-005
                   139 -1.558714122593340E-006
                   140  1.946491930597003E-004
                   141 -2.630579690211540E-004
                   142  1.473507880616690E-006
                   143 -2.660817098695440E-004
                   144 -4.540667983497730E-006
                   145 -1.782655300439515E-005
                   146  1.310927955320953E-005
                   147  1.602502867489982E-007
                   148 -1.289602176264764E-005
                   149 -1.994982543715980E-006
                   150 -2.566853074052162E-005
                   151 -5.794227852476423E-007
                   152 -1.486346770933210E-004
                   153 -7.130737189628580E-004
                   154  2.528344082026800E-004
                   155 -3.243430006422040E-004
                   156 -1.905241658406830E-004
                   157  2.366991951052430E-005
                   158  4.284684821347400E-005
                   159  6.005941837304840E-004
                   160 -1.628607289338980E-006