[Molden Format]
[Atoms] AU
  N     1    7    -4.4519150800    0.1645695100   -0.0000004400        
  C     2    6    -1.7695092000   -0.0145096000   -0.0000001700        
  C     3    6    -0.4270927200   -0.0061402300   -2.2691546100        
  C     4    6    -0.4270931100   -0.0061391100    2.2691544900        
  C     5    6     2.1889955900   -0.0004823800   -2.2566388900        
  C     6    6     2.1889952100   -0.0004812700    2.2566392100        
  C     7    6     3.5149715000    0.0022090000    0.0000002700        
  H     8    1    -5.1855378300   -0.7126266600   -1.5571957100        
  H     9    1    -5.1855380900   -0.7126258900    1.5571951400        
  H    10    1    -1.4305344500   -0.0005073500   -4.0318143700        
  H    11    1    -1.4305351200   -0.0005053700    4.0318140800        
  H    12    1     3.1914120400   -0.0010699000   -4.0209976100        
  H    13    1     3.1914113700   -0.0010679200    4.0209980900        
  H    14    1     5.5428332300    0.0050250700    0.0000004400        
[5D]
[7F]
[GTO]
  1  0
   s    12 1.00
  0.114200D+05  0.172695D-04
  0.171200D+04  0.134411D-03
  0.389300D+03  0.694561D-03
  0.110000D+03  0.278531D-02
  0.355700D+02  0.863457D-02
  0.125400D+02  0.199805D-01
  0.464400D+01  0.262908D-01
  0.129300D+01 -0.243845D-01
  0.511800D+00 -0.924934D-01
  0.178700D+00 -0.339683D+00
  0.246240D-01  0.345111D+00
  0.112530D-01  0.752750D+00
   s    10 1.00
  0.114200D+05  0.523000D-03
  0.171200D+04  0.404500D-02
  0.389300D+03  0.207750D-01
  0.110000D+03  0.807269D-01
  0.355700D+02  0.233074D+00
  0.125400D+02  0.433501D+00
  0.464400D+01  0.347472D+00
  0.129300D+01  0.412620D-01
  0.511800D+00 -0.850799D-02
  0.178700D+00  0.238400D-02
   s    10 1.00
  0.114200D+05 -0.115000D-03
  0.171200D+04 -0.895000D-03
  0.389300D+03 -0.462400D-02
  0.110000D+03 -0.185280D-01
  0.355700D+02 -0.573390D-01
  0.125400D+02 -0.132076D+00
  0.464400D+01 -0.172510D+00
  0.129300D+01  0.151814D+00
  0.511800D+00  0.599944D+00
  0.178700D+00  0.387462D+00
   s     1 1.00
  0.129300D+01  0.100000D+01
   s     1 1.00
  0.178700D+00  0.100000D+01
   p     5 1.00
  0.266300D+02  0.146700D-01
  0.594800D+01  0.917640D-01
  0.174200D+01  0.298683D+00
  0.555000D+00  0.498487D+00
  0.172500D+00  0.337023D+00
   p     1 1.00
  0.174200D+01  0.100000D+01
   p     1 1.00
  0.555000D+00  0.100000D+01
   d     1 1.00
  0.165400D+01  0.100000D+01
   d     1 1.00
  0.469000D+00  0.100000D+01
   f     1 1.00
  0.109300D+01  0.100000D+01
  
  2  0
   s    10 1.00
  0.823600D+04  0.531000D-03
  0.123500D+04  0.410800D-02
  0.280800D+03  0.210870D-01
  0.792700D+02  0.818530D-01
  0.255900D+02  0.234817D+00
  0.899700D+01  0.434401D+00
  0.331900D+01  0.346129D+00
  0.905900D+00  0.393780D-01
  0.364300D+00 -0.898300D-02
  0.128500D+00  0.238500D-02
   s    10 1.00
  0.823600D+04 -0.113000D-03
  0.123500D+04 -0.878000D-03
  0.280800D+03 -0.454000D-02
  0.792700D+02 -0.181330D-01
  0.255900D+02 -0.557600D-01
  0.899700D+01 -0.126895D+00
  0.331900D+01 -0.170352D+00
  0.905900D+00  0.140382D+00
  0.364300D+00  0.598684D+00
  0.128500D+00  0.395389D+00
   s     1 1.00
  0.905900D+00  0.100000D+01
   s     1 1.00
  0.364300D+00  0.100000D+01
   p     5 1.00
  0.187100D+02  0.140310D-01
  0.413300D+01  0.868660D-01
  0.120000D+01  0.290216D+00
  0.382700D+00  0.501008D+00
  0.120900D+00  0.343406D+00
   p     1 1.00
  0.382700D+00  0.100000D+01
   p     1 1.00
  0.120900D+00  0.100000D+01
   d     1 1.00
  0.109700D+01  0.100000D+01
   d     1 1.00
  0.318000D+00  0.100000D+01
   f     1 1.00
  0.761000D+00  0.100000D+01
  
  3  0
   s    10 1.00
  0.823600D+04  0.531000D-03
  0.123500D+04  0.410800D-02
  0.280800D+03  0.210870D-01
  0.792700D+02  0.818530D-01
  0.255900D+02  0.234817D+00
  0.899700D+01  0.434401D+00
  0.331900D+01  0.346129D+00
  0.905900D+00  0.393780D-01
  0.364300D+00 -0.898300D-02
  0.128500D+00  0.238500D-02
   s    10 1.00
  0.823600D+04 -0.113000D-03
  0.123500D+04 -0.878000D-03
  0.280800D+03 -0.454000D-02
  0.792700D+02 -0.181330D-01
  0.255900D+02 -0.557600D-01
  0.899700D+01 -0.126895D+00
  0.331900D+01 -0.170352D+00
  0.905900D+00  0.140382D+00
  0.364300D+00  0.598684D+00
  0.128500D+00  0.395389D+00
   s     1 1.00
  0.905900D+00  0.100000D+01
   s     1 1.00
  0.364300D+00  0.100000D+01
   p     5 1.00
  0.187100D+02  0.140310D-01
  0.413300D+01  0.868660D-01
  0.120000D+01  0.290216D+00
  0.382700D+00  0.501008D+00
  0.120900D+00  0.343406D+00
   p     1 1.00
  0.382700D+00  0.100000D+01
   p     1 1.00
  0.120900D+00  0.100000D+01
   d     1 1.00
  0.109700D+01  0.100000D+01
   d     1 1.00
  0.318000D+00  0.100000D+01
   f     1 1.00
  0.761000D+00  0.100000D+01
  
  4  0
   s    10 1.00
  0.823600D+04  0.531000D-03
  0.123500D+04  0.410800D-02
  0.280800D+03  0.210870D-01
  0.792700D+02  0.818530D-01
  0.255900D+02  0.234817D+00
  0.899700D+01  0.434401D+00
  0.331900D+01  0.346129D+00
  0.905900D+00  0.393780D-01
  0.364300D+00 -0.898300D-02
  0.128500D+00  0.238500D-02
   s    10 1.00
  0.823600D+04 -0.113000D-03
  0.123500D+04 -0.878000D-03
  0.280800D+03 -0.454000D-02
  0.792700D+02 -0.181330D-01
  0.255900D+02 -0.557600D-01
  0.899700D+01 -0.126895D+00
  0.331900D+01 -0.170352D+00
  0.905900D+00  0.140382D+00
  0.364300D+00  0.598684D+00
  0.128500D+00  0.395389D+00
   s     1 1.00
  0.905900D+00  0.100000D+01
   s     1 1.00
  0.364300D+00  0.100000D+01
   p     5 1.00
  0.187100D+02  0.140310D-01
  0.413300D+01  0.868660D-01
  0.120000D+01  0.290216D+00
  0.382700D+00  0.501008D+00
  0.120900D+00  0.343406D+00
   p     1 1.00
  0.382700D+00  0.100000D+01
   p     1 1.00
  0.120900D+00  0.100000D+01
   d     1 1.00
  0.109700D+01  0.100000D+01
   d     1 1.00
  0.318000D+00  0.100000D+01
   f     1 1.00
  0.761000D+00  0.100000D+01
  
  5  0
   s    10 1.00
  0.823600D+04  0.531000D-03
  0.123500D+04  0.410800D-02
  0.280800D+03  0.210870D-01
  0.792700D+02  0.818530D-01
  0.255900D+02  0.234817D+00
  0.899700D+01  0.434401D+00
  0.331900D+01  0.346129D+00
  0.905900D+00  0.393780D-01
  0.364300D+00 -0.898300D-02
  0.128500D+00  0.238500D-02
   s    10 1.00
  0.823600D+04 -0.113000D-03
  0.123500D+04 -0.878000D-03
  0.280800D+03 -0.454000D-02
  0.792700D+02 -0.181330D-01
  0.255900D+02 -0.557600D-01
  0.899700D+01 -0.126895D+00
  0.331900D+01 -0.170352D+00
  0.905900D+00  0.140382D+00
  0.364300D+00  0.598684D+00
  0.128500D+00  0.395389D+00
   s     1 1.00
  0.905900D+00  0.100000D+01
   s     1 1.00
  0.364300D+00  0.100000D+01
   p     5 1.00
  0.187100D+02  0.140310D-01
  0.413300D+01  0.868660D-01
  0.120000D+01  0.290216D+00
  0.382700D+00  0.501008D+00
  0.120900D+00  0.343406D+00
   p     1 1.00
  0.382700D+00  0.100000D+01
   p     1 1.00
  0.120900D+00  0.100000D+01
   d     1 1.00
  0.109700D+01  0.100000D+01
   d     1 1.00
  0.318000D+00  0.100000D+01
   f     1 1.00
  0.761000D+00  0.100000D+01
  
  6  0
   s    10 1.00
  0.823600D+04  0.531000D-03
  0.123500D+04  0.410800D-02
  0.280800D+03  0.210870D-01
  0.792700D+02  0.818530D-01
  0.255900D+02  0.234817D+00
  0.899700D+01  0.434401D+00
  0.331900D+01  0.346129D+00
  0.905900D+00  0.393780D-01
  0.364300D+00 -0.898300D-02
  0.128500D+00  0.238500D-02
   s    10 1.00
  0.823600D+04 -0.113000D-03
  0.123500D+04 -0.878000D-03
  0.280800D+03 -0.454000D-02
  0.792700D+02 -0.181330D-01
  0.255900D+02 -0.557600D-01
  0.899700D+01 -0.126895D+00
  0.331900D+01 -0.170352D+00
  0.905900D+00  0.140382D+00
  0.364300D+00  0.598684D+00
  0.128500D+00  0.395389D+00
   s     1 1.00
  0.905900D+00  0.100000D+01
   s     1 1.00
  0.364300D+00  0.100000D+01
   p     5 1.00
  0.187100D+02  0.140310D-01
  0.413300D+01  0.868660D-01
  0.120000D+01  0.290216D+00
  0.382700D+00  0.501008D+00
  0.120900D+00  0.343406D+00
   p     1 1.00
  0.382700D+00  0.100000D+01
   p     1 1.00
  0.120900D+00  0.100000D+01
   d     1 1.00
  0.109700D+01  0.100000D+01
   d     1 1.00
  0.318000D+00  0.100000D+01
   f     1 1.00
  0.761000D+00  0.100000D+01
  
  7  0
   s    10 1.00
  0.823600D+04  0.531000D-03
  0.123500D+04  0.410800D-02
  0.280800D+03  0.210870D-01
  0.792700D+02  0.818530D-01
  0.255900D+02  0.234817D+00
  0.899700D+01  0.434401D+00
  0.331900D+01  0.346129D+00
  0.905900D+00  0.393780D-01
  0.364300D+00 -0.898300D-02
  0.128500D+00  0.238500D-02
   s    10 1.00
  0.823600D+04 -0.113000D-03
  0.123500D+04 -0.878000D-03
  0.280800D+03 -0.454000D-02
  0.792700D+02 -0.181330D-01
  0.255900D+02 -0.557600D-01
  0.899700D+01 -0.126895D+00
  0.331900D+01 -0.170352D+00
  0.905900D+00  0.140382D+00
  0.364300D+00  0.598684D+00
  0.128500D+00  0.395389D+00
   s     1 1.00
  0.905900D+00  0.100000D+01
   s     1 1.00
  0.364300D+00  0.100000D+01
   p     5 1.00
  0.187100D+02  0.140310D-01
  0.413300D+01  0.868660D-01
  0.120000D+01  0.290216D+00
  0.382700D+00  0.501008D+00
  0.120900D+00  0.343406D+00
   p     1 1.00
  0.382700D+00  0.100000D+01
   p     1 1.00
  0.120900D+00  0.100000D+01
   d     1 1.00
  0.109700D+01  0.100000D+01
   d     1 1.00
  0.318000D+00  0.100000D+01
   f     1 1.00
  0.761000D+00  0.100000D+01
  
  8  0
   s     4 1.00
  0.130100D+02  0.196850D-01
  0.196200D+01  0.137977D+00
  0.444600D+00  0.478148D+00
  0.122000D+00  0.501240D+00
   s     1 1.00
  0.122000D+00  0.100000D+01
   p     1 1.00
  0.727000D+00  0.100000D+01
  
  9  0
   s     4 1.00
  0.130100D+02  0.196850D-01
  0.196200D+01  0.137977D+00
  0.444600D+00  0.478148D+00
  0.122000D+00  0.501240D+00
   s     1 1.00
  0.122000D+00  0.100000D+01
   p     1 1.00
  0.727000D+00  0.100000D+01
  
 10  0
   s     4 1.00
  0.130100D+02  0.196850D-01
  0.196200D+01  0.137977D+00
  0.444600D+00  0.478148D+00
  0.122000D+00  0.501240D+00
   s     1 1.00
  0.122000D+00  0.100000D+01
   p     1 1.00
  0.727000D+00  0.100000D+01
  
 11  0
   s     4 1.00
  0.130100D+02  0.196850D-01
  0.196200D+01  0.137977D+00
  0.444600D+00  0.478148D+00
  0.122000D+00  0.501240D+00
   s     1 1.00
  0.122000D+00  0.100000D+01
   p     1 1.00
  0.727000D+00  0.100000D+01
  
 12  0
   s     4 1.00
  0.130100D+02  0.196850D-01
  0.196200D+01  0.137977D+00
  0.444600D+00  0.478148D+00
  0.122000D+00  0.501240D+00
   s     1 1.00
  0.122000D+00  0.100000D+01
   p     1 1.00
  0.727000D+00  0.100000D+01
  
 13  0
   s     4 1.00
  0.130100D+02  0.196850D-01
  0.196200D+01  0.137977D+00
  0.444600D+00  0.478148D+00
  0.122000D+00  0.501240D+00
   s     1 1.00
  0.122000D+00  0.100000D+01
   p     1 1.00
  0.727000D+00  0.100000D+01
  
 14  0
   s     4 1.00
  0.130100D+02  0.196850D-01
  0.196200D+01  0.137977D+00
  0.444600D+00  0.478148D+00
  0.122000D+00  0.501240D+00
   s     1 1.00
  0.122000D+00  0.100000D+01
   p     1 1.00
  0.727000D+00  0.100000D+01
  
[MO]
 Sym= __1_A__
 Ene=   1.00000000000000     
 Spin= Alpha
 Occup=    1.00000000000000     
                     1  2.221757164468982E-004
                     2  0.998066392724234     
                     3  4.235045613335956E-003
                     4  1.919408394273905E-003
                     5  5.409201459308931E-003
                     6  5.444757891038587E-003
                     7 -4.763656817131267E-003
                     8 -6.953774163557760E-009
                     9 -7.487198043199418E-004
                    10  2.359707210352192E-004
                    11  4.288329944616265E-009
                    12 -1.327608251994233E-003
                    13  3.096080622310773E-003
                    14 -1.267754077647761E-008
                    15 -5.228678991106564E-006
                    16 -8.847271886187095E-010
                    17  2.235196421603850E-010
                    18  8.033187272031829E-005
                    19  6.442712886044195E-005
                    20 -3.858944521332273E-004
                    21  3.027352794194615E-009
                    22  3.662628635331309E-009
                    23  4.653959378567604E-005
                    24 -4.858091027775100E-004
                    25  4.977337877863154E-009
                    26 -1.471104746747595E-004
                    27 -7.341329076024643E-005
                    28  8.037380530909101E-009
                    29 -1.904944605638633E-009
                    30 -9.874080631651926E-005
                    31 -5.940033177239753E-005
                    32 -3.916818626463052E-004
                    33  9.793023271856441E-004
                    34  2.412789288584712E-004
                    35 -1.121486381631993E-004
                    36 -4.525289526671541E-003
                    37 -1.982217332099631E-006
                    38  6.007934145970829E-009
                    39  2.025146190740500E-004
                    40 -1.216742476561140E-005
                    41 -4.336473362376027E-009
                    42  4.855289455665560E-003
                    43  7.825604302091026E-004
                    44  9.612024249350562E-008
                    45 -2.287002163908288E-004
                    46  3.853934351419773E-009
                    47 -1.043275728899021E-010
                    48  2.103260465884532E-004
                    49  4.775432280092486E-005
                    50  4.613119352084797E-004
                    51 -2.839455655503322E-008
                    52 -3.205137491636521E-010
                    53 -4.598930129857430E-005
                    54 -3.539122012281229E-004
                    55 -6.757310635493192E-009
                    56 -6.248877534253880E-005
                    57  1.124938008286372E-005
                    58 -4.315639751763218E-009
                    59  5.020584865461134E-010
                    60 -3.487813950720866E-005
                    61  3.637667416657440E-005
                    62 -3.564014225199617E-004
                    63 -1.812244144625271E-003
                    64  9.676835944813809E-005
                    65  8.392032684392695E-004
                    66  6.117089375338806E-004
                    67 -8.754570543663783E-005
                    68 -6.046757562372739E-004
                    69  5.963864819021141E-004
                    70  8.410670735845620E-005
                    71  1.113649189778041E-004
                    72 -4.728118074957253E-004
                    73 -3.566801487717224E-004
                    74 -7.956416396006903E-004
                    75 -7.616233798763410E-005
                    76 -1.269658775301524E-005
                    77  1.829447353883082E-005
                    78  6.271546982613869E-005
                    79 -9.660821902817626E-006
                    80  1.796176749859586E-004
                    81  1.854451819993955E-004
                    82 -2.694339794096065E-005
                    83 -1.179654390986321E-004
                    84  5.442777164516897E-005
                    85 -7.857186812531206E-006
                    86 -5.589778459434442E-005
                    87  2.118950589270314E-005
                    88 -1.164062111545181E-005
                    89  1.299678736778575E-005
                    90 -4.632609668819559E-005
                    91 -1.135333527976280E-005
                    92 -3.563853145350309E-004
                    93 -1.812181067161273E-003
                    94  9.682981375494748E-005
                    95  8.390009582173153E-004
                    96  6.117439658730840E-004
                    97 -8.754547020876602E-005
                    98  6.046796603219651E-004
                    99  5.961947155965002E-004
                   100  8.410608036201329E-005
                   101 -1.113958656755555E-004
                   102 -4.726137410212037E-004
                   103 -3.566798264548799E-004
                   104  7.954474844298000E-004
                   105 -7.615655911860834E-005
                   106  1.270260624094727E-005
                   107 -1.829434035130598E-005
                   108  6.270458866714330E-005
                   109 -9.660764218617520E-006
                   110  1.797117453431890E-004
                   111 -1.855073976780463E-004
                   112  2.694329166612944E-005
                   113 -1.180803527876714E-004
                   114  5.442625602286857E-005
                   115  7.860880460298246E-006
                   116 -5.587914841544189E-005
                   117  2.118940162455361E-005
                   118  1.164286979341454E-005
                   119 -1.299679366410223E-005
                   120 -4.630779766777664E-005
                   121 -1.135350897329112E-005
                   122 -1.874396904427518E-004
                   123 -2.922049710084055E-004
                   124  5.346347455301415E-005
                   125  5.419456460827478E-004
                   126 -5.637966432390536E-004
                   127 -3.296454075057629E-005
                   128  2.501505502561018E-005
                   129  2.238304778972507E-004
                   130 -2.542347855762202E-005
                   131  9.018300434213812E-006
                   132  8.431511771957146E-004
                   133  1.562660949274350E-004
                   134 -2.709749417070361E-004
                   135  4.220989862340456E-006
                   136 -1.667704453317390E-008
                   137 -3.915730448651097E-006
                   138  2.912378319011952E-007
                   139  9.140829679806778E-006
                   140  7.489387821377287E-005
                   141  1.917805255715508E-004
                   142  8.757591025224671E-006
                   143 -1.828933421747765E-004
                   144 -1.536456991883937E-005
                   145 -1.106248480071162E-005
                   146 -1.488400008895966E-005
                   147  2.576372472721349E-006
                   148 -4.158271316321854E-006
                   149 -1.685748715641749E-006
                   150 -4.459720185017297E-005
                   151 -1.507445513150053E-006
                   152 -1.876708678902388E-004
                   153 -2.930147320235042E-004
                   154  5.327125345812210E-005
                   155  5.432669737824742E-004
                   156 -5.637943474580043E-004
                   157 -3.296445470540604E-005
                   158 -2.498711931223049E-005
                   159  2.237640207996026E-004
                   160 -2.542375231300694E-005
                   161 -9.204582853122463E-006
                   162  8.433326466581551E-004
                   163  1.562667519017965E-004
                   164  2.711689224313983E-004
                   165  4.231512423523273E-006
                   166  1.262784977265308E-008
                   167  3.915322159858498E-006
                   168  3.202432854433520E-007
                   169  9.140926743893303E-006
                   170  7.490459206687154E-005
                   171 -1.919056506736047E-004
                   172 -8.757168287670386E-006
                   173 -1.828525486631202E-004
                   174 -1.536554285966011E-005
                   175  1.106457067051793E-005
                   176 -1.484311454731295E-005
                   177  2.576310590374537E-006
                   178  4.154600125878514E-006
                   179  1.685855422619340E-006
                   180 -4.458450440315975E-005
                   181 -1.507445528480861E-006
                   182 -1.241713448106087E-004
                   183 -3.843045122030689E-004
                   184  2.704278514481028E-005
                   185  1.494256972330964E-004
                   186 -1.638375347779936E-005
                   187 -4.313931300336921E-005
                   188  4.007361896602780E-008
                   189  9.419890029023628E-005
                   190  2.207898833721468E-005
                   191 -2.171333089539801E-007
                   192 -3.650947744706435E-004
                   193 -1.098786828698528E-004
                   194 -7.095547895889809E-008
                   195 -1.045585680582401E-005
                   196  1.213052776140650E-008
                   197 -2.702876037204616E-011
                   198  4.187208292717768E-006
                   199 -2.384250594695793E-006
                   200 -1.134086590747052E-004
                   201  1.066871301873823E-007
                   202  7.756005277588020E-010
                   203  6.387260512049858E-005
                   204  1.703368829528793E-005
                   205  8.173008447008907E-009
                   206  8.961715976778298E-007
                   207  3.133962617610174E-006
                   208 -9.976728642147193E-009
                   209 -1.194389781413039E-010
                   210 -5.628434583065554E-006
                   211 -2.630447750289118E-006
                   212  2.869810106164575E-003
                   213 -2.235247381047782E-003
                   214  1.886826442116212E-004
                   215  3.024969065653781E-004
                   216  3.760961421550800E-004
                   217  2.869821589046758E-003
                   218 -2.235256184092252E-003
                   219  1.886872703929996E-004
                   220  3.024994954179423E-004
                   221 -3.761014622195295E-004
                   222 -5.100702025611500E-004
                   223 -3.067119758965123E-004
                   224 -6.126124204664467E-005
                   225  1.012467508906123E-005
                   226  3.734683996593566E-005
                   227 -5.100965049124945E-004
                   228 -3.065467298569143E-004
                   229 -6.126826144003814E-005
                   230  1.012459744621338E-005
                   231 -3.735148072315824E-005
                   232 -1.218900942388446E-004
                   233 -4.678742381891048E-004
                   234  5.063339833282979E-006
                   235 -1.595016675230531E-006
                   236 -9.562052077701576E-006
                   237 -1.219091979909536E-004
                   238 -4.679527190105352E-004
                   239  5.085468245237453E-006
                   240 -1.594986304608325E-006
                   241  9.581474337725033E-006
                   242  2.019542725147193E-005
                   243  1.154990113861895E-004
                   244  2.969743297891054E-005
                   245  1.807863983082997E-006
                   246 -1.026625097179032E-008
 Sym= __2_A__
 Ene=   2.00000000000000     
 Spin= Alpha
 Occup=    1.00000000000000     
                     1 -2.147632694068354E-005
                     2 -8.373177985613961E-005
                     3  1.979478099725223E-003
                     4 -1.224934833366215E-005
                     5  1.249223499554224E-003
                     6  1.961730934947092E-003
                     7  3.141420407010568E-004
                     8  4.715676828223936E-009
                     9 -1.487971154764286E-004
                    10  9.870316104334699E-005
                    11 -2.644738091350736E-009
                    12  3.362899753893284E-005
                    13  4.127252594018793E-005
                    14  4.147862539863947E-009
                    15 -7.308526280833863E-005
                    16  6.345438211149088E-010
                    17 -1.345624916809765E-010
                    18  3.959819875173742E-005
                    19 -3.056202600093062E-006
                    20  1.892758628843656E-004
                    21 -5.395099330297717E-009
                    22 -2.293073814424798E-009
                    23  9.704745603994220E-005
                    24 -3.929671851219956E-005
                    25 -3.255026065815317E-009
                    26  1.399896395664097E-004
                    27 -5.827962323780344E-005
                    28 -5.302308278140074E-009
                    29  1.175853733520055E-009
                    30  1.284635997524087E-004
                    31  3.607253403892702E-005
                    32   1.00097107068275     
                    33  8.779180331038076E-003
                    34  2.779788483572472E-003
                    35 -8.213433789563823E-003
                    36 -2.615932060538072E-003
                    37  7.085406256497559E-004
                    38 -5.346392199083716E-009
                    39  1.098186210773615E-003
                    40 -2.278670642445858E-004
                    41  1.172374502650316E-009
                    42  3.478801782303732E-003
                    43 -1.295668173449905E-004
                    44 -5.136543227648392E-008
                    45  2.960286989994942E-004
                    46 -1.598614959959009E-009
                    47  3.224033398939416E-010
                    48  4.206878676333512E-004
                    49 -2.518419800718542E-005
                    50 -1.048741915174964E-003
                    51  5.688120845036092E-010
                    52 -7.821848927817927E-010
                    53 -1.096734985129281E-004
                    54  3.279642551020971E-005
                    55  3.234509386246557E-009
                    56  3.135892269068733E-004
                    57 -8.584189677608378E-006
                    58  1.906957663084530E-009
                    59 -4.530595092583461E-010
                    60  8.263205610636141E-005
                    61  1.911552769419661E-005
                    62  1.237176374039151E-002
                    63 -1.866982747531082E-003
                    64 -3.129855448330956E-004
                    65  3.155114945410069E-003
                    66 -1.466655823122487E-004
                    67  1.273446843087961E-004
                    68  2.565891742698350E-004
                    69  2.822276824183128E-005
                    70  2.401112673894938E-006
                    71  5.205640157740733E-004
                    72  1.557429071436333E-004
                    73 -3.284263727657209E-005
                    74 -1.844556241256242E-003
                    75 -1.030069364825888E-005
                    76  2.470912961529540E-005
                    77  8.748381114624024E-006
                    78 -3.580603427628194E-005
                    79 -4.944492664160754E-006
                    80 -4.199087070349421E-004
                    81 -4.695836079381005E-004
                    82  8.672545306824644E-007
                    83  7.613928168948060E-004
                    84 -2.142877357642301E-006
                    85  5.112808707926042E-005
                    86  1.075186155985045E-004
                    87  5.890016460239592E-007
                    88 -1.636678782657631E-005
                    89 -6.886717667843534E-006
                    90 -2.956775387841075E-005
                    91  5.133436216987434E-006
                    92  1.237175626365277E-002
                    93 -1.867031558525916E-003
                    94 -3.130131439402822E-004
                    95  3.155237043148243E-003
                    96 -1.466801484645014E-004
                    97  1.273446461172076E-004
                    98 -2.565896291946640E-004
                    99  2.829911093372641E-005
                   100  2.400769260161191E-006
                   101 -5.205637746832416E-004
                   102  1.556375167731404E-004
                   103 -3.284192889838408E-005
                   104  1.844636815685832E-003
                   105 -1.030438069592036E-005
                   106 -2.471240698625566E-005
                   107 -8.748446081437576E-006
                   108 -3.579834706483826E-005
                   109 -4.944486727456375E-006
                   110 -4.199394062916926E-004
                   111  4.696154449378707E-004
                   112 -8.679477024255013E-007
                   113  7.614245723824562E-004
                   114 -2.143357125373487E-006
                   115 -5.112892272023841E-005
                   116  1.075109642258102E-004
                   117  5.893778004179167E-007
                   118  1.636625848275721E-005
                   119  6.886976037152350E-006
                   120 -2.957430145289896E-005
                   121  5.133343893290241E-006
                   122 -1.488211568878985E-004
                   123 -7.137005881339341E-004
                   124  2.527823257524122E-004
                   125 -3.236419551242581E-004
                   126 -1.905238340592578E-004
                   127  2.366943484400744E-005
                   128 -4.285563371918121E-005
                   129  6.005705511867473E-004
                   130 -1.627360769014826E-006
                   131  4.075873401166270E-005
                   132  5.773464728413964E-004
                   133  2.498932690877536E-006
                   134  3.434630021548968E-004
                   135 -3.310193204648740E-008
                   136  4.193358996915589E-005
                   137  1.881981561811367E-007
                   138 -3.400492137349238E-005
                   139 -1.558714122593340E-006
                   140  1.946491930597003E-004
                   141 -2.630579690211535E-004
                   142  1.473507880616691E-006
                   143 -2.660817098695448E-004
                   144 -4.540667983497726E-006
                   145 -1.782655300439513E-005
                   146  1.310927955320949E-005
                   147  1.602502867489978E-007
                   148 -1.289602176264764E-005
                   149 -1.994982543715982E-006
                   150 -2.566853074052162E-005
                   151 -5.794227852476428E-007
                   152 -1.486346770933211E-004
                   153 -7.130737189628580E-004
                   154  2.528344082026796E-004
                   155 -3.243430006422035E-004
                   156 -1.905241658406827E-004
                   157  2.366991951052431E-005
                   158  4.284684821347394E-005
                   159  6.005941837304843E-004
                   160 -1.628607289338985E-006