[Molden Format]
[Atoms] AU
  N     1    7    -4.4519150800    0.1645695100   -0.0000004400        
  C     2    6    -1.7695092000   -0.0145096000   -0.0000001700        
  C     3    6    -0.4270927200   -0.0061402300   -2.2691546100        
  C     4    6    -0.4270931100   -0.0061391100    2.2691544900        
  C     5    6     2.1889955900   -0.0004823800   -2.2566388900        
  C     6    6     2.1889952100   -0.0004812700    2.2566392100        
  C     7    6     3.5149715000    0.0022090000    0.0000002700        
  H     8    1    -5.1855378300   -0.7126266600   -1.5571957100        
  H     9    1    -5.1855380900   -0.7126258900    1.5571951400        
  H    10    1    -1.4305344500   -0.0005073500   -4.0318143700        
  H    11    1    -1.4305351200   -0.0005053700    4.0318140800        
  H    12    1     3.1914120400   -0.0010699000   -4.0209976100        
  H    13    1     3.1914113700   -0.0010679200    4.0209980900        
  H    14    1     5.5428332300    0.0050250700    0.0000004400        
[5D]
[7F]
[GTO]
  1  0
   s    12 1.00
  0.114200D+05  0.172695D-04
  0.171200D+04  0.134411D-03
  0.389300D+03  0.694561D-03
  0.110000D+03  0.278531D-02
  0.355700D+02  0.863457D-02
  0.125400D+02  0.199805D-01
  0.464400D+01  0.262908D-01
  0.129300D+01 -0.243845D-01
  0.511800D+00 -0.924934D-01
  0.178700D+00 -0.339683D+00
  0.246240D-01  0.345111D+00
  0.112530D-01  0.752750D+00
   s    10 1.00
  0.114200D+05  0.523000D-03
  0.171200D+04  0.404500D-02
  0.389300D+03  0.207750D-01
  0.110000D+03  0.807269D-01
  0.355700D+02  0.233074D+00
  0.125400D+02  0.433501D+00
  0.464400D+01  0.347472D+00
  0.129300D+01  0.412620D-01
  0.511800D+00 -0.850799D-02
  0.178700D+00  0.238400D-02
   s    10 1.00
  0.114200D+05 -0.115000D-03
  0.171200D+04 -0.895000D-03
  0.389300D+03 -0.462400D-02
  0.110000D+03 -0.185280D-01
  0.355700D+02 -0.573390D-01
  0.125400D+02 -0.132076D+00
  0.464400D+01 -0.172510D+00
  0.129300D+01  0.151814D+00
  0.511800D+00  0.599944D+00
  0.178700D+00  0.387462D+00
   s     1 1.00
  0.129300D+01  0.100000D+01
   s     1 1.00
  0.178700D+00  0.100000D+01
   p     5 1.00
  0.266300D+02  0.146700D-01
  0.594800D+01  0.917640D-01
  0.174200D+01  0.298683D+00
  0.555000D+00  0.498487D+00
  0.172500D+00  0.337023D+00
   p     1 1.00
  0.174200D+01  0.100000D+01
   p     1 1.00
  0.555000D+00  0.100000D+01
   d     1 1.00
  0.165400D+01  0.100000D+01
   d     1 1.00
  0.469000D+00  0.100000D+01
   f     1 1.00
  0.109300D+01  0.100000D+01
  
  2  0
   s    10 1.00
  0.823600D+04  0.531000D-03
  0.123500D+04  0.410800D-02
  0.280800D+03  0.210870D-01
  0.792700D+02  0.818530D-01
  0.255900D+02  0.234817D+00
  0.899700D+01  0.434401D+00
  0.331900D+01  0.346129D+00
  0.905900D+00  0.393780D-01
  0.364300D+00 -0.898300D-02
  0.128500D+00  0.238500D-02
   s    10 1.00
  0.823600D+04 -0.113000D-03
  0.123500D+04 -0.878000D-03
  0.280800D+03 -0.454000D-02
  0.792700D+02 -0.181330D-01
  0.255900D+02 -0.557600D-01
  0.899700D+01 -0.126895D+00
  0.331900D+01 -0.170352D+00
  0.905900D+00  0.140382D+00
  0.364300D+00  0.598684D+00
  0.128500D+00  0.395389D+00
   s     1 1.00
  0.905900D+00  0.100000D+01
   s     1 1.00
  0.364300D+00  0.100000D+01
   p     5 1.00
  0.187100D+02  0.140310D-01
  0.413300D+01  0.868660D-01
  0.120000D+01  0.290216D+00
  0.382700D+00  0.501008D+00
  0.120900D+00  0.343406D+00
   p     1 1.00
  0.382700D+00  0.100000D+01
   p     1 1.00
  0.120900D+00  0.100000D+01
   d     1 1.00
  0.109700D+01  0.100000D+01
   d     1 1.00
  0.318000D+00  0.100000D+01
   f     1 1.00
  0.761000D+00  0.100000D+01
  
  3  0
   s    10 1.00
  0.823600D+04  0.531000D-03
  0.123500D+04  0.410800D-02
  0.280800D+03  0.210870D-01
  0.792700D+02  0.818530D-01
  0.255900D+02  0.234817D+00
  0.899700D+01  0.434401D+00
  0.331900D+01  0.346129D+00
  0.905900D+00  0.393780D-01
  0.364300D+00 -0.898300D-02
  0.128500D+00  0.238500D-02
   s    10 1.00
  0.823600D+04 -0.113000D-03
  0.123500D+04 -0.878000D-03
  0.280800D+03 -0.454000D-02
  0.792700D+02 -0.181330D-01
  0.255900D+02 -0.557600D-01
  0.899700D+01 -0.126895D+00
  0.331900D+01 -0.170352D+00
  0.905900D+00  0.140382D+00
  0.364300D+00  0.598684D+00
  0.128500D+00  0.395389D+00
   s     1 1.00
  0.905900D+00  0.100000D+01
   s     1 1.00
  0.364300D+00  0.100000D+01
   p     5 1.00
  0.187100D+02  0.140310D-01
  0.413300D+01  0.868660D-01
  0.120000D+01  0.290216D+00
  0.382700D+00  0.501008D+00
  0.120900D+00  0.343406D+00
   p     1 1.00
  0.382700D+00  0.100000D+01
   p     1 1.00
  0.120900D+00  0.100000D+01
   d     1 1.00
  0.109700D+01  0.100000D+01
   d     1 1.00
  0.318000D+00  0.100000D+01
   f     1 1.00
  0.761000D+00  0.100000D+01
  
  4  0
   s    10 1.00
  0.823600D+04  0.531000D-03
  0.123500D+04  0.410800D-02
  0.280800D+03  0.210870D-01
  0.792700D+02  0.818530D-01
  0.255900D+02  0.234817D+00
  0.899700D+01  0.434401D+00
  0.331900D+01  0.346129D+00
  0.905900D+00  0.393780D-01
  0.364300D+00 -0.898300D-02
  0.128500D+00  0.238500D-02
   s    10 1.00
  0.823600D+04 -0.113000D-03
  0.123500D+04 -0.878000D-03
  0.280800D+03 -0.454000D-02
  0.792700D+02 -0.181330D-01
  0.255900D+02 -0.557600D-01
  0.899700D+01 -0.126895D+00
  0.331900D+01 -0.170352D+00
  0.905900D+00  0.140382D+00
  0.364300D+00  0.598684D+00
  0.128500D+00  0.395389D+00
   s     1 1.00
  0.905900D+00  0.100000D+01
   s     1 1.00
  0.364300D+00  0.100000D+01
   p     5 1.00
  0.187100D+02  0.140310D-01
  0.413300D+01  0.868660D-01
  0.120000D+01  0.290216D+00
  0.382700D+00  0.501008D+00
  0.120900D+00  0.343406D+00
   p     1 1.00
  0.382700D+00  0.100000D+01
   p     1 1.00
  0.120900D+00  0.100000D+01
   d     1 1.00
  0.109700D+01  0.100000D+01
   d     1 1.00
  0.318000D+00  0.100000D+01
   f     1 1.00
  0.761000D+00  0.100000D+01
  
  5  0
   s    10 1.00
  0.823600D+04  0.531000D-03
  0.123500D+04  0.410800D-02
  0.280800D+03  0.210870D-01
  0.792700D+02  0.818530D-01
  0.255900D+02  0.234817D+00
  0.899700D+01  0.434401D+00
  0.331900D+01  0.346129D+00
  0.905900D+00  0.393780D-01
  0.364300D+00 -0.898300D-02
  0.128500D+00  0.238500D-02
   s    10 1.00
  0.823600D+04 -0.113000D-03
  0.123500D+04 -0.878000D-03
  0.280800D+03 -0.454000D-02
  0.792700D+02 -0.181330D-01
  0.255900D+02 -0.557600D-01
  0.899700D+01 -0.126895D+00
  0.331900D+01 -0.170352D+00
  0.905900D+00  0.140382D+00
  0.364300D+00  0.598684D+00
  0.128500D+00  0.395389D+00
   s     1 1.00
  0.905900D+00  0.100000D+01
   s     1 1.00
  0.364300D+00  0.100000D+01
   p     5 1.00
  0.187100D+02  0.140310D-01
  0.413300D+01  0.868660D-01
  0.120000D+01  0.290216D+00
  0.382700D+00  0.501008D+00
  0.120900D+00  0.343406D+00
   p     1 1.00
  0.382700D+00  0.100000D+01
   p     1 1.00
  0.120900D+00  0.100000D+01
   d     1 1.00
  0.109700D+01  0.100000D+01
   d     1 1.00
  0.318000D+00  0.100000D+01
   f     1 1.00
  0.761000D+00  0.100000D+01
  
  6  0
   s    10 1.00
  0.823600D+04  0.531000D-03
  0.123500D+04  0.410800D-02
  0.280800D+03  0.210870D-01
  0.792700D+02  0.818530D-01
  0.255900D+02  0.234817D+00
  0.899700D+01  0.434401D+00
  0.331900D+01  0.346129D+00
  0.905900D+00  0.393780D-01
  0.364300D+00 -0.898300D-02
  0.128500D+00  0.238500D-02
   s    10 1.00
  0.823600D+04 -0.113000D-03
  0.123500D+04 -0.878000D-03
  0.280800D+03 -0.454000D-02
  0.792700D+02 -0.181330D-01
  0.255900D+02 -0.557600D-01
  0.899700D+01 -0.126895D+00
  0.331900D+01 -0.170352D+00
  0.905900D+00  0.140382D+00
  0.364300D+00  0.598684D+00
  0.128500D+00  0.395389D+00
   s     1 1.00
  0.905900D+00  0.100000D+01
   s     1 1.00
  0.364300D+00  0.100000D+01
   p     5 1.00
  0.187100D+02  0.140310D-01
  0.413300D+01  0.868660D-01
  0.120000D+01  0.290216D+00
  0.382700D+00  0.501008D+00
  0.120900D+00  0.343406D+00
   p     1 1.00
  0.382700D+00  0.100000D+01
   p     1 1.00
  0.120900D+00  0.100000D+01
   d     1 1.00
  0.109700D+01  0.100000D+01
   d     1 1.00
  0.318000D+00  0.100000D+01
   f     1 1.00
  0.761000D+00  0.100000D+01
  
  7  0
   s    10 1.00
  0.823600D+04  0.531000D-03
  0.123500D+04  0.410800D-02
  0.280800D+03  0.210870D-01
  0.792700D+02  0.818530D-01
  0.255900D+02  0.234817D+00
  0.899700D+01  0.434401D+00
  0.331900D+01  0.346129D+00
  0.905900D+00  0.393780D-01
  0.364300D+00 -0.898300D-02
  0.128500D+00  0.238500D-02
   s    10 1.00
  0.823600D+04 -0.113000D-03
  0.123500D+04 -0.878000D-03
  0.280800D+03 -0.454000D-02
  0.792700D+02 -0.181330D-01
  0.255900D+02 -0.557600D-01
  0.899700D+01 -0.126895D+00
  0.331900D+01 -0.170352D+00
  0.905900D+00  0.140382D+00
  0.364300D+00  0.598684D+00
  0.128500D+00  0.395389D+00
   s     1 1.00
  0.905900D+00  0.100000D+01
   s     1 1.00
  0.364300D+00  0.100000D+01
   p     5 1.00
  0.187100D+02  0.140310D-01
  0.413300D+01  0.868660D-01
  0.120000D+01  0.290216D+00
  0.382700D+00  0.501008D+00
  0.120900D+00  0.343406D+00
   p     1 1.00
  0.382700D+00  0.100000D+01
   p     1 1.00
  0.120900D+00  0.100000D+01
   d     1 1.00
  0.109700D+01  0.100000D+01
   d     1 1.00
  0.318000D+00  0.100000D+01
   f     1 1.00
  0.761000D+00  0.100000D+01
  
  8  0
   s     4 1.00
  0.130100D+02  0.196850D-01
  0.196200D+01  0.137977D+00
  0.444600D+00  0.478148D+00
  0.122000D+00  0.501240D+00
   s     1 1.00
  0.122000D+00  0.100000D+01
   p     1 1.00
  0.727000D+00  0.100000D+01
  
  9  0
   s     4 1.00
  0.130100D+02  0.196850D-01
  0.196200D+01  0.137977D+00
  0.444600D+00  0.478148D+00
  0.122000D+00  0.501240D+00
   s     1 1.00
  0.122000D+00  0.100000D+01
   p     1 1.00
  0.727000D+00  0.100000D+01
  
 10  0
   s     4 1.00
  0.130100D+02  0.196850D-01
  0.196200D+01  0.137977D+00
  0.444600D+00  0.478148D+00
  0.122000D+00  0.501240D+00
   s     1 1.00
  0.122000D+00  0.100000D+01
   p     1 1.00
  0.727000D+00  0.100000D+01
  
 11  0
   s     4 1.00
  0.130100D+02  0.196850D-01
  0.196200D+01  0.137977D+00
  0.444600D+00  0.478148D+00
  0.122000D+00  0.501240D+00
   s     1 1.00
  0.122000D+00  0.100000D+01
   p     1 1.00
  0.727000D+00  0.100000D+01
  
 12  0
   s     4 1.00
  0.130100D+02  0.196850D-01
  0.196200D+01  0.137977D+00
  0.444600D+00  0.478148D+00
  0.122000D+00  0.501240D+00
   s     1 1.00
  0.122000D+00  0.100000D+01
   p     1 1.00
  0.727000D+00  0.100000D+01
  
 13  0
   s     4 1.00
  0.130100D+02  0.196850D-01
  0.196200D+01  0.137977D+00
  0.444600D+00  0.478148D+00
  0.122000D+00  0.501240D+00
   s     1 1.00
  0.122000D+00  0.100000D+01
   p     1 1.00
  0.727000D+00  0.100000D+01
  
 14  0
   s     4 1.00
  0.130100D+02  0.196850D-01
  0.196200D+01  0.137977D+00
  0.444600D+00  0.478148D+00
  0.122000D+00  0.501240D+00
   s     1 1.00
  0.122000D+00  0.100000D+01
   p     1 1.00
  0.727000D+00  0.100000D+01
  
[MO]
 Sym= __1_A__
 Ene=  0.000000000000000E+000
 Spin= Alpha
 Occup=    2.00000000000000     
                     1  2.221757165798987E-004
                     2  0.998066392724013     
                     3  4.235045614074967E-003
                     4  1.919408394261077E-003
                     5  5.409201458897423E-003
                     6  5.444757890740822E-003
                     7 -4.763656816536457E-003
                     8 -6.953751876031327E-009
                     9 -7.487198041981965E-004
                    10  2.359707209359511E-004
                    11  4.288335811249820E-009
                    12 -1.327608252064892E-003
                    13  3.096080622254568E-003
                    14 -1.267753040719496E-008
                    15 -5.228678992811176E-006
                    16 -8.847021387155938E-010
                    17  2.235240646646477E-010
                    18  8.033187275385934E-005
                    19  6.442712887038695E-005
                    20 -3.858944521876854E-004
                    21  3.027438077549598E-009
                    22  3.662621468027495E-009
                    23  4.653959394555466E-005
                    24 -4.858091027872448E-004
                    25  4.977349098193546E-009
                    26 -1.471104746766792E-004
                    27 -7.341329076713191E-005
                    28  8.037395322441418E-009
                    29 -1.904949887728250E-009
                    30 -9.874080634795184E-005
                    31 -5.940033177798707E-005
                    32 -3.916818558576980E-004
                    33  9.793023447767770E-004
                    34  2.412789287479875E-004
                    35 -1.121486394624283E-004
                    36 -4.525289521427408E-003
                    37 -1.982216973023303E-006
                    38  6.011788377723660E-009
                    39  2.025146190133477E-004
                    40 -1.216742479401473E-005
                    41 -4.336597525185070E-009
                    42  4.855289457425522E-003
                    43  7.825604302870745E-004
                    44  9.611963680278414E-008
                    45 -2.287002158245613E-004
                    46  3.854032878908695E-009
                    47 -1.043242367252585E-010
                    48  2.103260465750632E-004
                    49  4.775432280253293E-005
                    50  4.613119355266744E-004
                    51 -2.839440239723056E-008
                    52 -3.205245985569567E-010
                    53 -4.598930086892236E-005
                    54 -3.539122011960442E-004
                    55 -6.757349609975117E-009
                    56 -6.248877504497778E-005
                    57  1.124938008988873E-005
                    58 -4.315626248592032E-009
                    59  5.020575521049316E-010
                    60 -3.487813949247887E-005
                    61  3.637667418169310E-005
                    62 -3.564014232145055E-004
                    63 -1.812244142046372E-003
                    64  9.676835944469996E-005
                    65  8.392032687879836E-004
                    66  6.117089246503070E-004
                    67 -8.754570526657591E-005
                    68 -6.046757556514218E-004
                    69  5.963864834328394E-004
                    70  8.410670735309766E-005
                    71  1.113649191136149E-004
                    72 -4.728118049734916E-004
                    73 -3.566801488173028E-004
                    74 -7.956416424198114E-004
                    75 -7.616233757277687E-005
                    76 -1.269658771281875E-005
                    77  1.829447354463461E-005
                    78  6.271546964982914E-005
                    79 -9.660821907625236E-006
                    80  1.796176748419235E-004
                    81  1.854451813621865E-004
                    82 -2.694339794483442E-005
                    83 -1.179654389476185E-004
                    84  5.442777166871653E-005
                    85 -7.857186805222278E-006
                    86 -5.589778466280174E-005
                    87  2.118950589285799E-005
                    88 -1.164062107389186E-005
                    89  1.299678736832912E-005
                    90 -4.632609661446768E-005
                    91 -1.135333527937978E-005
                    92 -3.563853156054567E-004
                    93 -1.812181064278633E-003
                    94  9.682981377305357E-005
                    95  8.390009582822772E-004
                    96  6.117439491918179E-004
                    97 -8.754547005788685E-005
                    98  6.046796553391069E-004
                    99  5.961947172506214E-004
                   100  8.410608037160332E-005
                   101 -1.113958654270545E-004
                   102 -4.726137373563245E-004
                   103 -3.566798265051571E-004
                   104  7.954474873909772E-004
                   105 -7.615655864026437E-005
                   106  1.270260645164252E-005
                   107 -1.829434035683070E-005
                   108  6.270458845672833E-005
                   109 -9.660764223642235E-006
                   110  1.797117453856182E-004
                   111 -1.855073970323285E-004
                   112  2.694329166725932E-005
                   113 -1.180803526889180E-004
                   114  5.442625604398915E-005
                   115  7.860880475354827E-006
                   116 -5.587914849212631E-005
                   117  2.118940162529942E-005
                   118  1.164286973258372E-005
                   119 -1.299679366367703E-005
                   120 -4.630779756177215E-005
                   121 -1.135350897305386E-005
                   122 -1.874396905906382E-004
                   123 -2.922049761643108E-004
                   124  5.346347478551553E-005
                   125  5.419456460324590E-004
                   126 -5.637966338438657E-004
                   127 -3.296454072623345E-005
                   128  2.501505983137108E-005
                   129  2.238304776803339E-004
                   130 -2.542347856622170E-005
                   131  9.018300120288026E-006
                   132  8.431511765236630E-004
                   133  1.562660949242949E-004
                   134 -2.709749423389794E-004
                   135  4.220990066964824E-006
                   136 -1.667690556137391E-008
                   137 -3.915730449999870E-006
                   138  2.912376024854376E-007
                   139  9.140829674841876E-006
                   140  7.489387872152453E-005
                   141  1.917805253554497E-004
                   142  8.757591026418655E-006
                   143 -1.828933426200781E-004
                   144 -1.536456992376223E-005
                   145 -1.106248479880102E-005
                   146 -1.488400015226000E-005
                   147  2.576372472521053E-006
                   148 -4.158271286573452E-006
                   149 -1.685748716739795E-006
                   150 -4.459720196333552E-005
                   151 -1.507445512519313E-006
                   152 -1.876708679855384E-004
                   153 -2.930147379905375E-004
                   154  5.327125371024827E-005
                   155  5.432669738960550E-004
                   156 -5.637943352099459E-004
                   157 -3.296445468325645E-005
                   158 -2.498711805184582E-005
                   159  2.237640201517120E-004
                   160 -2.542375232279920E-005
                   161 -9.204583199869797E-006
                   162  8.433326458832335E-004
                   163  1.562667519061037E-004
                   164  2.711689228748089E-004
                   165  4.231512734602705E-006
                   166  1.262795926650595E-008
                   167  3.915322161421958E-006
                   168  3.202429839673634E-007
                   169  9.140926738852657E-006
                   170  7.490459242663142E-005
                   171 -1.919056506029526E-004
                   172 -8.757168290377503E-006
                   173 -1.828525491583439E-004
                   174 -1.536554286661889E-005
                   175  1.106457066006481E-005
                   176 -1.484311464623265E-005
                   177  2.576310590222554E-006
                   178  4.154600118616234E-006
                   179  1.685855423882180E-006
                   180 -4.458450453471084E-005
                   181 -1.507445527998449E-006
                   182 -1.241713450284058E-004
                   183 -3.843045074223930E-004
                   184  2.704278506660507E-005
                   185  1.494256973312007E-004
                   186 -1.638375653057043E-005
                   187 -4.313931308658068E-005
                   188  4.007133415724768E-008
                   189  9.419890060598032E-005
                   190  2.207898833471591E-005
                   191 -2.171332651813441E-007
                   192 -3.650947752644675E-004
                   193 -1.098786828945974E-004
                   194 -7.095523134769446E-008
                   195 -1.045585650747165E-005
                   196  1.213063469412368E-008
                   197 -2.702852145420075E-011
                   198  4.187208208790748E-006
                   199 -2.384250594737919E-006
                   200 -1.134086586434610E-004
                   201  1.066872674902667E-007
                   202  7.756003352205338E-010
                   203  6.387260515482174E-005
                   204  1.703368829601507E-005
                   205  8.172996570715135E-009
                   206  8.961714609790055E-007
                   207  3.133962616726265E-006
                   208 -9.976753143922719E-009
                   209 -1.194390348551874E-010
                   210 -5.628434597609570E-006
                   211 -2.630447750502271E-006
                   212  2.869810106856602E-003
                   213 -2.235247380692429E-003
                   214  1.886826442168708E-004
                   215  3.024969065881554E-004
                   216  3.760961421608062E-004
                   217  2.869821589359599E-003
                   218 -2.235256183973856E-003
                   219  1.886872704041884E-004
                   220  3.024994954410715E-004
                   221 -3.761014622311846E-004
                   222 -5.100701943735472E-004
                   223 -3.067119797474626E-004
                   224 -6.126124195444709E-005
                   225  1.012467508749961E-005
                   226  3.734684043283690E-005
                   227 -5.100964994763507E-004
                   228 -3.065467328561409E-004
                   229 -6.126826146377317E-005
                   230  1.012459744745364E-005
                   231 -3.735148111948700E-005
                   232 -1.218900958301286E-004
                   233 -4.678742376836028E-004
                   234  5.063340024198194E-006
                   235 -1.595016675123023E-006
                   236 -9.562052128053626E-006
                   237 -1.219091925676917E-004
                   238 -4.679527208426717E-004
                   239  5.085468248354856E-006
                   240 -1.594986304824639E-006
                   241  9.581474059060626E-006
                   242  2.019542501149049E-005
                   243  1.154990112755758E-004
                   244  2.969743305784457E-005
                   245  1.807863981874576E-006
                   246 -1.026627260647648E-008
 Sym= __2_A__
 Ene=  0.000000000000000E+000
 Spin= Alpha
 Occup=    2.00000000000000     
                     1 -2.147632687078654E-005
                     2 -8.373178707033728E-005
                     3  1.979478099411152E-003
                     4 -1.224934835871921E-005
                     5  1.249223500086687E-003
                     6  1.961730934935492E-003
                     7  3.141420406912955E-004
                     8  4.715679804585386E-009
                     9 -1.487971155681827E-004
                    10  9.870316104874314E-005
                    11 -2.644738555686817E-009
                    12  3.362899749670384E-005
                    13  4.127252593403705E-005
                    14  4.147864965145366E-009
                    15 -7.308526281280466E-005
                    16  6.345443607728966E-010
                    17 -1.345623364815684E-010
                    18  3.959819874046512E-005
                    19 -3.056202601200043E-006
                    20  1.892758629941423E-004
                    21 -5.395091844996660E-009
                    22 -2.293074365548366E-009
                    23  9.704745607275346E-005
                    24 -3.929671849163566E-005
                    25 -3.255024965888029E-009
                    26  1.399896395965437E-004
                    27 -5.827962324105277E-005
                    28 -5.302307023134810E-009
                    29  1.175853324815964E-009
                    30  1.284635997378690E-004
                    31  3.607253403466898E-005
                    32   1.00097107069788     
                    33  8.779180328647062E-003
                    34  2.779788484140279E-003
                    35 -8.213433793146763E-003
                    36 -2.615932062687515E-003
                    37  7.085406256193655E-004
                    38 -5.346303166615518E-009
                    39  1.098186210323872E-003
                    40 -2.278670642488527E-004
                    41  1.172356001089987E-009
                    42  3.478801783180027E-003
                    43 -1.295668173692748E-004
                    44 -5.136542175520130E-008
                    45  2.960286989944616E-004
                    46 -1.598616494046657E-009
                    47  3.224034768824053E-010
                    48  4.206878676115218E-004
                    49 -2.518419800984039E-005
                    50 -1.048741916272136E-003
                    51  5.688217739328238E-010
                    52 -7.821857938087353E-010
                    53 -1.096734986712453E-004
                    54  3.279642552010982E-005
                    55  3.234505157421616E-009
                    56  3.135892269613615E-004
                    57 -8.584189679263073E-006
                    58  1.906957560550817E-009
                    59 -4.530594057399948E-010
                    60  8.263205611887828E-005
                    61  1.911552768711115E-005
                    62  1.237176319866778E-002
                    63 -1.866982753081428E-003
                    64 -3.129855466777679E-004
                    65  3.155114950329347E-003
                    66 -1.466655828386093E-004
                    67  1.273446843244847E-004
                    68  2.565891713786559E-004
                    69  2.822276803215251E-005
                    70  2.401112651043666E-006
                    71  5.205640167692414E-004
                    72  1.557429065846290E-004
                    73 -3.284263727988137E-005
                    74 -1.844556240624994E-003
                    75 -1.030069372643734E-005
                    76  2.470912974013841E-005
                    77  8.748381114562562E-006
                    78 -3.580603452598654E-005
                    79 -4.944492665045438E-006
                    80 -4.199087072265735E-004
                    81 -4.695836086475646E-004
                    82  8.672545302472274E-007
                    83  7.613928172911116E-004
                    84 -2.142877352402831E-006
                    85  5.112808706054920E-005
                    86  1.075186158043299E-004
                    87  5.890016447357375E-007
                    88 -1.636678778721862E-005
                    89 -6.886717668581601E-006
                    90 -2.956775382879253E-005
                    91  5.133436215920651E-006
                    92  1.237175570792540E-002
                    93 -1.867031564140615E-003
                    94 -3.130131458286170E-004
                    95  3.155237048187808E-003
                    96 -1.466801493938516E-004
                    97  1.273446461326561E-004
                    98 -2.565896261404469E-004
                    99  2.829911078183948E-005
                   100  2.400769238104809E-006
                   101 -5.205637757010063E-004
                   102  1.556375163261805E-004
                   103 -3.284192890316273E-005
                   104  1.844636815056037E-003
                   105 -1.030438076627897E-005
                   106 -2.471240711106531E-005
                   107 -8.748446081343538E-006
                   108 -3.579834732562422E-005
                   109 -4.944486728422276E-006
                   110 -4.199394064898829E-004
                   111  4.696154456798056E-004
                   112 -8.679477025426232E-007
                   113  7.614245727896124E-004
                   114 -2.143357119907283E-006
                   115 -5.112892269922304E-005
                   116  1.075109644352559E-004
                   117  5.893777991172266E-007
                   118  1.636625844337733E-005
                   119  6.886976038030078E-006
                   120 -2.957430140073397E-005
                   121  5.133343892207670E-006
                   122 -1.488211748436163E-004
                   123 -7.137005869404649E-004
                   124  2.527823258925837E-004
                   125 -3.236419572261541E-004
                   126 -1.905238326764526E-004
                   127  2.366943483850053E-005
                   128 -4.285563312000237E-005
                   129  6.005705513354907E-004
                   130 -1.627360769925003E-006
                   131  4.075873382264377E-005
                   132  5.773464714497984E-004
                   133  2.498932688847016E-006
                   134  3.434630025538092E-004
                   135 -3.310189337329313E-008
                   136  4.193359003716968E-005
                   137  1.881981561041256E-007
                   138 -3.400492138745098E-005
                   139 -1.558714122779585E-006
                   140  1.946491930030192E-004
                   141 -2.630579694010471E-004
                   142  1.473507880214283E-006
                   143 -2.660817101128126E-004
                   144 -4.540667983556246E-006
                   145 -1.782655301504994E-005
                   146  1.310927958271580E-005
                   147  1.602502868692849E-007
                   148 -1.289602178813323E-005
                   149 -1.994982543725165E-006
                   150 -2.566853068361792E-005
                   151 -5.794227856856389E-007
                   152 -1.486346934439795E-004
                   153 -7.130737182068937E-004
                   154  2.528344083634259E-004
                   155 -3.243430027791010E-004
                   156 -1.905241643117405E-004
                   157  2.366991950500190E-005
                   158  4.284684796771956E-005
                   159  6.005941838871210E-004
                   160 -1.628607290396413E-006