[Molden Format]
[Atoms] AU
  N     1    7    -4.4519150800    0.1645695100   -0.0000004400        
  C     2    6    -1.7695092000   -0.0145096000   -0.0000001700        
  C     3    6    -0.4270927200   -0.0061402300   -2.2691546100        
  C     4    6    -0.4270931100   -0.0061391100    2.2691544900        
  C     5    6     2.1889955900   -0.0004823800   -2.2566388900        
  C     6    6     2.1889952100   -0.0004812700    2.2566392100        
  C     7    6     3.5149715000    0.0022090000    0.0000002700        
  H     8    1    -5.1855378300   -0.7126266600   -1.5571957100        
  H     9    1    -5.1855380900   -0.7126258900    1.5571951400        
  H    10    1    -1.4305344500   -0.0005073500   -4.0318143700        
  H    11    1    -1.4305351200   -0.0005053700    4.0318140800        
  H    12    1     3.1914120400   -0.0010699000   -4.0209976100        
  H    13    1     3.1914113700   -0.0010679200    4.0209980900        
  H    14    1     5.5428332300    0.0050250700    0.0000004400        
[5D]
[7F]
[GTO]
  1  0
   s    12 1.00
  0.114200D+05  0.172695D-04
  0.171200D+04  0.134411D-03
  0.389300D+03  0.694561D-03
  0.110000D+03  0.278531D-02
  0.355700D+02  0.863457D-02
  0.125400D+02  0.199805D-01
  0.464400D+01  0.262908D-01
  0.129300D+01 -0.243845D-01
  0.511800D+00 -0.924934D-01
  0.178700D+00 -0.339683D+00
  0.246240D-01  0.345111D+00
  0.112530D-01  0.752750D+00
   s    10 1.00
  0.114200D+05  0.523000D-03
  0.171200D+04  0.404500D-02
  0.389300D+03  0.207750D-01
  0.110000D+03  0.807269D-01
  0.355700D+02  0.233074D+00
  0.125400D+02  0.433501D+00
  0.464400D+01  0.347472D+00
  0.129300D+01  0.412620D-01
  0.511800D+00 -0.850799D-02
  0.178700D+00  0.238400D-02
   s    10 1.00
  0.114200D+05 -0.115000D-03
  0.171200D+04 -0.895000D-03
  0.389300D+03 -0.462400D-02
  0.110000D+03 -0.185280D-01
  0.355700D+02 -0.573390D-01
  0.125400D+02 -0.132076D+00
  0.464400D+01 -0.172510D+00
  0.129300D+01  0.151814D+00
  0.511800D+00  0.599944D+00
  0.178700D+00  0.387462D+00
   s     1 1.00
  0.129300D+01  0.100000D+01
   s     1 1.00
  0.178700D+00  0.100000D+01
   p     5 1.00
  0.266300D+02  0.146700D-01
  0.594800D+01  0.917640D-01
  0.174200D+01  0.298683D+00
  0.555000D+00  0.498487D+00
  0.172500D+00  0.337023D+00
   p     1 1.00
  0.174200D+01  0.100000D+01
   p     1 1.00
  0.555000D+00  0.100000D+01
   d     1 1.00
  0.165400D+01  0.100000D+01
   d     1 1.00
  0.469000D+00  0.100000D+01
   f     1 1.00
  0.109300D+01  0.100000D+01
  
  2  0
   s    10 1.00
  0.823600D+04  0.531000D-03
  0.123500D+04  0.410800D-02
  0.280800D+03  0.210870D-01
  0.792700D+02  0.818530D-01
  0.255900D+02  0.234817D+00
  0.899700D+01  0.434401D+00
  0.331900D+01  0.346129D+00
  0.905900D+00  0.393780D-01
  0.364300D+00 -0.898300D-02
  0.128500D+00  0.238500D-02
   s    10 1.00
  0.823600D+04 -0.113000D-03
  0.123500D+04 -0.878000D-03
  0.280800D+03 -0.454000D-02
  0.792700D+02 -0.181330D-01
  0.255900D+02 -0.557600D-01
  0.899700D+01 -0.126895D+00
  0.331900D+01 -0.170352D+00
  0.905900D+00  0.140382D+00
  0.364300D+00  0.598684D+00
  0.128500D+00  0.395389D+00
   s     1 1.00
  0.905900D+00  0.100000D+01
   s     1 1.00
  0.364300D+00  0.100000D+01
   p     5 1.00
  0.187100D+02  0.140310D-01
  0.413300D+01  0.868660D-01
  0.120000D+01  0.290216D+00
  0.382700D+00  0.501008D+00
  0.120900D+00  0.343406D+00
   p     1 1.00
  0.382700D+00  0.100000D+01
   p     1 1.00
  0.120900D+00  0.100000D+01
   d     1 1.00
  0.109700D+01  0.100000D+01
   d     1 1.00
  0.318000D+00  0.100000D+01
   f     1 1.00
  0.761000D+00  0.100000D+01
  
  3  0
   s    10 1.00
  0.823600D+04  0.531000D-03
  0.123500D+04  0.410800D-02
  0.280800D+03  0.210870D-01
  0.792700D+02  0.818530D-01
  0.255900D+02  0.234817D+00
  0.899700D+01  0.434401D+00
  0.331900D+01  0.346129D+00
  0.905900D+00  0.393780D-01
  0.364300D+00 -0.898300D-02
  0.128500D+00  0.238500D-02
   s    10 1.00
  0.823600D+04 -0.113000D-03
  0.123500D+04 -0.878000D-03
  0.280800D+03 -0.454000D-02
  0.792700D+02 -0.181330D-01
  0.255900D+02 -0.557600D-01
  0.899700D+01 -0.126895D+00
  0.331900D+01 -0.170352D+00
  0.905900D+00  0.140382D+00
  0.364300D+00  0.598684D+00
  0.128500D+00  0.395389D+00
   s     1 1.00
  0.905900D+00  0.100000D+01
   s     1 1.00
  0.364300D+00  0.100000D+01
   p     5 1.00
  0.187100D+02  0.140310D-01
  0.413300D+01  0.868660D-01
  0.120000D+01  0.290216D+00
  0.382700D+00  0.501008D+00
  0.120900D+00  0.343406D+00
   p     1 1.00
  0.382700D+00  0.100000D+01
   p     1 1.00
  0.120900D+00  0.100000D+01
   d     1 1.00
  0.109700D+01  0.100000D+01
   d     1 1.00
  0.318000D+00  0.100000D+01
   f     1 1.00
  0.761000D+00  0.100000D+01
  
  4  0
   s    10 1.00
  0.823600D+04  0.531000D-03
  0.123500D+04  0.410800D-02
  0.280800D+03  0.210870D-01
  0.792700D+02  0.818530D-01
  0.255900D+02  0.234817D+00
  0.899700D+01  0.434401D+00
  0.331900D+01  0.346129D+00
  0.905900D+00  0.393780D-01
  0.364300D+00 -0.898300D-02
  0.128500D+00  0.238500D-02
   s    10 1.00
  0.823600D+04 -0.113000D-03
  0.123500D+04 -0.878000D-03
  0.280800D+03 -0.454000D-02
  0.792700D+02 -0.181330D-01
  0.255900D+02 -0.557600D-01
  0.899700D+01 -0.126895D+00
  0.331900D+01 -0.170352D+00
  0.905900D+00  0.140382D+00
  0.364300D+00  0.598684D+00
  0.128500D+00  0.395389D+00
   s     1 1.00
  0.905900D+00  0.100000D+01
   s     1 1.00
  0.364300D+00  0.100000D+01
   p     5 1.00
  0.187100D+02  0.140310D-01
  0.413300D+01  0.868660D-01
  0.120000D+01  0.290216D+00
  0.382700D+00  0.501008D+00
  0.120900D+00  0.343406D+00
   p     1 1.00
  0.382700D+00  0.100000D+01
   p     1 1.00
  0.120900D+00  0.100000D+01
   d     1 1.00
  0.109700D+01  0.100000D+01
   d     1 1.00
  0.318000D+00  0.100000D+01
   f     1 1.00
  0.761000D+00  0.100000D+01
  
  5  0
   s    10 1.00
  0.823600D+04  0.531000D-03
  0.123500D+04  0.410800D-02
  0.280800D+03  0.210870D-01
  0.792700D+02  0.818530D-01
  0.255900D+02  0.234817D+00
  0.899700D+01  0.434401D+00
  0.331900D+01  0.346129D+00
  0.905900D+00  0.393780D-01
  0.364300D+00 -0.898300D-02
  0.128500D+00  0.238500D-02
   s    10 1.00
  0.823600D+04 -0.113000D-03
  0.123500D+04 -0.878000D-03
  0.280800D+03 -0.454000D-02
  0.792700D+02 -0.181330D-01
  0.255900D+02 -0.557600D-01
  0.899700D+01 -0.126895D+00
  0.331900D+01 -0.170352D+00
  0.905900D+00  0.140382D+00
  0.364300D+00  0.598684D+00
  0.128500D+00  0.395389D+00
   s     1 1.00
  0.905900D+00  0.100000D+01
   s     1 1.00
  0.364300D+00  0.100000D+01
   p     5 1.00
  0.187100D+02  0.140310D-01
  0.413300D+01  0.868660D-01
  0.120000D+01  0.290216D+00
  0.382700D+00  0.501008D+00
  0.120900D+00  0.343406D+00
   p     1 1.00
  0.382700D+00  0.100000D+01
   p     1 1.00
  0.120900D+00  0.100000D+01
   d     1 1.00
  0.109700D+01  0.100000D+01
   d     1 1.00
  0.318000D+00  0.100000D+01
   f     1 1.00
  0.761000D+00  0.100000D+01
  
  6  0
   s    10 1.00
  0.823600D+04  0.531000D-03
  0.123500D+04  0.410800D-02
  0.280800D+03  0.210870D-01
  0.792700D+02  0.818530D-01
  0.255900D+02  0.234817D+00
  0.899700D+01  0.434401D+00
  0.331900D+01  0.346129D+00
  0.905900D+00  0.393780D-01
  0.364300D+00 -0.898300D-02
  0.128500D+00  0.238500D-02
   s    10 1.00
  0.823600D+04 -0.113000D-03
  0.123500D+04 -0.878000D-03
  0.280800D+03 -0.454000D-02
  0.792700D+02 -0.181330D-01
  0.255900D+02 -0.557600D-01
  0.899700D+01 -0.126895D+00
  0.331900D+01 -0.170352D+00
  0.905900D+00  0.140382D+00
  0.364300D+00  0.598684D+00
  0.128500D+00  0.395389D+00
   s     1 1.00
  0.905900D+00  0.100000D+01
   s     1 1.00
  0.364300D+00  0.100000D+01
   p     5 1.00
  0.187100D+02  0.140310D-01
  0.413300D+01  0.868660D-01
  0.120000D+01  0.290216D+00
  0.382700D+00  0.501008D+00
  0.120900D+00  0.343406D+00
   p     1 1.00
  0.382700D+00  0.100000D+01
   p     1 1.00
  0.120900D+00  0.100000D+01
   d     1 1.00
  0.109700D+01  0.100000D+01
   d     1 1.00
  0.318000D+00  0.100000D+01
   f     1 1.00
  0.761000D+00  0.100000D+01
  
  7  0
   s    10 1.00
  0.823600D+04  0.531000D-03
  0.123500D+04  0.410800D-02
  0.280800D+03  0.210870D-01
  0.792700D+02  0.818530D-01
  0.255900D+02  0.234817D+00
  0.899700D+01  0.434401D+00
  0.331900D+01  0.346129D+00
  0.905900D+00  0.393780D-01
  0.364300D+00 -0.898300D-02
  0.128500D+00  0.238500D-02
   s    10 1.00
  0.823600D+04 -0.113000D-03
  0.123500D+04 -0.878000D-03
  0.280800D+03 -0.454000D-02
  0.792700D+02 -0.181330D-01
  0.255900D+02 -0.557600D-01
  0.899700D+01 -0.126895D+00
  0.331900D+01 -0.170352D+00
  0.905900D+00  0.140382D+00
  0.364300D+00  0.598684D+00
  0.128500D+00  0.395389D+00
   s     1 1.00
  0.905900D+00  0.100000D+01
   s     1 1.00
  0.364300D+00  0.100000D+01
   p     5 1.00
  0.187100D+02  0.140310D-01
  0.413300D+01  0.868660D-01
  0.120000D+01  0.290216D+00
  0.382700D+00  0.501008D+00
  0.120900D+00  0.343406D+00
   p     1 1.00
  0.382700D+00  0.100000D+01
   p     1 1.00
  0.120900D+00  0.100000D+01
   d     1 1.00
  0.109700D+01  0.100000D+01
   d     1 1.00
  0.318000D+00  0.100000D+01
   f     1 1.00
  0.761000D+00  0.100000D+01
  
  8  0
   s     4 1.00
  0.130100D+02  0.196850D-01
  0.196200D+01  0.137977D+00
  0.444600D+00  0.478148D+00
  0.122000D+00  0.501240D+00
   s     1 1.00
  0.122000D+00  0.100000D+01
   p     1 1.00
  0.727000D+00  0.100000D+01
  
  9  0
   s     4 1.00
  0.130100D+02  0.196850D-01
  0.196200D+01  0.137977D+00
  0.444600D+00  0.478148D+00
  0.122000D+00  0.501240D+00
   s     1 1.00
  0.122000D+00  0.100000D+01
   p     1 1.00
  0.727000D+00  0.100000D+01
  
 10  0
   s     4 1.00
  0.130100D+02  0.196850D-01
  0.196200D+01  0.137977D+00
  0.444600D+00  0.478148D+00
  0.122000D+00  0.501240D+00
   s     1 1.00
  0.122000D+00  0.100000D+01
   p     1 1.00
  0.727000D+00  0.100000D+01
  
 11  0
   s     4 1.00
  0.130100D+02  0.196850D-01
  0.196200D+01  0.137977D+00
  0.444600D+00  0.478148D+00
  0.122000D+00  0.501240D+00
   s     1 1.00
  0.122000D+00  0.100000D+01
   p     1 1.00
  0.727000D+00  0.100000D+01
  
 12  0
   s     4 1.00
  0.130100D+02  0.196850D-01
  0.196200D+01  0.137977D+00
  0.444600D+00  0.478148D+00
  0.122000D+00  0.501240D+00
   s     1 1.00
  0.122000D+00  0.100000D+01
   p     1 1.00
  0.727000D+00  0.100000D+01
  
 13  0
   s     4 1.00
  0.130100D+02  0.196850D-01
  0.196200D+01  0.137977D+00
  0.444600D+00  0.478148D+00
  0.122000D+00  0.501240D+00
   s     1 1.00
  0.122000D+00  0.100000D+01
   p     1 1.00
  0.727000D+00  0.100000D+01
  
 14  0
   s     4 1.00
  0.130100D+02  0.196850D-01
  0.196200D+01  0.137977D+00
  0.444600D+00  0.478148D+00
  0.122000D+00  0.501240D+00
   s     1 1.00
  0.122000D+00  0.100000D+01
   p     1 1.00
  0.727000D+00  0.100000D+01
  
[MO]
 Sym= __1_A__
 Ene=  0.000000000000000E+000
 Spin= Alpha
 Occup=    2.00000000000000     
                     1  2.221757165798987E-004
                     2  0.998066392724012     
                     3  4.235045614074963E-003
                     4  1.919408394261077E-003
                     5  5.409201458897420E-003
                     6  5.444757890740818E-003
                     7 -4.763656816536455E-003
                     8 -6.953751876965652E-009
                     9 -7.487198041981958E-004
                    10  2.359707209359510E-004
                    11  4.288335811420970E-009
                    12 -1.327608252064892E-003
                    13  3.096080622254568E-003
                    14 -1.267753040656855E-008
                    15 -5.228678992811141E-006
                    16 -8.847021384986476E-010
                    17  2.235240647363810E-010
                    18  8.033187275385925E-005
                    19  6.442712887038693E-005
                    20 -3.858944521876847E-004
                    21  3.027438078070636E-009
                    22  3.662621467796355E-009
                    23  4.653959394555432E-005
                    24 -4.858091027872446E-004
                    25  4.977349098260459E-009
                    26 -1.471104746766791E-004
                    27 -7.341329076713184E-005
                    28  8.037395322509182E-009
                    29 -1.904949887758795E-009
                    30 -9.874080634795181E-005
                    31 -5.940033177798707E-005
                    32 -3.916818558577129E-004
                    33  9.793023447767504E-004
                    34  2.412789287479885E-004
                    35 -1.121486394624291E-004
                    36 -4.525289521427416E-003
                    37 -1.982216973023846E-006
                    38  6.011788409481659E-009
                    39  2.025146190133461E-004
                    40 -1.216742479401466E-005
                    41 -4.336597521324445E-009
                    42  4.855289457425516E-003
                    43  7.825604302870743E-004
                    44  9.611963681856002E-008
                    45 -2.287002158245616E-004
                    46  3.854032879988072E-009
                    47 -1.043242367021744E-010
                    48  2.103260465750628E-004
                    49  4.775432280253290E-005
                    50  4.613119355266720E-004
                    51 -2.839440239365651E-008
                    52 -3.205245986053334E-010
                    53 -4.598930086892186E-005
                    54 -3.539122011960442E-004
                    55 -6.757349609998179E-009
                    56 -6.248877504497843E-005
                    57  1.124938008988872E-005
                    58 -4.315626248295744E-009
                    59  5.020575520848479E-010
                    60 -3.487813949247881E-005
                    61  3.637667418169309E-005
                    62 -3.564014232144500E-004
                    63 -1.812244142046296E-003
                    64  9.676835944469943E-005
                    65  8.392032687879779E-004
                    66  6.117089246503245E-004
                    67 -8.754570526657590E-005
                    68 -6.046757556514998E-004
                    69  5.963864834328378E-004
                    70  8.410670735309757E-005
                    71  1.113649191136306E-004
                    72 -4.728118049735133E-004
                    73 -3.566801488173031E-004
                    74 -7.956416424198021E-004
                    75 -7.616233757277669E-005
                    76 -1.269658771281576E-005
                    77  1.829447354463459E-005
                    78  6.271546964983059E-005
                    79 -9.660821907625241E-006
                    80  1.796176748419202E-004
                    81  1.854451813621839E-004
                    82 -2.694339794483437E-005
                    83 -1.179654389476159E-004
                    84  5.442777166871665E-005
                    85 -7.857186805222013E-006
                    86 -5.589778466280231E-005
                    87  2.118950589285797E-005
                    88 -1.164062107389179E-005
                    89  1.299678736832911E-005
                    90 -4.632609661446825E-005
                    91 -1.135333527937977E-005
                    92 -3.563853156055143E-004
                    93 -1.812181064278656E-003
                    94  9.682981377305350E-005
                    95  8.390009582822777E-004
                    96  6.117439491918389E-004
                    97 -8.754547005788713E-005
                    98  6.046796553390758E-004
                    99  5.961947172506164E-004
                   100  8.410608037160333E-005
                   101 -1.113958654270511E-004
                   102 -4.726137373563172E-004
                   103 -3.566798265051567E-004
                   104  7.954474873909731E-004
                   105 -7.615655864026551E-005
                   106  1.270260645164484E-005
                   107 -1.829434035683069E-005
                   108  6.270458845672856E-005
                   109 -9.660764223642221E-006
                   110  1.797117453856194E-004
                   111 -1.855073970323315E-004
                   112  2.694329166725931E-005
                   113 -1.180803526889176E-004
                   114  5.442625604398907E-005
                   115  7.860880475354802E-006
                   116 -5.587914849212624E-005
                   117  2.118940162529942E-005
                   118  1.164286973258360E-005
                   119 -1.299679366367703E-005
                   120 -4.630779756177229E-005
                   121 -1.135350897305385E-005
                   122 -1.874396905906494E-004
                   123 -2.922049761641703E-004
                   124  5.346347478551332E-005
                   125  5.419456460324529E-004
                   126 -5.637966338438530E-004
                   127 -3.296454072623342E-005
                   128  2.501505983141825E-005
                   129  2.238304776803382E-004
                   130 -2.542347856622173E-005
                   131  9.018300120292588E-006
                   132  8.431511765236671E-004
                   133  1.562660949242949E-004
                   134 -2.709749423389764E-004
                   135  4.220990066966106E-006
                   136 -1.667690555866877E-008
                   137 -3.915730449999862E-006
                   138  2.912376024873612E-007
                   139  9.140829674841881E-006
                   140  7.489387872152449E-005
                   141  1.917805253554577E-004
                   142  8.757591026418633E-006
                   143 -1.828933426200740E-004
                   144 -1.536456992376216E-005
                   145 -1.106248479880153E-005
                   146 -1.488400015225770E-005
                   147  2.576372472521058E-006
                   148 -4.158271286573096E-006
                   149 -1.685748716739789E-006
                   150 -4.459720196333476E-005
                   151 -1.507445512519324E-006
                   152 -1.876708679855343E-004
                   153 -2.930147379905680E-004
                   154  5.327125371024801E-005
                   155  5.432669738960639E-004
                   156 -5.637943352099833E-004
                   157 -3.296445468325666E-005
                   158 -2.498711805173959E-005
                   159  2.237640201517164E-004
                   160 -2.542375232279915E-005
                   161 -9.204583199878690E-006
                   162  8.433326458832516E-004
                   163  1.562667519061037E-004
                   164  2.711689228748017E-004
                   165  4.231512734603004E-006
                   166  1.262795927114773E-008
                   167  3.915322161421963E-006
                   168  3.202429839666884E-007
                   169  9.140926738852659E-006
                   170  7.490459242662726E-005
                   171 -1.919056506029554E-004
                   172 -8.757168290377525E-006
                   173 -1.828525491583434E-004
                   174 -1.536554286661889E-005
                   175  1.106457066006480E-005
                   176 -1.484311464623301E-005
                   177  2.576310590222551E-006
                   178  4.154600118617216E-006
                   179  1.685855423882184E-006
                   180 -4.458450453471042E-005
                   181 -1.507445527998452E-006
                   182 -1.241713450284058E-004
                   183 -3.843045074224838E-004
                   184  2.704278506660720E-005
                   185  1.494256973312001E-004
                   186 -1.638375653064437E-005
                   187 -4.313931308658076E-005
                   188  4.007133401772804E-008
                   189  9.419890060599253E-005
                   190  2.207898833471593E-005
                   191 -2.171332651687784E-007
                   192 -3.650947752644607E-004
                   193 -1.098786828945973E-004
                   194 -7.095523131272404E-008
                   195 -1.045585650747041E-005
                   196  1.213063469867564E-008
                   197 -2.702852144661215E-011
                   198  4.187208208788268E-006
                   199 -2.384250594737923E-006
                   200 -1.134086586434703E-004
                   201  1.066872674933662E-007
                   202  7.756003352391226E-010
                   203  6.387260515482648E-005
                   204  1.703368829601508E-005
                   205  8.172996571464842E-009
                   206  8.961714609803280E-007
                   207  3.133962616726268E-006
                   208 -9.976753144704248E-009
                   209 -1.194390348562448E-010
                   210 -5.628434597609243E-006
                   211 -2.630447750502272E-006
                   212  2.869810106856603E-003
                   213 -2.235247380692426E-003
                   214  1.886826442168709E-004
                   215  3.024969065881553E-004
                   216  3.760961421608059E-004
                   217  2.869821589359595E-003
                   218 -2.235256183973858E-003
                   219  1.886872704041881E-004
                   220  3.024994954410713E-004
                   221 -3.761014622311844E-004
                   222 -5.100701943734468E-004
                   223 -3.067119797475026E-004
                   224 -6.126124195444320E-005
                   225  1.012467508749954E-005
                   226  3.734684043284221E-005
                   227 -5.100964994764095E-004
                   228 -3.065467328561197E-004
                   229 -6.126826146377448E-005
                   230  1.012459744745368E-005
                   231 -3.735148111948398E-005
                   232 -1.218900958301081E-004
                   233 -4.678742376836205E-004
                   234  5.063340024197198E-006
                   235 -1.595016675123027E-006
                   236 -9.562052128051192E-006
                   237 -1.219091925676149E-004
                   238 -4.679527208426978E-004
                   239  5.085468248352007E-006
                   240 -1.594986304824641E-006
                   241  9.581474059058551E-006
                   242  2.019542501137304E-005
                   243  1.154990112756221E-004
                   244  2.969743305785189E-005
                   245  1.807863981874589E-006
                   246 -1.026627260831047E-008
 Sym= __2_A__
 Ene=  0.000000000000000E+000
 Spin= Alpha
 Occup=    2.00000000000000     
                     1 -2.147632687078496E-005
                     2 -8.373178707034471E-005
                     3  1.979478099411170E-003
                     4 -1.224934835871923E-005
                     5  1.249223500086657E-003
                     6  1.961730934935483E-003
                     7  3.141420406913078E-004
                     8  4.715679807168334E-009
                     9 -1.487971155681761E-004
                    10  9.870316104874051E-005
                    11 -2.644738561439529E-009
                    12  3.362899749670237E-005
                    13  4.127252593403529E-005
                    14  4.147864978585538E-009
                    15 -7.308526281280449E-005
                    16  6.345443582147794E-010
                    17 -1.345623368282402E-010
                    18  3.959819874046580E-005
                    19 -3.056202601199813E-006
                    20  1.892758629941394E-004
                    21 -5.395091834181723E-009
                    22 -2.293074365024363E-009
                    23  9.704745607275388E-005
                    24 -3.929671849163635E-005
                    25 -3.255024963658618E-009
                    26  1.399896395965433E-004
                    27 -5.827962324105257E-005
                    28 -5.302307021591294E-009
                    29  1.175853324394135E-009
                    30  1.284635997378687E-004
                    31  3.607253403466897E-005
                    32   1.00097107069787     
                    33  8.779180328647468E-003
                    34  2.779788484140267E-003
                    35 -8.213433793146733E-003
                    36 -2.615932062687326E-003
                    37  7.085406256193713E-004
                    38 -5.346303472866733E-009
                    39  1.098186210323865E-003
                    40 -2.278670642488527E-004
                    41  1.172355981795929E-009
                    42  3.478801783180018E-003
                    43 -1.295668173692729E-004
                    44 -5.136542158889330E-008
                    45  2.960286989944703E-004
                    46 -1.598616505620106E-009
                    47  3.224034769666626E-010
                    48  4.206878676115236E-004
                    49 -2.518419800984029E-005
                    50 -1.048741916272123E-003
                    51  5.688218025379879E-010
                    52 -7.821857964200653E-010
                    53 -1.096734986712278E-004
                    54  3.279642552010962E-005
                    55  3.234505154772736E-009
                    56  3.135892269613671E-004
                    57 -8.584189679262971E-006
                    58  1.906957564360313E-009
                    59 -4.530594050204722E-010
                    60  8.263205611887847E-005
                    61  1.911552768711170E-005
                    62  1.237176319871551E-002
                    63 -1.866982753080602E-003
                    64 -3.129855466776299E-004
                    65  3.155114950328945E-003
                    66 -1.466655828387856E-004
                    67  1.273446843244853E-004
                    68  2.565891713789241E-004
                    69  2.822276803216185E-005
                    70  2.401112651044386E-006
                    71  5.205640167692148E-004
                    72  1.557429065846725E-004
                    73 -3.284263727988213E-005
                    74 -1.844556240625041E-003
                    75 -1.030069372641926E-005
                    76  2.470912974012381E-005
                    77  8.748381114562647E-006
                    78 -3.580603452596262E-005
                    79 -4.944492665045530E-006
                    80 -4.199087072265617E-004
                    81 -4.695836086475508E-004
                    82  8.672545302464822E-007
                    83  7.613928172910960E-004
                    84 -2.142877352401495E-006
                    85  5.112808706054898E-005
                    86  1.075186158043091E-004
                    87  5.890016447358227E-007
                    88 -1.636678778721981E-005
                    89 -6.886717668581374E-006
                    90 -2.956775382879452E-005
                    91  5.133436215920661E-006
                    92  1.237175570788982E-002
                    93 -1.867031564140814E-003
                    94 -3.130131458287143E-004
                    95  3.155237048188071E-003
                    96 -1.466801493938109E-004
                    97  1.273446461326603E-004
                    98 -2.565896261404567E-004
                    99  2.829911078186417E-005
                   100  2.400769238104514E-006
                   101 -5.205637757010102E-004
                   102  1.556375163262013E-004
                   103 -3.284192890316322E-005
                   104  1.844636815056144E-003
                   105 -1.030438076628387E-005
                   106 -2.471240711106777E-005
                   107 -8.748446081343620E-006
                   108 -3.579834732563776E-005
                   109 -4.944486728422267E-006
                   110 -4.199394064898953E-004
                   111  4.696154456798296E-004
                   112 -8.679477025432532E-007
                   113  7.614245727896412E-004
                   114 -2.143357119907986E-006
                   115 -5.112892269922087E-005
                   116  1.075109644352607E-004
                   117  5.893777991171753E-007
                   118  1.636625844337586E-005
                   119  6.886976038030262E-006
                   120 -2.957430140073661E-005
                   121  5.133343892207738E-006
                   122 -1.488211748391464E-004
                   123 -7.137005869404615E-004
                   124  2.527823258925831E-004
                   125 -3.236419572260709E-004
                   126 -1.905238326764805E-004
                   127  2.366943483850117E-005
                   128 -4.285563312008908E-005
                   129  6.005705513354769E-004
                   130 -1.627360769925286E-006
                   131  4.075873382267823E-005
                   132  5.773464714498958E-004
                   133  2.498932688847185E-006
                   134  3.434630025538092E-004
                   135 -3.310189337390379E-008
                   136  4.193359003716356E-005
                   137  1.881981561040863E-007
                   138 -3.400492138744938E-005
                   139 -1.558714122779672E-006
                   140  1.946491930030266E-004
                   141 -2.630579694010201E-004
                   142  1.473507880214630E-006
                   143 -2.660817101127964E-004
                   144 -4.540667983555685E-006
                   145 -1.782655301504901E-005
                   146  1.310927958271188E-005
                   147  1.602502868693095E-007
                   148 -1.289602178813025E-005
                   149 -1.994982543725124E-006
                   150 -2.566853068362349E-005
                   151 -5.794227856856385E-007
                   152 -1.486346934540123E-004
                   153 -7.130737182069164E-004
                   154  2.528344083634129E-004
                   155 -3.243430027790875E-004
                   156 -1.905241643117764E-004
                   157  2.366991950500230E-005
                   158  4.284684796780939E-005
                   159  6.005941838871533E-004
                   160 -1.628607290396326E-006