[Molden Format]
[Atoms] AU
  N     1    7    -4.4709670500    0.1740057500   -0.2131602700        
  C     2    6    -1.7562967500    0.0227015500   -0.0957533100        
  C     3    6    -0.3790004300    0.1937371100   -2.3350754200        
  C     4    6    -0.4553802600   -0.1349453900    2.1857187400        
  C     5    6     2.2323244700    0.1551207200   -2.2836761500        
  C     6    6     2.1647214300   -0.1218109900    2.2227029900        
  C     7    6     3.5180948700    0.0103943400   -0.0064625900        
  H     8    1    -5.1789588400   -1.5147701800   -0.8680971900        
  H     9    1    -5.1325198500    0.3231272300    1.6062358300        
  H    10    1    -1.3669515400    0.3706953400   -4.0954936200        
  H    11    1    -1.4871105500   -0.2815346400    3.9261288400        
  H    12    1     3.2693836400    0.2741127700   -4.0235512200        
  H    13    1     3.1397805100   -0.2359178800    3.9986639000        
  H    14    1     5.5462786400    0.0054192200    0.0243932100        
[5D]
[7F]
[GTO]
  1  0
   s    12 1.00
  0.114200D+05  0.172695D-04
  0.171200D+04  0.134411D-03
  0.389300D+03  0.694561D-03
  0.110000D+03  0.278531D-02
  0.355700D+02  0.863457D-02
  0.125400D+02  0.199805D-01
  0.464400D+01  0.262908D-01
  0.129300D+01 -0.243845D-01
  0.511800D+00 -0.924934D-01
  0.178700D+00 -0.339683D+00
  0.246240D-01  0.345111D+00
  0.112530D-01  0.752750D+00
   s    10 1.00
  0.114200D+05  0.523000D-03
  0.171200D+04  0.404500D-02
  0.389300D+03  0.207750D-01
  0.110000D+03  0.807269D-01
  0.355700D+02  0.233074D+00
  0.125400D+02  0.433501D+00
  0.464400D+01  0.347472D+00
  0.129300D+01  0.412620D-01
  0.511800D+00 -0.850799D-02
  0.178700D+00  0.238400D-02
   s    10 1.00
  0.114200D+05 -0.115000D-03
  0.171200D+04 -0.895000D-03
  0.389300D+03 -0.462400D-02
  0.110000D+03 -0.185280D-01
  0.355700D+02 -0.573390D-01
  0.125400D+02 -0.132076D+00
  0.464400D+01 -0.172510D+00
  0.129300D+01  0.151814D+00
  0.511800D+00  0.599944D+00
  0.178700D+00  0.387462D+00
   s     1 1.00
  0.129300D+01  0.100000D+01
   s     1 1.00
  0.178700D+00  0.100000D+01
   p     5 1.00
  0.266300D+02  0.146700D-01
  0.594800D+01  0.917640D-01
  0.174200D+01  0.298683D+00
  0.555000D+00  0.498487D+00
  0.172500D+00  0.337023D+00
   p     1 1.00
  0.174200D+01  0.100000D+01
   p     1 1.00
  0.555000D+00  0.100000D+01
   d     1 1.00
  0.165400D+01  0.100000D+01
   d     1 1.00
  0.469000D+00  0.100000D+01
   f     1 1.00
  0.109300D+01  0.100000D+01
  
  2  0
   s    10 1.00
  0.823600D+04  0.531000D-03
  0.123500D+04  0.410800D-02
  0.280800D+03  0.210870D-01
  0.792700D+02  0.818530D-01
  0.255900D+02  0.234817D+00
  0.899700D+01  0.434401D+00
  0.331900D+01  0.346129D+00
  0.905900D+00  0.393780D-01
  0.364300D+00 -0.898300D-02
  0.128500D+00  0.238500D-02
   s    10 1.00
  0.823600D+04 -0.113000D-03
  0.123500D+04 -0.878000D-03
  0.280800D+03 -0.454000D-02
  0.792700D+02 -0.181330D-01
  0.255900D+02 -0.557600D-01
  0.899700D+01 -0.126895D+00
  0.331900D+01 -0.170352D+00
  0.905900D+00  0.140382D+00
  0.364300D+00  0.598684D+00
  0.128500D+00  0.395389D+00
   s     1 1.00
  0.905900D+00  0.100000D+01
   s     1 1.00
  0.364300D+00  0.100000D+01
   p     5 1.00
  0.187100D+02  0.140310D-01
  0.413300D+01  0.868660D-01
  0.120000D+01  0.290216D+00
  0.382700D+00  0.501008D+00
  0.120900D+00  0.343406D+00
   p     1 1.00
  0.382700D+00  0.100000D+01
   p     1 1.00
  0.120900D+00  0.100000D+01
   d     1 1.00
  0.109700D+01  0.100000D+01
   d     1 1.00
  0.318000D+00  0.100000D+01
   f     1 1.00
  0.761000D+00  0.100000D+01
  
  3  0
   s    10 1.00
  0.823600D+04  0.531000D-03
  0.123500D+04  0.410800D-02
  0.280800D+03  0.210870D-01
  0.792700D+02  0.818530D-01
  0.255900D+02  0.234817D+00
  0.899700D+01  0.434401D+00
  0.331900D+01  0.346129D+00
  0.905900D+00  0.393780D-01
  0.364300D+00 -0.898300D-02
  0.128500D+00  0.238500D-02
   s    10 1.00
  0.823600D+04 -0.113000D-03
  0.123500D+04 -0.878000D-03
  0.280800D+03 -0.454000D-02
  0.792700D+02 -0.181330D-01
  0.255900D+02 -0.557600D-01
  0.899700D+01 -0.126895D+00
  0.331900D+01 -0.170352D+00
  0.905900D+00  0.140382D+00
  0.364300D+00  0.598684D+00
  0.128500D+00  0.395389D+00
   s     1 1.00
  0.905900D+00  0.100000D+01
   s     1 1.00
  0.364300D+00  0.100000D+01
   p     5 1.00
  0.187100D+02  0.140310D-01
  0.413300D+01  0.868660D-01
  0.120000D+01  0.290216D+00
  0.382700D+00  0.501008D+00
  0.120900D+00  0.343406D+00
   p     1 1.00
  0.382700D+00  0.100000D+01
   p     1 1.00
  0.120900D+00  0.100000D+01
   d     1 1.00
  0.109700D+01  0.100000D+01
   d     1 1.00
  0.318000D+00  0.100000D+01
   f     1 1.00
  0.761000D+00  0.100000D+01
  
  4  0
   s    10 1.00
  0.823600D+04  0.531000D-03
  0.123500D+04  0.410800D-02
  0.280800D+03  0.210870D-01
  0.792700D+02  0.818530D-01
  0.255900D+02  0.234817D+00
  0.899700D+01  0.434401D+00
  0.331900D+01  0.346129D+00
  0.905900D+00  0.393780D-01
  0.364300D+00 -0.898300D-02
  0.128500D+00  0.238500D-02
   s    10 1.00
  0.823600D+04 -0.113000D-03
  0.123500D+04 -0.878000D-03
  0.280800D+03 -0.454000D-02
  0.792700D+02 -0.181330D-01
  0.255900D+02 -0.557600D-01
  0.899700D+01 -0.126895D+00
  0.331900D+01 -0.170352D+00
  0.905900D+00  0.140382D+00
  0.364300D+00  0.598684D+00
  0.128500D+00  0.395389D+00
   s     1 1.00
  0.905900D+00  0.100000D+01
   s     1 1.00
  0.364300D+00  0.100000D+01
   p     5 1.00
  0.187100D+02  0.140310D-01
  0.413300D+01  0.868660D-01
  0.120000D+01  0.290216D+00
  0.382700D+00  0.501008D+00
  0.120900D+00  0.343406D+00
   p     1 1.00
  0.382700D+00  0.100000D+01
   p     1 1.00
  0.120900D+00  0.100000D+01
   d     1 1.00
  0.109700D+01  0.100000D+01
   d     1 1.00
  0.318000D+00  0.100000D+01
   f     1 1.00
  0.761000D+00  0.100000D+01
  
  5  0
   s    10 1.00
  0.823600D+04  0.531000D-03
  0.123500D+04  0.410800D-02
  0.280800D+03  0.210870D-01
  0.792700D+02  0.818530D-01
  0.255900D+02  0.234817D+00
  0.899700D+01  0.434401D+00
  0.331900D+01  0.346129D+00
  0.905900D+00  0.393780D-01
  0.364300D+00 -0.898300D-02
  0.128500D+00  0.238500D-02
   s    10 1.00
  0.823600D+04 -0.113000D-03
  0.123500D+04 -0.878000D-03
  0.280800D+03 -0.454000D-02
  0.792700D+02 -0.181330D-01
  0.255900D+02 -0.557600D-01
  0.899700D+01 -0.126895D+00
  0.331900D+01 -0.170352D+00
  0.905900D+00  0.140382D+00
  0.364300D+00  0.598684D+00
  0.128500D+00  0.395389D+00
   s     1 1.00
  0.905900D+00  0.100000D+01
   s     1 1.00
  0.364300D+00  0.100000D+01
   p     5 1.00
  0.187100D+02  0.140310D-01
  0.413300D+01  0.868660D-01
  0.120000D+01  0.290216D+00
  0.382700D+00  0.501008D+00
  0.120900D+00  0.343406D+00
   p     1 1.00
  0.382700D+00  0.100000D+01
   p     1 1.00
  0.120900D+00  0.100000D+01
   d     1 1.00
  0.109700D+01  0.100000D+01
   d     1 1.00
  0.318000D+00  0.100000D+01
   f     1 1.00
  0.761000D+00  0.100000D+01
  
  6  0
   s    10 1.00
  0.823600D+04  0.531000D-03
  0.123500D+04  0.410800D-02
  0.280800D+03  0.210870D-01
  0.792700D+02  0.818530D-01
  0.255900D+02  0.234817D+00
  0.899700D+01  0.434401D+00
  0.331900D+01  0.346129D+00
  0.905900D+00  0.393780D-01
  0.364300D+00 -0.898300D-02
  0.128500D+00  0.238500D-02
   s    10 1.00
  0.823600D+04 -0.113000D-03
  0.123500D+04 -0.878000D-03
  0.280800D+03 -0.454000D-02
  0.792700D+02 -0.181330D-01
  0.255900D+02 -0.557600D-01
  0.899700D+01 -0.126895D+00
  0.331900D+01 -0.170352D+00
  0.905900D+00  0.140382D+00
  0.364300D+00  0.598684D+00
  0.128500D+00  0.395389D+00
   s     1 1.00
  0.905900D+00  0.100000D+01
   s     1 1.00
  0.364300D+00  0.100000D+01
   p     5 1.00
  0.187100D+02  0.140310D-01
  0.413300D+01  0.868660D-01
  0.120000D+01  0.290216D+00
  0.382700D+00  0.501008D+00
  0.120900D+00  0.343406D+00
   p     1 1.00
  0.382700D+00  0.100000D+01
   p     1 1.00
  0.120900D+00  0.100000D+01
   d     1 1.00
  0.109700D+01  0.100000D+01
   d     1 1.00
  0.318000D+00  0.100000D+01
   f     1 1.00
  0.761000D+00  0.100000D+01
  
  7  0
   s    10 1.00
  0.823600D+04  0.531000D-03
  0.123500D+04  0.410800D-02
  0.280800D+03  0.210870D-01
  0.792700D+02  0.818530D-01
  0.255900D+02  0.234817D+00
  0.899700D+01  0.434401D+00
  0.331900D+01  0.346129D+00
  0.905900D+00  0.393780D-01
  0.364300D+00 -0.898300D-02
  0.128500D+00  0.238500D-02
   s    10 1.00
  0.823600D+04 -0.113000D-03
  0.123500D+04 -0.878000D-03
  0.280800D+03 -0.454000D-02
  0.792700D+02 -0.181330D-01
  0.255900D+02 -0.557600D-01
  0.899700D+01 -0.126895D+00
  0.331900D+01 -0.170352D+00
  0.905900D+00  0.140382D+00
  0.364300D+00  0.598684D+00
  0.128500D+00  0.395389D+00
   s     1 1.00
  0.905900D+00  0.100000D+01
   s     1 1.00
  0.364300D+00  0.100000D+01
   p     5 1.00
  0.187100D+02  0.140310D-01
  0.413300D+01  0.868660D-01
  0.120000D+01  0.290216D+00
  0.382700D+00  0.501008D+00
  0.120900D+00  0.343406D+00
   p     1 1.00
  0.382700D+00  0.100000D+01
   p     1 1.00
  0.120900D+00  0.100000D+01
   d     1 1.00
  0.109700D+01  0.100000D+01
   d     1 1.00
  0.318000D+00  0.100000D+01
   f     1 1.00
  0.761000D+00  0.100000D+01
  
  8  0
   s     4 1.00
  0.130100D+02  0.196850D-01
  0.196200D+01  0.137977D+00
  0.444600D+00  0.478148D+00
  0.122000D+00  0.501240D+00
   s     1 1.00
  0.122000D+00  0.100000D+01
   p     1 1.00
  0.727000D+00  0.100000D+01
  
  9  0
   s     4 1.00
  0.130100D+02  0.196850D-01
  0.196200D+01  0.137977D+00
  0.444600D+00  0.478148D+00
  0.122000D+00  0.501240D+00
   s     1 1.00
  0.122000D+00  0.100000D+01
   p     1 1.00
  0.727000D+00  0.100000D+01
  
 10  0
   s     4 1.00
  0.130100D+02  0.196850D-01
  0.196200D+01  0.137977D+00
  0.444600D+00  0.478148D+00
  0.122000D+00  0.501240D+00
   s     1 1.00
  0.122000D+00  0.100000D+01
   p     1 1.00
  0.727000D+00  0.100000D+01
  
 11  0
   s     4 1.00
  0.130100D+02  0.196850D-01
  0.196200D+01  0.137977D+00
  0.444600D+00  0.478148D+00
  0.122000D+00  0.501240D+00
   s     1 1.00
  0.122000D+00  0.100000D+01
   p     1 1.00
  0.727000D+00  0.100000D+01
  
 12  0
   s     4 1.00
  0.130100D+02  0.196850D-01
  0.196200D+01  0.137977D+00
  0.444600D+00  0.478148D+00
  0.122000D+00  0.501240D+00
   s     1 1.00
  0.122000D+00  0.100000D+01
   p     1 1.00
  0.727000D+00  0.100000D+01
  
 13  0
   s     4 1.00
  0.130100D+02  0.196850D-01
  0.196200D+01  0.137977D+00
  0.444600D+00  0.478148D+00
  0.122000D+00  0.501240D+00
   s     1 1.00
  0.122000D+00  0.100000D+01
   p     1 1.00
  0.727000D+00  0.100000D+01
  
 14  0
   s     4 1.00
  0.130100D+02  0.196850D-01
  0.196200D+01  0.137977D+00
  0.444600D+00  0.478148D+00
  0.122000D+00  0.501240D+00
   s     1 1.00
  0.122000D+00  0.100000D+01
   p     1 1.00
  0.727000D+00  0.100000D+01
  
[MO]
 Sym= __1_A__
 Ene=  0.000000000000000E+000
 Spin= Alpha
 Occup=    2.00000000000000     
                     1  2.306503916735322E-004
                     2  0.998097278411818     
                     3  6.609660788515743E-004
                     4  1.937160012435403E-003
                     5  6.412576874282002E-003
                     6  5.941957793982378E-003
                     7 -4.310585725237934E-003
                     8  4.312862556809010E-003
                     9 -9.042861893182393E-004
                    10  3.245711284377879E-004
                    11 -5.181622011669173E-004
                    12 -1.770500069962529E-003
                    13  2.785540200283849E-003
                    14 -2.495889708087924E-003
                    15  1.729853792940450E-006
                    16 -6.047693747455799E-005
                    17 -2.186036885469672E-005
                    18  4.472364491369082E-005
                    19  4.245830052204070E-005
                    20 -2.384543170113964E-004
                    21  4.466431265978539E-004
                    22 -2.078570931618402E-004
                    23  1.317583015060158E-004
                    24 -3.954145133082693E-004
                    25 -4.127147526021814E-005
                    26 -1.074401793647312E-004
                    27  3.504690986396602E-005
                    28  5.729132467253024E-005
                    29 -1.537201585483143E-005
                    30 -1.018866088038930E-004
                    31 -1.963473966434693E-005
                    32 -3.443321440252034E-004
                    33  6.275205188004460E-004
                    34  2.529937099287476E-004
                    35 -6.959932007219058E-005
                    36 -3.436581699057325E-003
                    37 -1.887102671953520E-004
                    38 -2.279322073465157E-004
                    39  2.062449213972706E-004
                    40 -7.743728075295041E-005
                    41  7.550146043987293E-004
                    42  4.763576458314515E-003
                    43  7.642229743417543E-004
                    44 -3.114672485117495E-003
                    45 -1.851887219266566E-004
                    46  2.603703554555606E-005
                    47  1.322871748620058E-005
                    48  1.824201506645030E-004
                    49  3.984401756422055E-005
                    50  5.226868041709055E-004
                    51  5.920064714308545E-004
                    52 -9.209570379229765E-005
                    53 -1.296618900288904E-004
                    54 -3.350895214141290E-004
                    55  3.541999137465253E-005
                    56 -4.673732652602707E-005
                    57 -5.281186799288359E-008
                    58  3.435198172221316E-005
                    59  2.112606223679407E-006
                    60 -3.467350950350887E-005
                    61  2.046978797051132E-005
                    62 -6.757903028974988E-004
                    63 -2.628277944685785E-003
                    64 -3.430439825642380E-005
                    65  2.327364143857051E-003
                    66  2.410114666239985E-004
                    67 -1.355725021409578E-004
                    68 -5.446019384513461E-004
                    69  8.584944148996277E-004
                    70  1.440243228419647E-005
                    71  5.480174326163142E-004
                    72  1.466421570465422E-003
                    73 -1.283279143068276E-004
                    74 -1.475907942470417E-003
                    75 -6.287921208589345E-005
                    76 -3.317555697195396E-005
                    77  1.410523394333477E-005
                    78  7.843177372932508E-005
                    79 -2.534041025699264E-006
                    80  4.022291646181108E-004
                    81  1.925981357686748E-004
                    82 -7.372570820408339E-005
                    83 -5.708583208148260E-005
                    84  1.044943091273128E-005
                    85 -2.291024225020050E-005
                    86 -1.294349652245360E-004
                    87  1.475212338730606E-005
                    88  5.332519186661438E-006
                    89  1.668416979930390E-005
                    90 -7.015764564002248E-005
                    91 -1.154478581042174E-005
                    92 -5.392119897058628E-005
                    93 -6.134930739544244E-004
                    94  2.539288937864547E-004
                    95 -7.361239587134257E-004
                    96  4.638145495453590E-004
                    97 -1.671405323846781E-004
                    98  3.505727849747927E-004
                    99  2.826324085188628E-004
                   100  5.215977598254398E-005
                   101  3.551044386618695E-004
                   102 -2.257439455351260E-003
                   103 -2.198955537291232E-004
                   104  1.677323932204063E-004
                   105 -6.043495336972743E-005
                   106 -1.849086084997770E-006
                   107 -5.570162066519787E-006
                   108  3.821094445404330E-005
                   109 -7.103914855592449E-006
                   110 -4.242975153120156E-005
                   111 -2.049257682852976E-004
                   112  1.861613258420007E-005
                   113 -2.265047748063612E-004
                   114  5.571052694945328E-005
                   115 -1.741082712391275E-005
                   116  2.777368782528413E-005
                   117  1.422288627134149E-005
                   118  1.854656911600706E-005
                   119 -1.147279475296776E-005
                   120 -1.523878274136887E-005
                   121 -6.896886292508853E-006
                   122 -2.987937782305187E-004
                   123 -7.576914809164455E-004
                   124  1.064798521635570E-004
                   125  8.561728739463552E-004
                   126 -4.344458092745338E-004
                   127 -4.864195814564458E-005
                   128 -2.702840622295549E-005
                   129  5.416235917870770E-004
                   130 -2.964241630367096E-005
                   131  2.528049815468256E-004
                   132  2.696129369665874E-003
                   133  6.135960139301246E-005
                   134  4.247029675431623E-004
                   135  2.854304105508788E-005
                   136  7.782102627158652E-007
                   137 -4.908046846845908E-006
                   138 -1.549994432172904E-005
                   139  8.958077157713341E-006
                   140  2.397994715845758E-004
                   141  3.578768213403594E-004
                   142  2.058296213900782E-006
                   143 -3.670461334387948E-004
                   144 -2.725745492983142E-005
                   145 -3.464613801610262E-005
                   146 -2.206631490190780E-005
                   147 -2.530193423092431E-006
                   148 -1.336887739883009E-005
                   149 -4.928714887071935E-006
                   150 -7.960465835454324E-005
                   151 -2.233421256849091E-006
                   152 -1.373533951774517E-004
                   153 -2.277292029075343E-004
                   154 -2.317663642351878E-005
                   155  4.846453553183152E-004
                   156 -3.517182901171688E-004
                   157 -3.713380058737873E-005
                   158 -5.795730604559064E-005
                   159 -1.633614359491086E-004
                   160 -3.557658049202817E-005
                   161  2.310867986566496E-004
                   162 -1.003016305188251E-003
                   163  2.193726153331427E-005
                   164  9.080167138466007E-004
                   165 -1.731533686340299E-005
                   166  8.152142875539185E-006
                   167  2.556792295467354E-006
                   168  1.598729253430562E-005
                   169  5.474184767542838E-006
                   170 -7.718220293288291E-005
                   171 -3.384949226416642E-005
                   172  1.000702558493779E-005
                   173  1.891148577817031E-005
                   174  7.515401638944208E-006
                   175 -1.084755212540126E-005
                   176 -6.066040927570701E-006
                   177  8.971553232161047E-007
                   178 -5.771154602817424E-006
                   179  2.660716159879921E-007
                   180 -5.488360748084530E-006
                   181 -3.583197015961152E-006
                   182 -1.503793318808627E-004
                   183 -4.665569240522541E-004
                   184  3.569649986723650E-005
                   185  1.930482233554548E-004
                   186 -1.912538671807314E-005
                   187 -1.662295536095743E-005
                   188 -8.356311033950626E-005
                   189  9.105736822515002E-005
                   190 -8.050789502288867E-006
                   191  3.716352819988073E-004
                   192 -4.155435799595447E-004
                   193 -1.742263987966896E-004
                   194  2.026853108742967E-003
                   195 -7.093634711565224E-006
                   196  3.973340832594463E-006
                   197  3.380026420232512E-007
                   198  2.124077858013928E-006
                   199 -5.767131316114701E-007
                   200 -1.281904068485263E-004
                   201 -3.050691725017340E-004
                   202  1.280919816279748E-005
                   203  6.597802900097911E-005
                   204  2.623230689162707E-005
                   205  3.505366565375460E-006
                   206  2.717114342233062E-006
                   207  4.362806806822502E-008
                   208  2.369159835534026E-005
                   209 -1.866042735798117E-006
                   210 -4.734271697677661E-006
                   211 -3.261314654413660E-006
                   212  1.426434794948278E-003
                   213 -1.553114872381293E-003
                   214  1.232487067426043E-004
                   215  3.622632248867863E-004
                   216  7.070783084233105E-005
                   217  2.131719143615961E-003
                   218 -1.875224350598578E-003
                   219  1.651287958511745E-004
                   220  4.127420201304542E-005
                   221 -4.485120341465001E-004
                   222 -4.712692892312077E-004
                   223 -2.241047409574047E-004
                   224 -9.362963570245673E-005
                   225  4.946659944234411E-006
                   226  3.998767606332377E-005
                   227 -3.054090084105001E-004
                   228 -4.936852550110114E-004
                   229 -3.167926009131409E-005
                   230  1.483157753895891E-005
                   231 -4.914921074915192E-005
                   232 -1.454400127971849E-006
                   233 -6.917836524732990E-004
                   234 -1.403106769006110E-006
                   235 -1.242875883529169E-006
                   236  2.082881526280953E-006
                   237 -1.258777567666714E-004
                   238 -2.666818609386616E-004
                   239  1.799362747014625E-005
                   240 -3.721417068222659E-006
                   241  2.058830012243154E-005
                   242 -1.066348807421584E-005
                   243  1.197495103652802E-004
                   244  3.037919975080198E-005
                   245  1.596830744740232E-006
                   246  1.656003911161390E-006
 Sym= __2_A__
 Ene=  0.000000000000000E+000
 Spin= Alpha
 Occup=    2.00000000000000     
                     1 -5.097864963664133E-006
                     2 -8.754460001366855E-005
                     3  1.633608435661196E-003
                     4 -2.131089928729203E-005
                     5  1.196695270950901E-003
                     6  1.635668572499619E-003
                     7  1.251485172886828E-005
                     8 -2.063085597108098E-004
                     9 -1.554554056125358E-004
                    10  1.064975955935522E-004
                    11 -2.943138572025272E-005
                    12  1.454608611532209E-004
                    13  1.339009704396809E-004
                    14  4.560830970532954E-005
                    15 -6.311635518770299E-005
                    16  1.559848756408931E-005
                    17 -7.209100532990952E-006
                    18  4.540971429216000E-005
                    19 -1.571056688562991E-006
                    20  1.207250061263541E-004
                    21 -7.183258824804595E-005
                    22  2.880893914398090E-005
                    23  1.206555134455172E-004
                    24 -6.352446202352676E-005
                    25 -5.990424408897103E-005
                    26  1.290775773545722E-004
                    27 -4.172461549723976E-006
                    28 -1.280163528886148E-005
                    29 -4.480701482796481E-006
                    30  1.250872854158251E-004
                    31  3.611623766223649E-005
                    32   1.00091754802936     
                    33  8.706187121633411E-003
                    34  2.826113401238238E-003
                    35 -8.347079473894266E-003
                    36 -2.187417103525582E-003
                    37  4.852556562875941E-004
                    38  6.742708456701312E-005
                    39  1.068119780207951E-003
                    40 -1.809398392442419E-004
                    41 -1.702018670366701E-004
                    42  3.047492600431292E-003
                    43 -1.250266635928010E-004
                    44 -1.811890774075981E-004
                    45  3.044822982876261E-004
                    46  1.849685516967993E-005
                    47 -4.830362635372739E-005
                    48  3.729600704985616E-004
                    49 -1.295744704952348E-005
                    50 -1.000481773890882E-003
                    51 -2.007146553009493E-004
                    52  1.423933067809396E-004
                    53 -1.445195515771274E-004
                    54  2.007580246239111E-005
                    55 -1.050741649871584E-005
                    56  2.846896390429155E-004
                    57 -1.103848448758171E-005
                    58 -1.884230168301366E-005
                    59 -1.694128833790392E-005
                    60  7.207114678839236E-005
                    61  1.362138033467737E-005
                    62  1.400313269436286E-002
                    63 -1.775100876666415E-003
                    64 -2.865390746495280E-004
                    65  2.945225177856356E-003
                    66 -1.728479849047396E-004
                    67  4.687568700854964E-005
                    68  3.170542609661232E-004
                    69  3.282367000491967E-005
                    70 -2.777570337786114E-005
                    71  3.834839715994686E-004
                    72  4.286358949676026E-004
                    73  1.344373559491828E-004
                    74 -1.808693243215950E-003
                    75 -4.425753284489095E-006
                    76  2.564384549476358E-005
                    77  7.056376827403214E-006
                    78 -4.009697023386174E-005
                    79 -3.090656958094275E-006
                    80 -4.662975250287359E-004
                    81 -4.090452602691159E-004
                    82  2.098112107209195E-005
                    83  7.889006955637824E-004
                    84  8.110819968557583E-006
                    85  4.361287240980431E-005
                    86  1.076129782898753E-004
                    87  1.483851443890915E-005
                    88 -1.877767011010598E-005
                    89 -2.042921601459688E-005
                    90 -2.431588339702283E-005
                    91  1.995963596174502E-006
                    92  1.568795995893029E-002
                    93 -1.705455797693676E-003
                    94 -3.370301982054791E-004
                    95  3.261726771290024E-003
                    96 -2.146423025878456E-004
                    97  9.171828802392064E-005
                    98 -3.044263058506181E-004
                    99 -3.948086127197896E-005
                   100  5.198416932116589E-005
                   101 -6.543719025537080E-004
                   102  5.642849035238443E-005
                   103 -1.167379583402370E-004
                   104  1.674720660830210E-003
                   105  1.402777453798725E-006
                   106 -1.415774391209067E-005
                   107 -7.812234921441681E-007
                   108 -3.166785739148856E-005
                   109 -2.034526654534235E-006
                   110 -3.183714628647219E-004
                   111  4.869000473937737E-004
                   112 -2.583894054366000E-005
                   113  6.904357353200400E-004
                   114 -3.911875288292521E-005
                   115 -5.015754963571875E-005
                   116  9.556535422272531E-005
                   117 -8.608772144753195E-006
                   118  2.077729395291426E-005
                   119 -7.216291397096202E-006
                   120 -3.280176625012614E-005
                   121  1.628228364371626E-006
                   122 -1.260765596611462E-004
                   123 -7.651065757545079E-004
                   124  2.411614823354748E-004
                   125 -2.790043082187687E-004
                   126 -1.645064984916208E-004
                   127  1.698584977030005E-005
                   128 -5.309757882283078E-005
                   129  6.096813468154923E-004
                   130 -1.630941664673238E-005
                   131  7.782677602024795E-005
                   132  6.894600369958485E-004
                   133 -3.595706398957549E-005
                   134  4.170193272429313E-004
                   135  4.565008597403058E-007
                   136  4.010553296254380E-005
                   137  1.396403795888779E-006
                   138 -3.379225678476090E-005
                   139 -3.309714511852770E-006
                   140  1.990497941759034E-004
                   141 -2.618100090345850E-004
                   142 -1.587746762598487E-006
                   143 -2.493556765970576E-004
                   144  2.201439702493131E-005
                   145 -1.639062300822575E-005
                   146  1.487850305975716E-005
                   147 -2.270816921655475E-006
                   148 -9.445086870845639E-006
                   149 -3.789484992410365E-006
                   150 -2.159697356100771E-005
                   151  7.021401662442170E-007
                   152 -8.278480898815442E-005
                   153 -7.309686861261000E-004
                   154  2.502184601199193E-004
                   155 -3.021332172934636E-004
                   156 -1.419172933624804E-004
                   157 -8.503006806809660E-007
                   158  3.425498727180971E-005
                   159  5.459911257968900E-004
                   160  4.311597415316610E-006