[Molden Format]
[Atoms] AU
  N     1    7    -0.0042980800    0.0002478700   -4.3373505500        
  C     2    6    -0.0027206200   -0.0016013700   -1.7574402600        
  C     3    6     0.0866409900   -2.3289806800   -0.4151046800        
  C     4    6    -0.0904386100    2.3238511500   -0.4116613400        
  C     5    6     0.1395052000   -2.2977138300    2.1723826400        
  C     6    6    -0.1401386700    2.2888749500    2.1758412200        
  C     7    6     0.0004787200   -0.0053519600    3.4750953600        
  H     8    1    -1.2234122700   -1.1388249400   -5.3467301400        
  H     9    1     1.2135818500    1.1407676100   -5.3465862400        
  H    10    1     0.1874338700   -4.0565433700   -1.4568733500        
  H    11    1    -0.1925038400    4.0529054200   -1.4508283200        
  H    12    1     0.2828724200   -4.0348955800    3.2029433500        
  H    13    1    -0.2822440000    4.0245774200    3.2090657800        
  H    14    1     0.0017186400   -0.0068055600    5.5030283700        
[5D]
[7F]
[GTO]
  1  0
   s    12 1.00
  0.114200D+05  0.172695D-04
  0.171200D+04  0.134411D-03
  0.389300D+03  0.694561D-03
  0.110000D+03  0.278531D-02
  0.355700D+02  0.863457D-02
  0.125400D+02  0.199805D-01
  0.464400D+01  0.262908D-01
  0.129300D+01 -0.243845D-01
  0.511800D+00 -0.924934D-01
  0.178700D+00 -0.339683D+00
  0.246240D-01  0.345111D+00
  0.112530D-01  0.752750D+00
   s    10 1.00
  0.114200D+05  0.523000D-03
  0.171200D+04  0.404500D-02
  0.389300D+03  0.207750D-01
  0.110000D+03  0.807269D-01
  0.355700D+02  0.233074D+00
  0.125400D+02  0.433501D+00
  0.464400D+01  0.347472D+00
  0.129300D+01  0.412620D-01
  0.511800D+00 -0.850799D-02
  0.178700D+00  0.238400D-02
   s    10 1.00
  0.114200D+05 -0.115000D-03
  0.171200D+04 -0.895000D-03
  0.389300D+03 -0.462400D-02
  0.110000D+03 -0.185280D-01
  0.355700D+02 -0.573390D-01
  0.125400D+02 -0.132076D+00
  0.464400D+01 -0.172510D+00
  0.129300D+01  0.151814D+00
  0.511800D+00  0.599944D+00
  0.178700D+00  0.387462D+00
   s     1 1.00
  0.129300D+01  0.100000D+01
   s     1 1.00
  0.178700D+00  0.100000D+01
   p     5 1.00
  0.266300D+02  0.146700D-01
  0.594800D+01  0.917640D-01
  0.174200D+01  0.298683D+00
  0.555000D+00  0.498487D+00
  0.172500D+00  0.337023D+00
   p     1 1.00
  0.174200D+01  0.100000D+01
   p     1 1.00
  0.555000D+00  0.100000D+01
   d     1 1.00
  0.165400D+01  0.100000D+01
   d     1 1.00
  0.469000D+00  0.100000D+01
   f     1 1.00
  0.109300D+01  0.100000D+01
  
  2  0
   s    10 1.00
  0.823600D+04  0.531000D-03
  0.123500D+04  0.410800D-02
  0.280800D+03  0.210870D-01
  0.792700D+02  0.818530D-01
  0.255900D+02  0.234817D+00
  0.899700D+01  0.434401D+00
  0.331900D+01  0.346129D+00
  0.905900D+00  0.393780D-01
  0.364300D+00 -0.898300D-02
  0.128500D+00  0.238500D-02
   s    10 1.00
  0.823600D+04 -0.113000D-03
  0.123500D+04 -0.878000D-03
  0.280800D+03 -0.454000D-02
  0.792700D+02 -0.181330D-01
  0.255900D+02 -0.557600D-01
  0.899700D+01 -0.126895D+00
  0.331900D+01 -0.170352D+00
  0.905900D+00  0.140382D+00
  0.364300D+00  0.598684D+00
  0.128500D+00  0.395389D+00
   s     1 1.00
  0.905900D+00  0.100000D+01
   s     1 1.00
  0.364300D+00  0.100000D+01
   p     5 1.00
  0.187100D+02  0.140310D-01
  0.413300D+01  0.868660D-01
  0.120000D+01  0.290216D+00
  0.382700D+00  0.501008D+00
  0.120900D+00  0.343406D+00
   p     1 1.00
  0.382700D+00  0.100000D+01
   p     1 1.00
  0.120900D+00  0.100000D+01
   d     1 1.00
  0.109700D+01  0.100000D+01
   d     1 1.00
  0.318000D+00  0.100000D+01
   f     1 1.00
  0.761000D+00  0.100000D+01
  
  3  0
   s    10 1.00
  0.823600D+04  0.531000D-03
  0.123500D+04  0.410800D-02
  0.280800D+03  0.210870D-01
  0.792700D+02  0.818530D-01
  0.255900D+02  0.234817D+00
  0.899700D+01  0.434401D+00
  0.331900D+01  0.346129D+00
  0.905900D+00  0.393780D-01
  0.364300D+00 -0.898300D-02
  0.128500D+00  0.238500D-02
   s    10 1.00
  0.823600D+04 -0.113000D-03
  0.123500D+04 -0.878000D-03
  0.280800D+03 -0.454000D-02
  0.792700D+02 -0.181330D-01
  0.255900D+02 -0.557600D-01
  0.899700D+01 -0.126895D+00
  0.331900D+01 -0.170352D+00
  0.905900D+00  0.140382D+00
  0.364300D+00  0.598684D+00
  0.128500D+00  0.395389D+00
   s     1 1.00
  0.905900D+00  0.100000D+01
   s     1 1.00
  0.364300D+00  0.100000D+01
   p     5 1.00
  0.187100D+02  0.140310D-01
  0.413300D+01  0.868660D-01
  0.120000D+01  0.290216D+00
  0.382700D+00  0.501008D+00
  0.120900D+00  0.343406D+00
   p     1 1.00
  0.382700D+00  0.100000D+01
   p     1 1.00
  0.120900D+00  0.100000D+01
   d     1 1.00
  0.109700D+01  0.100000D+01
   d     1 1.00
  0.318000D+00  0.100000D+01
   f     1 1.00
  0.761000D+00  0.100000D+01
  
  4  0
   s    10 1.00
  0.823600D+04  0.531000D-03
  0.123500D+04  0.410800D-02
  0.280800D+03  0.210870D-01
  0.792700D+02  0.818530D-01
  0.255900D+02  0.234817D+00
  0.899700D+01  0.434401D+00
  0.331900D+01  0.346129D+00
  0.905900D+00  0.393780D-01
  0.364300D+00 -0.898300D-02
  0.128500D+00  0.238500D-02
   s    10 1.00
  0.823600D+04 -0.113000D-03
  0.123500D+04 -0.878000D-03
  0.280800D+03 -0.454000D-02
  0.792700D+02 -0.181330D-01
  0.255900D+02 -0.557600D-01
  0.899700D+01 -0.126895D+00
  0.331900D+01 -0.170352D+00
  0.905900D+00  0.140382D+00
  0.364300D+00  0.598684D+00
  0.128500D+00  0.395389D+00
   s     1 1.00
  0.905900D+00  0.100000D+01
   s     1 1.00
  0.364300D+00  0.100000D+01
   p     5 1.00
  0.187100D+02  0.140310D-01
  0.413300D+01  0.868660D-01
  0.120000D+01  0.290216D+00
  0.382700D+00  0.501008D+00
  0.120900D+00  0.343406D+00
   p     1 1.00
  0.382700D+00  0.100000D+01
   p     1 1.00
  0.120900D+00  0.100000D+01
   d     1 1.00
  0.109700D+01  0.100000D+01
   d     1 1.00
  0.318000D+00  0.100000D+01
   f     1 1.00
  0.761000D+00  0.100000D+01
  
  5  0
   s    10 1.00
  0.823600D+04  0.531000D-03
  0.123500D+04  0.410800D-02
  0.280800D+03  0.210870D-01
  0.792700D+02  0.818530D-01
  0.255900D+02  0.234817D+00
  0.899700D+01  0.434401D+00
  0.331900D+01  0.346129D+00
  0.905900D+00  0.393780D-01
  0.364300D+00 -0.898300D-02
  0.128500D+00  0.238500D-02
   s    10 1.00
  0.823600D+04 -0.113000D-03
  0.123500D+04 -0.878000D-03
  0.280800D+03 -0.454000D-02
  0.792700D+02 -0.181330D-01
  0.255900D+02 -0.557600D-01
  0.899700D+01 -0.126895D+00
  0.331900D+01 -0.170352D+00
  0.905900D+00  0.140382D+00
  0.364300D+00  0.598684D+00
  0.128500D+00  0.395389D+00
   s     1 1.00
  0.905900D+00  0.100000D+01
   s     1 1.00
  0.364300D+00  0.100000D+01
   p     5 1.00
  0.187100D+02  0.140310D-01
  0.413300D+01  0.868660D-01
  0.120000D+01  0.290216D+00
  0.382700D+00  0.501008D+00
  0.120900D+00  0.343406D+00
   p     1 1.00
  0.382700D+00  0.100000D+01
   p     1 1.00
  0.120900D+00  0.100000D+01
   d     1 1.00
  0.109700D+01  0.100000D+01
   d     1 1.00
  0.318000D+00  0.100000D+01
   f     1 1.00
  0.761000D+00  0.100000D+01
  
  6  0
   s    10 1.00
  0.823600D+04  0.531000D-03
  0.123500D+04  0.410800D-02
  0.280800D+03  0.210870D-01
  0.792700D+02  0.818530D-01
  0.255900D+02  0.234817D+00
  0.899700D+01  0.434401D+00
  0.331900D+01  0.346129D+00
  0.905900D+00  0.393780D-01
  0.364300D+00 -0.898300D-02
  0.128500D+00  0.238500D-02
   s    10 1.00
  0.823600D+04 -0.113000D-03
  0.123500D+04 -0.878000D-03
  0.280800D+03 -0.454000D-02
  0.792700D+02 -0.181330D-01
  0.255900D+02 -0.557600D-01
  0.899700D+01 -0.126895D+00
  0.331900D+01 -0.170352D+00
  0.905900D+00  0.140382D+00
  0.364300D+00  0.598684D+00
  0.128500D+00  0.395389D+00
   s     1 1.00
  0.905900D+00  0.100000D+01
   s     1 1.00
  0.364300D+00  0.100000D+01
   p     5 1.00
  0.187100D+02  0.140310D-01
  0.413300D+01  0.868660D-01
  0.120000D+01  0.290216D+00
  0.382700D+00  0.501008D+00
  0.120900D+00  0.343406D+00
   p     1 1.00
  0.382700D+00  0.100000D+01
   p     1 1.00
  0.120900D+00  0.100000D+01
   d     1 1.00
  0.109700D+01  0.100000D+01
   d     1 1.00
  0.318000D+00  0.100000D+01
   f     1 1.00
  0.761000D+00  0.100000D+01
  
  7  0
   s    10 1.00
  0.823600D+04  0.531000D-03
  0.123500D+04  0.410800D-02
  0.280800D+03  0.210870D-01
  0.792700D+02  0.818530D-01
  0.255900D+02  0.234817D+00
  0.899700D+01  0.434401D+00
  0.331900D+01  0.346129D+00
  0.905900D+00  0.393780D-01
  0.364300D+00 -0.898300D-02
  0.128500D+00  0.238500D-02
   s    10 1.00
  0.823600D+04 -0.113000D-03
  0.123500D+04 -0.878000D-03
  0.280800D+03 -0.454000D-02
  0.792700D+02 -0.181330D-01
  0.255900D+02 -0.557600D-01
  0.899700D+01 -0.126895D+00
  0.331900D+01 -0.170352D+00
  0.905900D+00  0.140382D+00
  0.364300D+00  0.598684D+00
  0.128500D+00  0.395389D+00
   s     1 1.00
  0.905900D+00  0.100000D+01
   s     1 1.00
  0.364300D+00  0.100000D+01
   p     5 1.00
  0.187100D+02  0.140310D-01
  0.413300D+01  0.868660D-01
  0.120000D+01  0.290216D+00
  0.382700D+00  0.501008D+00
  0.120900D+00  0.343406D+00
   p     1 1.00
  0.382700D+00  0.100000D+01
   p     1 1.00
  0.120900D+00  0.100000D+01
   d     1 1.00
  0.109700D+01  0.100000D+01
   d     1 1.00
  0.318000D+00  0.100000D+01
   f     1 1.00
  0.761000D+00  0.100000D+01
  
  8  0
   s     4 1.00
  0.130100D+02  0.196850D-01
  0.196200D+01  0.137977D+00
  0.444600D+00  0.478148D+00
  0.122000D+00  0.501240D+00
   s     1 1.00
  0.122000D+00  0.100000D+01
   p     1 1.00
  0.727000D+00  0.100000D+01
  
  9  0
   s     4 1.00
  0.130100D+02  0.196850D-01
  0.196200D+01  0.137977D+00
  0.444600D+00  0.478148D+00
  0.122000D+00  0.501240D+00
   s     1 1.00
  0.122000D+00  0.100000D+01
   p     1 1.00
  0.727000D+00  0.100000D+01
  
 10  0
   s     4 1.00
  0.130100D+02  0.196850D-01
  0.196200D+01  0.137977D+00
  0.444600D+00  0.478148D+00
  0.122000D+00  0.501240D+00
   s     1 1.00
  0.122000D+00  0.100000D+01
   p     1 1.00
  0.727000D+00  0.100000D+01
  
 11  0
   s     4 1.00
  0.130100D+02  0.196850D-01
  0.196200D+01  0.137977D+00
  0.444600D+00  0.478148D+00
  0.122000D+00  0.501240D+00
   s     1 1.00
  0.122000D+00  0.100000D+01
   p     1 1.00
  0.727000D+00  0.100000D+01
  
 12  0
   s     4 1.00
  0.130100D+02  0.196850D-01
  0.196200D+01  0.137977D+00
  0.444600D+00  0.478148D+00
  0.122000D+00  0.501240D+00
   s     1 1.00
  0.122000D+00  0.100000D+01
   p     1 1.00
  0.727000D+00  0.100000D+01
  
 13  0
   s     4 1.00
  0.130100D+02  0.196850D-01
  0.196200D+01  0.137977D+00
  0.444600D+00  0.478148D+00
  0.122000D+00  0.501240D+00
   s     1 1.00
  0.122000D+00  0.100000D+01
   p     1 1.00
  0.727000D+00  0.100000D+01
  
 14  0
   s     4 1.00
  0.130100D+02  0.196850D-01
  0.196200D+01  0.137977D+00
  0.444600D+00  0.478148D+00
  0.122000D+00  0.501240D+00
   s     1 1.00
  0.122000D+00  0.100000D+01
   p     1 1.00
  0.727000D+00  0.100000D+01
  
[MO]
 Sym= __1_A__
 Ene=   1.00000000000000     
 Spin= Alpha
 Occup=    1.00000000000000     
                     1  5.439719509922681E-005
                     2  0.997853144927893     
                     3  1.148023631598539E-002
                     4  2.128727234996248E-003
                     5  1.211974388672147E-003
                     6  2.469050956671220E-006
                     7 -2.895780514019917E-006
                     8  4.021787651768939E-003
                     9 -1.452577094504705E-007
                    10  1.750678724444884E-007
                    11 -2.293290271746312E-004
                    12 -2.474110015565803E-007
                    13  2.556516702653442E-007
                    14 -4.006959585772877E-004
                    15  2.041474080810115E-004
                    16  2.989528839337307E-007
                    17 -3.059676031421315E-007
                    18 -1.365442455973694E-005
                    19  1.026002099526509E-004
                    20  1.212221339456355E-004
                    21 -2.497684991114422E-007
                    22  1.423461679001700E-007
                    23 -9.614596993384901E-007
                    24 -5.202500755790597E-004
                    25 -1.897105053366399E-004
                    26  1.809354045441679E-007
                    27 -2.969505717655899E-007
                    28  2.575442302195424E-005
                    29 -6.867199424370193E-005
                    30  4.165965030368157E-008
                    31 -7.464132477843846E-008
                    32 -2.608467752497583E-004
                    33  2.956336639544905E-003
                    34  1.298615160267744E-004
                    35 -5.050295921877557E-004
                    36 -4.353201150493048E-006
                    37  5.117193950677549E-006
                    38 -7.111545987202807E-003
                    39  5.537723217125415E-008
                    40 -1.113696111018512E-007
                    41  7.547951930543353E-005
                    42  2.535011506412279E-006
                    43 -2.932432314449826E-006
                    44  4.159501798955093E-003
                    45  3.774196006770771E-004
                    46  3.214835068690447E-007
                    47 -5.322528934391710E-007
                    48  1.138042303233090E-004
                    49 -1.238551909880782E-005
                    50  4.607774147803892E-004
                    51  6.370085509500081E-007
                    52 -7.226694292355702E-007
                    53 -1.035665312623107E-004
                    54  1.191352210021213E-004
                    55 -7.704594526491974E-005
                    56  3.654885726260423E-008
                    57 -1.758030973610672E-007
                    58  5.394351065021970E-005
                    59 -2.437434386545658E-005
                    60 -1.916323766112307E-008
                    61 -6.956312526280406E-008
                    62 -2.019858362481344E-004
                    63 -1.747843448383177E-003
                    64  1.764563372140099E-005
                    65  7.458898873947133E-004
                    66 -1.695964063705741E-005
                    67 -9.025335123691646E-004
                    68  1.173998639050383E-003
                    69  5.677243770120576E-005
                    70  5.829180530942132E-005
                    71  3.169508920247193E-004
                    72  4.700360410041987E-005
                    73 -6.490801646409559E-004
                    74 -2.457079031568161E-004
                    75  9.332728825942643E-005
                    76  2.706632272216967E-006
                    77 -1.231258322038473E-005
                    78  3.731099832605694E-005
                    79  3.043946319632458E-007
                    80  4.042463691359853E-005
                    81 -2.913822290452718E-005
                    82  7.176213482206322E-005
                    83  7.046640739466086E-006
                    84  3.524449315964658E-005
                    85 -8.120097833476904E-005
                    86  6.312868548248669E-006
                    87 -1.075318727225908E-005
                    88  2.097434102035550E-005
                    89 -6.770434401716563E-006
                    90  2.110665479601130E-006
                    91  2.119674871681853E-005
                    92 -2.019469027666222E-004
                    93 -1.747687513502626E-003
                    94  1.782174927072639E-005
                    95  7.453250031850912E-004
                    96  1.839335839471587E-005
                    97  9.008705008833669E-004
                    98  1.175387162486661E-003
                    99 -5.636789068844325E-005
                   100 -5.889832448858883E-005
                   101  3.162723824715467E-004
                   102 -4.726564724832923E-005
                   103  6.488188185051608E-004
                   104 -2.445400538164066E-004
                   105  9.332888666009522E-005
                   106 -2.553570954985289E-006
                   107  1.204508749534983E-005
                   108  3.732716795302720E-005
                   109  3.226189541808713E-007
                   110  3.971165538659361E-005
                   111  2.928076563144592E-005
                   112 -7.203056778709796E-005
                   113  6.884316636069694E-006
                   114  3.511026614982421E-005
                   115 -8.118382296258939E-005
                   116 -6.122992941436900E-006
                   117  1.043618019618224E-005
                   118  2.094121250528416E-005
                   119 -6.708752457580072E-006
                   120 -2.130666160846932E-006
                   121 -2.124257280891348E-005
                   122 -1.567759568945487E-004
                   123  1.633356874673069E-005
                   124  9.288331654267805E-005
                   125  2.080994110898054E-004
                   126 -5.794895265327119E-005
                   127  5.087763184907668E-005
                   128 -8.545356671850307E-004
                   129 -1.714960024151717E-006
                   130  1.812636961929730E-005
                   131  2.675249152100584E-004
                   132  1.814888758419994E-005
                   133 -6.937801824168545E-005
                   134  6.332835989961393E-004
                   135 -6.676746691862686E-006
                   136  2.264591422110391E-006
                   137  5.228450741083854E-006
                   138 -3.680055277614980E-007
                   139  1.844994258287680E-006
                   140 -1.543579615013653E-004
                   141 -1.632524596581536E-005
                   142  1.247668407057926E-004
                   143  2.637480201407724E-005
                   144 -8.367808881122816E-006
                   145 -2.970253884170311E-005
                   146 -4.605713937205266E-007
                   147 -4.335077428022882E-006
                   148 -8.506359830746181E-006
                   149 -1.676507549074963E-006
                   150 -8.720386538253809E-007
                   151 -2.606831540363897E-006
                   152 -1.572867973375719E-004
                   153  1.452393012000527E-005
                   154  9.235710997214909E-005
                   155  2.113779358140871E-004
                   156  5.689315221961754E-005
                   157 -4.958810247533688E-005
                   158 -8.546459832376958E-004
                   159  2.088606669023510E-006
                   160 -1.891821623665963E-005
                   161  2.671337316932257E-004
                   162 -1.741809016154656E-005
                   163  6.904550633623803E-005
                   164  6.335933864901433E-004
                   165 -6.627305407383436E-006
                   166 -2.277761922856922E-006
                   167 -5.223064045923159E-006
                   168 -4.349133279001956E-007
                   169  1.833751129023257E-006
                   170 -1.545670258085882E-004
                   171  1.596060737049663E-005
                   172 -1.246911866605292E-004
                   173  2.615992968257994E-005
                   174 -8.545891623439501E-006
                   175 -2.962130961076912E-005
                   176  5.658419198492660E-007
                   177  4.260291296886837E-006
                   178 -8.546346984215307E-006
                   179 -1.679127115330337E-006
                   180  8.886631414159686E-007
                   181  2.630158637817396E-006
                   182 -1.337428700646267E-004
                   183 -3.633265624539546E-004
                   184  2.751719619033367E-005
                   185  2.208712149981966E-004
                   186 -3.662667873943043E-008
                   187  1.287393853504327E-007
                   188 -4.478440636550698E-005
                   189  4.260268044253065E-008
                   190 -4.968063897342632E-007
                   191  1.215405450482099E-005
                   192 -3.403712704190758E-009
                   193 -3.888438540764504E-008
                   194 -1.492383804719457E-005
                   195  2.014343772618098E-005
                   196  1.561225484443082E-008
                   197 -5.056837968431869E-009
                   198  8.044574193184756E-006
                   199  1.659304213101167E-006
                   200  4.321202150593650E-005
                   201  1.173682390864378E-008
                   202  1.648651013422373E-007
                   203  2.964196799339042E-005
                   204 -3.521063954558223E-006
                   205 -1.188468158967546E-005
                   206  1.753521193503201E-008
                   207 -3.484656450386787E-008
                   208  3.423616582725526E-006
                   209  2.032362247383299E-006
                   210  1.089610462993732E-009
                   211  2.874758930960502E-008
                   212  5.079542728832504E-003
                   213 -2.879270676444390E-003
                   214  4.242656130641562E-004
                   215  3.743712172574304E-004
                   216  4.078010284653950E-004
                   217  5.079508747510626E-003
                   218 -2.879257673220163E-003
                   219 -4.237639175186641E-004
                   220 -3.749555182171247E-004
                   221  4.077810633344796E-004
                   222 -6.893093771939566E-004
                   223 -1.969443944922253E-004
                   224  3.864907336863888E-006
                   225 -3.343651995027716E-005
                   226 -4.362476584935290E-005
                   227 -6.893809632138617E-004
                   228 -1.965441236513084E-004
                   229 -3.917902478603144E-006
                   230  3.347929130605751E-005
                   231 -4.360069492403253E-005
                   232 -2.663109953956370E-004
                   233 -3.039139051961863E-004
                   234 -2.926312090762602E-006
                   235 -1.209925958430566E-005
                   236  1.652545741104303E-006
                   237 -2.663563384017490E-004
                   238 -3.040805063824258E-004
                   239  2.924052033593576E-006
                   240  1.214655458349315E-005
                   241  1.718517204195822E-006
                   242  9.197656559613659E-005
                   243 -6.536091341358004E-005
                   244  9.910238315589453E-009
                   245 -3.482643263229987E-008
                   246  1.515243350656665E-005
 Sym= __2_A__
 Ene=   2.00000000000000     
 Spin= Alpha
 Occup=    1.00000000000000     
                     1 -2.418045554129434E-005
                     2 -1.158260345471698E-004
                     3  2.003721521285771E-003
                     4  6.242882647183619E-005
                     5  1.211106781079086E-003
                     6  1.456496047973879E-006
                     7 -1.713881173794351E-006
                     8  2.393793216450071E-003
                     9 -5.102007483793481E-008
                    10  6.117999531366603E-008
                    11 -8.849537803589115E-005
                    12 -1.108864114240023E-007
                    13  1.394329368710487E-007
                    14 -1.875074923549719E-004
                    15  5.018500746126148E-005
                    16  1.583302476481644E-008
                    17 -6.290652484860352E-008
                    18  2.626299119430542E-005
                    19 -2.910630990978884E-005
                    20 -1.600160629883642E-004
                    21 -4.080234156214078E-009
                    22  1.931290784734525E-007
                    23 -1.072916961694547E-004
                    24  1.366906903575275E-004
                    25  1.951971233972763E-004
                    26 -2.892962876107683E-007
                    27  4.162693516470492E-007
                    28 -3.886234063822112E-005
                    29 -3.128687569943776E-005
                    30  5.650040148396989E-008
                    31  1.125612962438756E-008
                    32   1.00105381616497     
                    33  8.996628818907948E-003
                    34  2.592536359211318E-003
                    35 -7.852092410829022E-003
                    36 -2.136076886284582E-006
                    37  2.497807919414107E-006
                    38 -3.493236321978488E-003
                    39  7.457422504727420E-007
                    40 -8.703398185719717E-007
                    41  1.221029698242997E-003
                    42  2.408830942028084E-006
                    43 -2.886589332493287E-006
                    44  3.929247775505380E-003
                    45  3.516698877398276E-004
                    46  6.274532342743536E-007
                    47 -1.566206294706791E-007
                    48 -4.041072579962878E-004
                    49  1.105774552071134E-005
                    50  4.040600456949391E-004
                    51 -7.340397841691429E-008
                    52 -1.088848666899346E-006
                    53  8.322882585977776E-004
                    54  9.213316601965939E-006
                    55  3.269567045676490E-004
                    56 -3.002703835726312E-007
                    57  7.742417810677660E-007
                    58 -1.849453503653437E-004
                    59  9.867302587423329E-006
                    60  1.300140764041115E-007
                    61  1.715295122946457E-007
                    62  9.969127919153895E-003
                    63 -1.889299663196237E-003
                    64 -2.734658116692961E-004
                    65  2.938963370329237E-003
                    66 -1.022912830262599E-006
                    67  1.913707687580515E-004
                    68 -8.943165983670172E-005
                    69 -3.763651447389027E-005
                    70  5.233967243226147E-004
                    71  8.825445189204626E-005
                    72  9.771799690732932E-005
                    73 -1.911313728943981E-003
                    74  1.159573676610129E-004
                    75 -2.136672480993238E-005
                    76  1.985870548604850E-006
                    77  1.908066578033189E-005
                    78  2.750023744629444E-005
                    79  2.760218022709577E-006
                    80  7.719544277454441E-004
                    81  3.646572242595828E-005
                    82 -4.301478547272482E-004
                    83 -1.779176105116477E-005
                    84 -1.911516135083248E-005
                    85  5.803733237423957E-005
                    86 -1.095812212151847E-006
                    87  3.339628756573531E-005
                    88 -1.150307653544755E-004
                    89 -1.924119331475664E-006
                    90  5.372370956018017E-006
                    91  5.060422607404462E-005
                    92  9.969100608524495E-003
                    93 -1.889381756150950E-003
                    94 -2.735130357242767E-004
                    95  2.939168795369285E-003
                    96  9.140729201145794E-007
                    97 -1.912441030112275E-004
                    98 -8.973411032440256E-005
                    99  3.774085450107643E-005
                   100 -5.235152575380534E-004
                   101  8.760678431600543E-005
                   102 -9.758475770031836E-005
                   103  1.911289819371294E-003
                   104  1.186581290266044E-004
                   105 -2.139551087511181E-005
                   106 -2.061134970923404E-006
                   107 -1.907671204688732E-005
                   108  2.746893734942016E-005
                   109  2.739953767489458E-006
                   110  7.731746881999366E-004
                   111 -3.483911460720636E-005
                   112  4.283269080108561E-004
                   113 -1.719776277380720E-005
                   114 -1.853792632895570E-005
                   115  5.814126928140600E-005
                   116  1.139217734974953E-006
                   117 -3.292578786232492E-005
                   118 -1.151981086099526E-004
                   119 -1.924167800411557E-006
                   120 -5.196210202076020E-006
                   121 -5.040400647542510E-005
                   122 -1.905011427692142E-004
                   123 -7.492996052785586E-004
                   124  2.279272863258162E-004
                   125 -1.680994169129817E-004
                   126 -9.614115814687676E-006
                   127 -3.351589012461968E-005
                   128 -2.125433751121736E-004
                   129  1.922614193136820E-005
                   130  2.273626912219088E-005
                   131  5.595969139783803E-004
                   132 -1.264956819980017E-005
                   133  3.058340708445017E-004
                   134  6.773713654415972E-004
                   135 -2.032915482680409E-005
                   136 -3.823456216705652E-006
                   137  4.877162816416026E-005
                   138  1.519044673902426E-005
                   139  3.650718663935606E-006
                   140 -3.038587559809979E-004
                   141 -1.670889856971680E-006
                   142 -2.424290086717795E-004
                   143 -2.504162611334376E-005
                   144 -1.770467446510449E-005
                   145 -4.933537964534124E-006
                   146  5.307734928222674E-006
                   147 -2.982217868494573E-005
                   148 -3.256810297276460E-005
                   149 -4.630748680862084E-006
                   150  6.038959667507056E-007
                   151 -6.979634919659865E-006
                   152 -1.902077408829069E-004
                   153 -7.483256955779682E-004
                   154  2.280112521476121E-004
                   155 -1.691958946590346E-004
                   156  9.355824031223469E-006
                   157  3.380808938268945E-005
                   158 -2.125111175236285E-004
                   159 -1.854960499597175E-005
                   160 -2.347331439958904E-005