[Molden Format]
[Atoms] AU
  N     1    7    -0.0042980800    0.0002478700   -4.3373505500        
  C     2    6    -0.0027206200   -0.0016013700   -1.7574402600        
  C     3    6     0.0866409900   -2.3289806800   -0.4151046800        
  C     4    6    -0.0904386100    2.3238511500   -0.4116613400        
  C     5    6     0.1395052000   -2.2977138300    2.1723826400        
  C     6    6    -0.1401386700    2.2888749500    2.1758412200        
  C     7    6     0.0004787200   -0.0053519600    3.4750953600        
  H     8    1    -1.2234122700   -1.1388249400   -5.3467301400        
  H     9    1     1.2135818500    1.1407676100   -5.3465862400        
  H    10    1     0.1874338700   -4.0565433700   -1.4568733500        
  H    11    1    -0.1925038400    4.0529054200   -1.4508283200        
  H    12    1     0.2828724200   -4.0348955800    3.2029433500        
  H    13    1    -0.2822440000    4.0245774200    3.2090657800        
  H    14    1     0.0017186400   -0.0068055600    5.5030283700        
[5D]
[7F]
[GTO]
  1  0
   s    12 1.00
  0.114200D+05  0.172695D-04
  0.171200D+04  0.134411D-03
  0.389300D+03  0.694561D-03
  0.110000D+03  0.278531D-02
  0.355700D+02  0.863457D-02
  0.125400D+02  0.199805D-01
  0.464400D+01  0.262908D-01
  0.129300D+01 -0.243845D-01
  0.511800D+00 -0.924934D-01
  0.178700D+00 -0.339683D+00
  0.246240D-01  0.345111D+00
  0.112530D-01  0.752750D+00
   s    10 1.00
  0.114200D+05  0.523000D-03
  0.171200D+04  0.404500D-02
  0.389300D+03  0.207750D-01
  0.110000D+03  0.807269D-01
  0.355700D+02  0.233074D+00
  0.125400D+02  0.433501D+00
  0.464400D+01  0.347472D+00
  0.129300D+01  0.412620D-01
  0.511800D+00 -0.850799D-02
  0.178700D+00  0.238400D-02
   s    10 1.00
  0.114200D+05 -0.115000D-03
  0.171200D+04 -0.895000D-03
  0.389300D+03 -0.462400D-02
  0.110000D+03 -0.185280D-01
  0.355700D+02 -0.573390D-01
  0.125400D+02 -0.132076D+00
  0.464400D+01 -0.172510D+00
  0.129300D+01  0.151814D+00
  0.511800D+00  0.599944D+00
  0.178700D+00  0.387462D+00
   s     1 1.00
  0.129300D+01  0.100000D+01
   s     1 1.00
  0.178700D+00  0.100000D+01
   p     5 1.00
  0.266300D+02  0.146700D-01
  0.594800D+01  0.917640D-01
  0.174200D+01  0.298683D+00
  0.555000D+00  0.498487D+00
  0.172500D+00  0.337023D+00
   p     1 1.00
  0.174200D+01  0.100000D+01
   p     1 1.00
  0.555000D+00  0.100000D+01
   d     1 1.00
  0.165400D+01  0.100000D+01
   d     1 1.00
  0.469000D+00  0.100000D+01
   f     1 1.00
  0.109300D+01  0.100000D+01
  
  2  0
   s    10 1.00
  0.823600D+04  0.531000D-03
  0.123500D+04  0.410800D-02
  0.280800D+03  0.210870D-01
  0.792700D+02  0.818530D-01
  0.255900D+02  0.234817D+00
  0.899700D+01  0.434401D+00
  0.331900D+01  0.346129D+00
  0.905900D+00  0.393780D-01
  0.364300D+00 -0.898300D-02
  0.128500D+00  0.238500D-02
   s    10 1.00
  0.823600D+04 -0.113000D-03
  0.123500D+04 -0.878000D-03
  0.280800D+03 -0.454000D-02
  0.792700D+02 -0.181330D-01
  0.255900D+02 -0.557600D-01
  0.899700D+01 -0.126895D+00
  0.331900D+01 -0.170352D+00
  0.905900D+00  0.140382D+00
  0.364300D+00  0.598684D+00
  0.128500D+00  0.395389D+00
   s     1 1.00
  0.905900D+00  0.100000D+01
   s     1 1.00
  0.364300D+00  0.100000D+01
   p     5 1.00
  0.187100D+02  0.140310D-01
  0.413300D+01  0.868660D-01
  0.120000D+01  0.290216D+00
  0.382700D+00  0.501008D+00
  0.120900D+00  0.343406D+00
   p     1 1.00
  0.382700D+00  0.100000D+01
   p     1 1.00
  0.120900D+00  0.100000D+01
   d     1 1.00
  0.109700D+01  0.100000D+01
   d     1 1.00
  0.318000D+00  0.100000D+01
   f     1 1.00
  0.761000D+00  0.100000D+01
  
  3  0
   s    10 1.00
  0.823600D+04  0.531000D-03
  0.123500D+04  0.410800D-02
  0.280800D+03  0.210870D-01
  0.792700D+02  0.818530D-01
  0.255900D+02  0.234817D+00
  0.899700D+01  0.434401D+00
  0.331900D+01  0.346129D+00
  0.905900D+00  0.393780D-01
  0.364300D+00 -0.898300D-02
  0.128500D+00  0.238500D-02
   s    10 1.00
  0.823600D+04 -0.113000D-03
  0.123500D+04 -0.878000D-03
  0.280800D+03 -0.454000D-02
  0.792700D+02 -0.181330D-01
  0.255900D+02 -0.557600D-01
  0.899700D+01 -0.126895D+00
  0.331900D+01 -0.170352D+00
  0.905900D+00  0.140382D+00
  0.364300D+00  0.598684D+00
  0.128500D+00  0.395389D+00
   s     1 1.00
  0.905900D+00  0.100000D+01
   s     1 1.00
  0.364300D+00  0.100000D+01
   p     5 1.00
  0.187100D+02  0.140310D-01
  0.413300D+01  0.868660D-01
  0.120000D+01  0.290216D+00
  0.382700D+00  0.501008D+00
  0.120900D+00  0.343406D+00
   p     1 1.00
  0.382700D+00  0.100000D+01
   p     1 1.00
  0.120900D+00  0.100000D+01
   d     1 1.00
  0.109700D+01  0.100000D+01
   d     1 1.00
  0.318000D+00  0.100000D+01
   f     1 1.00
  0.761000D+00  0.100000D+01
  
  4  0
   s    10 1.00
  0.823600D+04  0.531000D-03
  0.123500D+04  0.410800D-02
  0.280800D+03  0.210870D-01
  0.792700D+02  0.818530D-01
  0.255900D+02  0.234817D+00
  0.899700D+01  0.434401D+00
  0.331900D+01  0.346129D+00
  0.905900D+00  0.393780D-01
  0.364300D+00 -0.898300D-02
  0.128500D+00  0.238500D-02
   s    10 1.00
  0.823600D+04 -0.113000D-03
  0.123500D+04 -0.878000D-03
  0.280800D+03 -0.454000D-02
  0.792700D+02 -0.181330D-01
  0.255900D+02 -0.557600D-01
  0.899700D+01 -0.126895D+00
  0.331900D+01 -0.170352D+00
  0.905900D+00  0.140382D+00
  0.364300D+00  0.598684D+00
  0.128500D+00  0.395389D+00
   s     1 1.00
  0.905900D+00  0.100000D+01
   s     1 1.00
  0.364300D+00  0.100000D+01
   p     5 1.00
  0.187100D+02  0.140310D-01
  0.413300D+01  0.868660D-01
  0.120000D+01  0.290216D+00
  0.382700D+00  0.501008D+00
  0.120900D+00  0.343406D+00
   p     1 1.00
  0.382700D+00  0.100000D+01
   p     1 1.00
  0.120900D+00  0.100000D+01
   d     1 1.00
  0.109700D+01  0.100000D+01
   d     1 1.00
  0.318000D+00  0.100000D+01
   f     1 1.00
  0.761000D+00  0.100000D+01
  
  5  0
   s    10 1.00
  0.823600D+04  0.531000D-03
  0.123500D+04  0.410800D-02
  0.280800D+03  0.210870D-01
  0.792700D+02  0.818530D-01
  0.255900D+02  0.234817D+00
  0.899700D+01  0.434401D+00
  0.331900D+01  0.346129D+00
  0.905900D+00  0.393780D-01
  0.364300D+00 -0.898300D-02
  0.128500D+00  0.238500D-02
   s    10 1.00
  0.823600D+04 -0.113000D-03
  0.123500D+04 -0.878000D-03
  0.280800D+03 -0.454000D-02
  0.792700D+02 -0.181330D-01
  0.255900D+02 -0.557600D-01
  0.899700D+01 -0.126895D+00
  0.331900D+01 -0.170352D+00
  0.905900D+00  0.140382D+00
  0.364300D+00  0.598684D+00
  0.128500D+00  0.395389D+00
   s     1 1.00
  0.905900D+00  0.100000D+01
   s     1 1.00
  0.364300D+00  0.100000D+01
   p     5 1.00
  0.187100D+02  0.140310D-01
  0.413300D+01  0.868660D-01
  0.120000D+01  0.290216D+00
  0.382700D+00  0.501008D+00
  0.120900D+00  0.343406D+00
   p     1 1.00
  0.382700D+00  0.100000D+01
   p     1 1.00
  0.120900D+00  0.100000D+01
   d     1 1.00
  0.109700D+01  0.100000D+01
   d     1 1.00
  0.318000D+00  0.100000D+01
   f     1 1.00
  0.761000D+00  0.100000D+01
  
  6  0
   s    10 1.00
  0.823600D+04  0.531000D-03
  0.123500D+04  0.410800D-02
  0.280800D+03  0.210870D-01
  0.792700D+02  0.818530D-01
  0.255900D+02  0.234817D+00
  0.899700D+01  0.434401D+00
  0.331900D+01  0.346129D+00
  0.905900D+00  0.393780D-01
  0.364300D+00 -0.898300D-02
  0.128500D+00  0.238500D-02
   s    10 1.00
  0.823600D+04 -0.113000D-03
  0.123500D+04 -0.878000D-03
  0.280800D+03 -0.454000D-02
  0.792700D+02 -0.181330D-01
  0.255900D+02 -0.557600D-01
  0.899700D+01 -0.126895D+00
  0.331900D+01 -0.170352D+00
  0.905900D+00  0.140382D+00
  0.364300D+00  0.598684D+00
  0.128500D+00  0.395389D+00
   s     1 1.00
  0.905900D+00  0.100000D+01
   s     1 1.00
  0.364300D+00  0.100000D+01
   p     5 1.00
  0.187100D+02  0.140310D-01
  0.413300D+01  0.868660D-01
  0.120000D+01  0.290216D+00
  0.382700D+00  0.501008D+00
  0.120900D+00  0.343406D+00
   p     1 1.00
  0.382700D+00  0.100000D+01
   p     1 1.00
  0.120900D+00  0.100000D+01
   d     1 1.00
  0.109700D+01  0.100000D+01
   d     1 1.00
  0.318000D+00  0.100000D+01
   f     1 1.00
  0.761000D+00  0.100000D+01
  
  7  0
   s    10 1.00
  0.823600D+04  0.531000D-03
  0.123500D+04  0.410800D-02
  0.280800D+03  0.210870D-01
  0.792700D+02  0.818530D-01
  0.255900D+02  0.234817D+00
  0.899700D+01  0.434401D+00
  0.331900D+01  0.346129D+00
  0.905900D+00  0.393780D-01
  0.364300D+00 -0.898300D-02
  0.128500D+00  0.238500D-02
   s    10 1.00
  0.823600D+04 -0.113000D-03
  0.123500D+04 -0.878000D-03
  0.280800D+03 -0.454000D-02
  0.792700D+02 -0.181330D-01
  0.255900D+02 -0.557600D-01
  0.899700D+01 -0.126895D+00
  0.331900D+01 -0.170352D+00
  0.905900D+00  0.140382D+00
  0.364300D+00  0.598684D+00
  0.128500D+00  0.395389D+00
   s     1 1.00
  0.905900D+00  0.100000D+01
   s     1 1.00
  0.364300D+00  0.100000D+01
   p     5 1.00
  0.187100D+02  0.140310D-01
  0.413300D+01  0.868660D-01
  0.120000D+01  0.290216D+00
  0.382700D+00  0.501008D+00
  0.120900D+00  0.343406D+00
   p     1 1.00
  0.382700D+00  0.100000D+01
   p     1 1.00
  0.120900D+00  0.100000D+01
   d     1 1.00
  0.109700D+01  0.100000D+01
   d     1 1.00
  0.318000D+00  0.100000D+01
   f     1 1.00
  0.761000D+00  0.100000D+01
  
  8  0
   s     4 1.00
  0.130100D+02  0.196850D-01
  0.196200D+01  0.137977D+00
  0.444600D+00  0.478148D+00
  0.122000D+00  0.501240D+00
   s     1 1.00
  0.122000D+00  0.100000D+01
   p     1 1.00
  0.727000D+00  0.100000D+01
  
  9  0
   s     4 1.00
  0.130100D+02  0.196850D-01
  0.196200D+01  0.137977D+00
  0.444600D+00  0.478148D+00
  0.122000D+00  0.501240D+00
   s     1 1.00
  0.122000D+00  0.100000D+01
   p     1 1.00
  0.727000D+00  0.100000D+01
  
 10  0
   s     4 1.00
  0.130100D+02  0.196850D-01
  0.196200D+01  0.137977D+00
  0.444600D+00  0.478148D+00
  0.122000D+00  0.501240D+00
   s     1 1.00
  0.122000D+00  0.100000D+01
   p     1 1.00
  0.727000D+00  0.100000D+01
  
 11  0
   s     4 1.00
  0.130100D+02  0.196850D-01
  0.196200D+01  0.137977D+00
  0.444600D+00  0.478148D+00
  0.122000D+00  0.501240D+00
   s     1 1.00
  0.122000D+00  0.100000D+01
   p     1 1.00
  0.727000D+00  0.100000D+01
  
 12  0
   s     4 1.00
  0.130100D+02  0.196850D-01
  0.196200D+01  0.137977D+00
  0.444600D+00  0.478148D+00
  0.122000D+00  0.501240D+00
   s     1 1.00
  0.122000D+00  0.100000D+01
   p     1 1.00
  0.727000D+00  0.100000D+01
  
 13  0
   s     4 1.00
  0.130100D+02  0.196850D-01
  0.196200D+01  0.137977D+00
  0.444600D+00  0.478148D+00
  0.122000D+00  0.501240D+00
   s     1 1.00
  0.122000D+00  0.100000D+01
   p     1 1.00
  0.727000D+00  0.100000D+01
  
 14  0
   s     4 1.00
  0.130100D+02  0.196850D-01
  0.196200D+01  0.137977D+00
  0.444600D+00  0.478148D+00
  0.122000D+00  0.501240D+00
   s     1 1.00
  0.122000D+00  0.100000D+01
   p     1 1.00
  0.727000D+00  0.100000D+01
  
[MO]
 Sym= __1_A__
 Ene=  0.000000000000000E+000
 Spin= Alpha
 Occup=    2.00000000000000     
                     1  5.439718348236975E-005
                     2  0.997853144959305     
                     3  1.148023613346185E-002
                     4  2.128727241394230E-003
                     5  1.211974642239525E-003
                     6  2.469050946366774E-006
                     7 -2.895780502618114E-006
                     8  4.021787634560372E-003
                     9 -1.452577357627229E-007
                    10  1.750679044277543E-007
                    11 -2.293290696525593E-004
                    12 -2.474109993740274E-007
                    13  2.556516649927803E-007
                    14 -4.006959548813109E-004
                    15  2.041474016779171E-004
                    16  2.989528743957281E-007
                    17 -3.059675940134479E-007
                    18 -1.365442312453767E-005
                    19  1.026002073599611E-004
                    20  1.212220965519432E-004
                    21 -2.497685193171920E-007
                    22  1.423462048856052E-007
                    23 -9.614673086550142E-007
                    24 -5.202500569116852E-004
                    25 -1.897105018850777E-004
                    26  1.809353951325161E-007
                    27 -2.969505742895207E-007
                    28  2.575442647512744E-005
                    29 -6.867199548212971E-005
                    30  4.165964877241832E-008
                    31 -7.464132856481628E-008
                    32 -2.608449637533324E-004
                    33  2.956331734975601E-003
                    34  1.298615766537198E-004
                    35 -5.050294880211486E-004
                    36 -4.353202417609760E-006
                    37  5.117195478491325E-006
                    38 -7.111548064908381E-003
                    39  5.537728458275544E-008
                    40 -1.113696724067119E-007
                    41  7.547960608523583E-005
                    42  2.535011528308265E-006
                    43 -2.932432370672162E-006
                    44  4.159501832249245E-003
                    45  3.774196198150909E-004
                    46  3.214834684968703E-007
                    47 -5.322529917360846E-007
                    48  1.138043318663773E-004
                    49 -1.238551431046958E-005
                    50  4.607773801688439E-004
                    51  6.370084229207571E-007
                    52 -7.226694837348834E-007
                    53 -1.035663937413084E-004
                    54  1.191352094805143E-004
                    55 -7.704600557286180E-005
                    56  3.654888673850705E-008
                    57 -1.758032872121254E-007
                    58  5.394358177013916E-005
                    59 -2.437433651239174E-005
                    60 -1.916329729957119E-008
                    61 -6.956318211402686E-008
                    62 -2.019858645613540E-004
                    63 -1.747844551609310E-003
                    64  1.764564563207366E-005
                    65  7.458898030171603E-004
                    66 -1.695954531460079E-005
                    67 -9.025358838824263E-004
                    68  1.173999740017967E-003
                    69  5.677242956424976E-005
                    70  5.829198208600475E-005
                    71  3.169506747830337E-004
                    72  4.700354742599632E-005
                    73 -6.490791945894225E-004
                    74 -2.457082989275975E-004
                    75  9.332732363168284E-005
                    76  2.706628194892904E-006
                    77 -1.231252015680066E-005
                    78  3.731105187281036E-005
                    79  3.043992482753811E-007
                    80  4.042461779188029E-005
                    81 -2.913822622144724E-005
                    82  7.176217336498691E-005
                    83  7.046704136749768E-006
                    84  3.524449828444405E-005
                    85 -8.120095560473131E-005
                    86  6.312867921531303E-006
                    87 -1.075318621640227E-005
                    88  2.097431690657082E-005
                    89 -6.770437152897334E-006
                    90  2.110667698398435E-006
                    91  2.119676764351783E-005
                    92 -2.019469310815103E-004
                    93 -1.747688616668941E-003
                    94  1.782176117950364E-005
                    95  7.453249188102621E-004
                    96  1.839326442657485E-005
                    97  9.008728707738692E-004
                    98  1.175388266962271E-003
                    99 -5.636788281710840E-005
                   100 -5.889850095646101E-005
                   101  3.162721649673943E-004
                   102 -4.726559105913955E-005
                   103  6.488178490196837E-004
                   104 -2.445404510765397E-004
                   105  9.332892186894794E-005
                   106 -2.553566861927779E-006
                   107  1.204502426354344E-005
                   108  3.732722141369138E-005
                   109  3.226234872601926E-007
                   110  3.971163616122023E-005
                   111  2.928076883686208E-005
                   112 -7.203060637667592E-005
                   113  6.884379981984610E-006
                   114  3.511027122264285E-005
                   115 -8.118380022843205E-005
                   116 -6.122992342332692E-006
                   117  1.043617927844127E-005
                   118  2.094118835449242E-005
                   119 -6.708755187506667E-006
                   120 -2.130668338670615E-006
                   121 -2.124259169805779E-005
                   122 -1.567758731602507E-004
                   123  1.633426181226672E-005
                   124  9.288327763099446E-005
                   125  2.080993114043156E-004
                   126 -5.794897592404628E-005
                   127  5.087748353465483E-005
                   128 -8.545360025919859E-004
                   129 -1.714960765317844E-006
                   130  1.812634885665644E-005
                   131  2.675248468545260E-004
                   132  1.814888090665696E-005
                   133 -6.937791478581667E-005
                   134  6.332832230558914E-004
                   135 -6.676734297880950E-006
                   136  2.264591197051034E-006
                   137  5.228484611031016E-006
                   138 -3.680058526029546E-007
                   139  1.844994332325109E-006
                   140 -1.543579001800744E-004
                   141 -1.632524413655080E-005
                   142  1.247668846946915E-004
                   143  2.637481090987986E-005
                   144 -8.367804869522903E-006
                   145 -2.970252727791812E-005
                   146 -4.605718710596888E-007
                   147 -4.335093597960801E-006
                   148 -8.506358161559758E-006
                   149 -1.676507281610483E-006
                   150 -8.720389676500344E-007
                   151 -2.606832724149654E-006
                   152 -1.572867135910972E-004
                   153  1.452462335094130E-005
                   154  9.235707106253748E-005
                   155  2.113778360840801E-004
                   156  5.689317507870638E-005
                   157 -4.958795367370019E-005
                   158 -8.546463184207615E-004
                   159  2.088607327541034E-006
                   160 -1.891819537981269E-005
                   161  2.671336633592662E-004
                   162 -1.741808394301823E-005
                   163  6.904540341895387E-005
                   164  6.335930103804944E-004
                   165 -6.627293098298021E-006
                   166 -2.277761671250451E-006
                   167 -5.223097945787056E-006
                   168 -4.349137022326548E-007
                   169  1.833751161100447E-006
                   170 -1.545669645896857E-004
                   171  1.596060566561492E-005
                   172 -1.246912308226790E-004
                   173  2.615993851255644E-005
                   174 -8.545887663011675E-006
                   175 -2.962129810236430E-005
                   176  5.658423600751827E-007
                   177  4.260307503163287E-006
                   178 -8.546345274965829E-006
                   179 -1.679126818812293E-006
                   180  8.886634522840294E-007
                   181  2.630159819481813E-006
                   182 -1.337427920581746E-004
                   183 -3.633261012571477E-004
                   184  2.751718102166432E-005
                   185  2.208710685587687E-004
                   186 -3.662667856049636E-008
                   187  1.287394215570403E-007
                   188 -4.478439989531872E-005
                   189  4.260267532702466E-008
                   190 -4.968063842339765E-007
                   191  1.215404539393518E-005
                   192 -3.403712028641856E-009
                   193 -3.888440108993131E-008
                   194 -1.492383809219440E-005
                   195  2.014343892264165E-005
                   196  1.561225668623816E-008
                   197 -5.056841614821412E-009
                   198  8.044574251908686E-006
                   199  1.659304915878582E-006
                   200  4.321197785014890E-005
                   201  1.173678520500049E-008
                   202  1.648651599164756E-007
                   203  2.964195781100834E-005
                   204 -3.521062279192712E-006
                   205 -1.188468137899186E-005
                   206  1.753521271281492E-008
                   207 -3.484656126216694E-008
                   208  3.423614517352626E-006
                   209  2.032361430065547E-006
                   210  1.089612563828551E-009
                   211  2.874758967035180E-008
                   212  5.079542652756241E-003
                   213 -2.879270740045233E-003
                   214  4.242656072270823E-004
                   215  3.743712158608911E-004
                   216  4.078010257463599E-004
                   217  5.079508671431842E-003
                   218 -2.879257736821581E-003
                   219 -4.237639116857836E-004
                   220 -3.749555168178157E-004
                   221  4.077810606095798E-004
                   222 -6.893086212050167E-004
                   223 -1.969443087696129E-004
                   224  3.864905444205893E-006
                   225 -3.343649948127348E-005
                   226 -4.362472527357095E-005
                   227 -6.893802072343189E-004
                   228 -1.965440379323806E-004
                   229 -3.917900536286282E-006
                   230  3.347927077790341E-005
                   231 -4.360065438057772E-005
                   232 -2.663110383089184E-004
                   233 -3.039137439593881E-004
                   234 -2.926312978917460E-006
                   235 -1.209925330368788E-005
                   236  1.652531266718715E-006
                   237 -2.663563812279316E-004
                   238 -3.040803451797139E-004
                   239  2.924052904496928E-006
                   240  1.214654831716774E-005
                   241  1.718502716340214E-006
                   242  9.197670669732374E-005
                   243 -6.536083088653499E-005
                   244  9.910227655609173E-009
                   245 -3.482641923186464E-008
                   246  1.515241621031239E-005
 Sym= __2_A__
 Ene=  0.000000000000000E+000
 Spin= Alpha
 Occup=    2.00000000000000     
                     1 -2.418044814427702E-005
                     2 -1.158276882045766E-004
                     3  2.003721456302897E-003
                     4  6.242882159481405E-005
                     5  1.211106851163292E-003
                     6  1.456496045289531E-006
                     7 -1.713881171787926E-006
                     8  2.393793210700373E-003
                     9 -5.102008382012389E-008
                    10  6.118000693329812E-008
                    11 -8.849539186355126E-005
                    12 -1.108864127599623E-007
                    13  1.394329359632688E-007
                    14 -1.875074946764537E-004
                    15  5.018500595945711E-005
                    16  1.583302221183847E-008
                    17 -6.290652314720523E-008
                    18  2.626299219099024E-005
                    19 -2.910631030596965E-005
                    20 -1.600160687620102E-004
                    21 -4.080229721822211E-009
                    22  1.931290907739402E-007
                    23 -1.072917101746588E-004
                    24  1.366906918562182E-004
                    25  1.951971258010209E-004
                    26 -2.892962867598659E-007
                    27  4.162693563019589E-007
                    28 -3.886234466808624E-005
                    29 -3.128687583166097E-005
                    30  5.650040462671575E-008
                    31  1.125613313271685E-008
                    32   1.00105381753506     
                    33  8.996628145968672E-003
                    34  2.592536425681730E-003
                    35 -7.852092772144123E-003
                    36 -2.136077139817248E-006
                    37  2.497808219228842E-006
                    38 -3.493236737387008E-003
                    39  7.457422230561719E-007
                    40 -8.703397822406616E-007
                    41  1.221029654649480E-003
                    42  2.408831001333538E-006
                    43 -2.886589410463858E-006
                    44  3.929247872328806E-003
                    45  3.516698850514160E-004
                    46  6.274532259620333E-007
                    47 -1.566206325552983E-007
                    48 -4.041072488326018E-004
                    49  1.105774561158959E-005
                    50  4.040600840279875E-004
                    51 -7.340401008462723E-008
                    52 -1.088848807766741E-006
                    53  8.322883793433818E-004
                    54  9.213317535067474E-006
                    55  3.269567048864647E-004
                    56 -3.002703870830765E-007
                    57  7.742417824106462E-007
                    58 -1.849453481660974E-004
                    59  9.867302228973089E-006
                    60  1.300140751354744E-007
                    61  1.715295105193581E-007
                    62  9.969067868098513E-003
                    63 -1.889300287737084E-003
                    64 -2.734660089782002E-004
                    65  2.938963887924188E-003
                    66 -1.022869616883778E-006
                    67  1.913701509282707E-004
                    68 -8.943178337428075E-005
                    69 -3.763653384907317E-005
                    70  5.233968615344645E-004
                    71  8.825443669114146E-005
                    72  9.771798061729067E-005
                    73 -1.911313566428588E-003
                    74  1.159573178939951E-004
                    75 -2.136674625566501E-005
                    76  1.985869315535823E-006
                    77  1.908068288907377E-005
                    78  2.750026027124444E-005
                    79  2.760219503028888E-006
                    80  7.719544739447139E-004
                    81  3.646572723201493E-005
                    82 -4.301479325505850E-004
                    83 -1.779175795122426E-005
                    84 -1.911516319932739E-005
                    85  5.803735323860522E-005
                    86 -1.095812953106286E-006
                    87  3.339629058758353E-005
                    88 -1.150307807417329E-004
                    89 -1.924121053761971E-006
                    90  5.372369830101170E-006
                    91  5.060422260035488E-005
                    92  9.969040560806939E-003
                    93 -1.889382380659213E-003
                    94 -2.735132330230972E-004
                    95  2.939169312938654E-003
                    96  9.140295576650408E-007
                    97 -1.912434850135873E-004
                    98 -8.973423291436318E-005
                    99  3.774087385700224E-005
                   100 -5.235153947273515E-004
                   101  8.760676889087095E-005
                   102 -9.758474147129653E-005
                   103  1.911289656921707E-003
                   104  1.186580789978550E-004
                   105 -2.139553236375498E-005
                   106 -2.061133809117343E-006
                   107 -1.907672913619737E-005
                   108  2.746896015051042E-005
                   109  2.739955225129915E-006
                   110  7.731747345976857E-004
                   111 -3.483911932169138E-005
                   112  4.283269857140332E-004
                   113 -1.719775956794167E-005
                   114 -1.853792807534601E-005
                   115  5.814129015752700E-005
                   116  1.139218439260930E-006
                   117 -3.292579077372383E-005
                   118 -1.151981239939779E-004
                   119 -1.924169533215653E-006
                   120 -5.196209050178952E-006
                   121 -5.040400297839153E-005
                   122 -1.905023055630882E-004
                   123 -7.492994508830934E-004
                   124  2.279273018226859E-004
                   125 -1.680996648711872E-004
                   126 -9.614109452585536E-006
                   127 -3.351592705348239E-005
                   128 -2.125431589929762E-004
                   129  1.922614415470033E-005
                   130  2.273625723992197E-005
                   131  5.595969210903458E-004
                   132 -1.264957443338214E-005
                   133  3.058341460504039E-004
                   134  6.773711730339197E-004
                   135 -2.032915950788035E-005
                   136 -3.823456605763304E-006
                   137  4.877163775403460E-005
                   138  1.519044339692123E-005
                   139  3.650718350947513E-006
                   140 -3.038587717118875E-004
                   141 -1.670890828480898E-006
                   142 -2.424290427137230E-004
                   143 -2.504160609679000E-005
                   144 -1.770467266964353E-005
                   145 -4.933531629049637E-006
                   146  5.307735174786002E-006
                   147 -2.982218435717931E-005
                   148 -3.256810097412876E-005
                   149 -4.630748608808929E-006
                   150  6.038961506162707E-007
                   151 -6.979633685993590E-006
                   152 -1.902089037780252E-004
                   153 -7.483255411497130E-004
                   154  2.280112676424253E-004
                   155 -1.691961426172134E-004
                   156  9.355817933566906E-006
                   157  3.380812600501900E-005
                   158 -2.125109013435538E-004
                   159 -1.854960721000641E-005
                   160 -2.347330252915759E-005