[Molden Format]
[Atoms] AU
  N     1    7    -0.0042980800    0.0002478700   -4.3373505500        
  C     2    6    -0.0027206200   -0.0016013700   -1.7574402600        
  C     3    6     0.0866409900   -2.3289806800   -0.4151046800        
  C     4    6    -0.0904386100    2.3238511500   -0.4116613400        
  C     5    6     0.1395052000   -2.2977138300    2.1723826400        
  C     6    6    -0.1401386700    2.2888749500    2.1758412200        
  C     7    6     0.0004787200   -0.0053519600    3.4750953600        
  H     8    1    -1.2234122700   -1.1388249400   -5.3467301400        
  H     9    1     1.2135818500    1.1407676100   -5.3465862400        
  H    10    1     0.1874338700   -4.0565433700   -1.4568733500        
  H    11    1    -0.1925038400    4.0529054200   -1.4508283200        
  H    12    1     0.2828724200   -4.0348955800    3.2029433500        
  H    13    1    -0.2822440000    4.0245774200    3.2090657800        
  H    14    1     0.0017186400   -0.0068055600    5.5030283700        
[5D]
[7F]
[GTO]
  1  0
   s    12 1.00
  0.114200D+05  0.172695D-04
  0.171200D+04  0.134411D-03
  0.389300D+03  0.694561D-03
  0.110000D+03  0.278531D-02
  0.355700D+02  0.863457D-02
  0.125400D+02  0.199805D-01
  0.464400D+01  0.262908D-01
  0.129300D+01 -0.243845D-01
  0.511800D+00 -0.924934D-01
  0.178700D+00 -0.339683D+00
  0.246240D-01  0.345111D+00
  0.112530D-01  0.752750D+00
   s    10 1.00
  0.114200D+05  0.523000D-03
  0.171200D+04  0.404500D-02
  0.389300D+03  0.207750D-01
  0.110000D+03  0.807269D-01
  0.355700D+02  0.233074D+00
  0.125400D+02  0.433501D+00
  0.464400D+01  0.347472D+00
  0.129300D+01  0.412620D-01
  0.511800D+00 -0.850799D-02
  0.178700D+00  0.238400D-02
   s    10 1.00
  0.114200D+05 -0.115000D-03
  0.171200D+04 -0.895000D-03
  0.389300D+03 -0.462400D-02
  0.110000D+03 -0.185280D-01
  0.355700D+02 -0.573390D-01
  0.125400D+02 -0.132076D+00
  0.464400D+01 -0.172510D+00
  0.129300D+01  0.151814D+00
  0.511800D+00  0.599944D+00
  0.178700D+00  0.387462D+00
   s     1 1.00
  0.129300D+01  0.100000D+01
   s     1 1.00
  0.178700D+00  0.100000D+01
   p     5 1.00
  0.266300D+02  0.146700D-01
  0.594800D+01  0.917640D-01
  0.174200D+01  0.298683D+00
  0.555000D+00  0.498487D+00
  0.172500D+00  0.337023D+00
   p     1 1.00
  0.174200D+01  0.100000D+01
   p     1 1.00
  0.555000D+00  0.100000D+01
   d     1 1.00
  0.165400D+01  0.100000D+01
   d     1 1.00
  0.469000D+00  0.100000D+01
   f     1 1.00
  0.109300D+01  0.100000D+01
  
  2  0
   s    10 1.00
  0.823600D+04  0.531000D-03
  0.123500D+04  0.410800D-02
  0.280800D+03  0.210870D-01
  0.792700D+02  0.818530D-01
  0.255900D+02  0.234817D+00
  0.899700D+01  0.434401D+00
  0.331900D+01  0.346129D+00
  0.905900D+00  0.393780D-01
  0.364300D+00 -0.898300D-02
  0.128500D+00  0.238500D-02
   s    10 1.00
  0.823600D+04 -0.113000D-03
  0.123500D+04 -0.878000D-03
  0.280800D+03 -0.454000D-02
  0.792700D+02 -0.181330D-01
  0.255900D+02 -0.557600D-01
  0.899700D+01 -0.126895D+00
  0.331900D+01 -0.170352D+00
  0.905900D+00  0.140382D+00
  0.364300D+00  0.598684D+00
  0.128500D+00  0.395389D+00
   s     1 1.00
  0.905900D+00  0.100000D+01
   s     1 1.00
  0.364300D+00  0.100000D+01
   p     5 1.00
  0.187100D+02  0.140310D-01
  0.413300D+01  0.868660D-01
  0.120000D+01  0.290216D+00
  0.382700D+00  0.501008D+00
  0.120900D+00  0.343406D+00
   p     1 1.00
  0.382700D+00  0.100000D+01
   p     1 1.00
  0.120900D+00  0.100000D+01
   d     1 1.00
  0.109700D+01  0.100000D+01
   d     1 1.00
  0.318000D+00  0.100000D+01
   f     1 1.00
  0.761000D+00  0.100000D+01
  
  3  0
   s    10 1.00
  0.823600D+04  0.531000D-03
  0.123500D+04  0.410800D-02
  0.280800D+03  0.210870D-01
  0.792700D+02  0.818530D-01
  0.255900D+02  0.234817D+00
  0.899700D+01  0.434401D+00
  0.331900D+01  0.346129D+00
  0.905900D+00  0.393780D-01
  0.364300D+00 -0.898300D-02
  0.128500D+00  0.238500D-02
   s    10 1.00
  0.823600D+04 -0.113000D-03
  0.123500D+04 -0.878000D-03
  0.280800D+03 -0.454000D-02
  0.792700D+02 -0.181330D-01
  0.255900D+02 -0.557600D-01
  0.899700D+01 -0.126895D+00
  0.331900D+01 -0.170352D+00
  0.905900D+00  0.140382D+00
  0.364300D+00  0.598684D+00
  0.128500D+00  0.395389D+00
   s     1 1.00
  0.905900D+00  0.100000D+01
   s     1 1.00
  0.364300D+00  0.100000D+01
   p     5 1.00
  0.187100D+02  0.140310D-01
  0.413300D+01  0.868660D-01
  0.120000D+01  0.290216D+00
  0.382700D+00  0.501008D+00
  0.120900D+00  0.343406D+00
   p     1 1.00
  0.382700D+00  0.100000D+01
   p     1 1.00
  0.120900D+00  0.100000D+01
   d     1 1.00
  0.109700D+01  0.100000D+01
   d     1 1.00
  0.318000D+00  0.100000D+01
   f     1 1.00
  0.761000D+00  0.100000D+01
  
  4  0
   s    10 1.00
  0.823600D+04  0.531000D-03
  0.123500D+04  0.410800D-02
  0.280800D+03  0.210870D-01
  0.792700D+02  0.818530D-01
  0.255900D+02  0.234817D+00
  0.899700D+01  0.434401D+00
  0.331900D+01  0.346129D+00
  0.905900D+00  0.393780D-01
  0.364300D+00 -0.898300D-02
  0.128500D+00  0.238500D-02
   s    10 1.00
  0.823600D+04 -0.113000D-03
  0.123500D+04 -0.878000D-03
  0.280800D+03 -0.454000D-02
  0.792700D+02 -0.181330D-01
  0.255900D+02 -0.557600D-01
  0.899700D+01 -0.126895D+00
  0.331900D+01 -0.170352D+00
  0.905900D+00  0.140382D+00
  0.364300D+00  0.598684D+00
  0.128500D+00  0.395389D+00
   s     1 1.00
  0.905900D+00  0.100000D+01
   s     1 1.00
  0.364300D+00  0.100000D+01
   p     5 1.00
  0.187100D+02  0.140310D-01
  0.413300D+01  0.868660D-01
  0.120000D+01  0.290216D+00
  0.382700D+00  0.501008D+00
  0.120900D+00  0.343406D+00
   p     1 1.00
  0.382700D+00  0.100000D+01
   p     1 1.00
  0.120900D+00  0.100000D+01
   d     1 1.00
  0.109700D+01  0.100000D+01
   d     1 1.00
  0.318000D+00  0.100000D+01
   f     1 1.00
  0.761000D+00  0.100000D+01
  
  5  0
   s    10 1.00
  0.823600D+04  0.531000D-03
  0.123500D+04  0.410800D-02
  0.280800D+03  0.210870D-01
  0.792700D+02  0.818530D-01
  0.255900D+02  0.234817D+00
  0.899700D+01  0.434401D+00
  0.331900D+01  0.346129D+00
  0.905900D+00  0.393780D-01
  0.364300D+00 -0.898300D-02
  0.128500D+00  0.238500D-02
   s    10 1.00
  0.823600D+04 -0.113000D-03
  0.123500D+04 -0.878000D-03
  0.280800D+03 -0.454000D-02
  0.792700D+02 -0.181330D-01
  0.255900D+02 -0.557600D-01
  0.899700D+01 -0.126895D+00
  0.331900D+01 -0.170352D+00
  0.905900D+00  0.140382D+00
  0.364300D+00  0.598684D+00
  0.128500D+00  0.395389D+00
   s     1 1.00
  0.905900D+00  0.100000D+01
   s     1 1.00
  0.364300D+00  0.100000D+01
   p     5 1.00
  0.187100D+02  0.140310D-01
  0.413300D+01  0.868660D-01
  0.120000D+01  0.290216D+00
  0.382700D+00  0.501008D+00
  0.120900D+00  0.343406D+00
   p     1 1.00
  0.382700D+00  0.100000D+01
   p     1 1.00
  0.120900D+00  0.100000D+01
   d     1 1.00
  0.109700D+01  0.100000D+01
   d     1 1.00
  0.318000D+00  0.100000D+01
   f     1 1.00
  0.761000D+00  0.100000D+01
  
  6  0
   s    10 1.00
  0.823600D+04  0.531000D-03
  0.123500D+04  0.410800D-02
  0.280800D+03  0.210870D-01
  0.792700D+02  0.818530D-01
  0.255900D+02  0.234817D+00
  0.899700D+01  0.434401D+00
  0.331900D+01  0.346129D+00
  0.905900D+00  0.393780D-01
  0.364300D+00 -0.898300D-02
  0.128500D+00  0.238500D-02
   s    10 1.00
  0.823600D+04 -0.113000D-03
  0.123500D+04 -0.878000D-03
  0.280800D+03 -0.454000D-02
  0.792700D+02 -0.181330D-01
  0.255900D+02 -0.557600D-01
  0.899700D+01 -0.126895D+00
  0.331900D+01 -0.170352D+00
  0.905900D+00  0.140382D+00
  0.364300D+00  0.598684D+00
  0.128500D+00  0.395389D+00
   s     1 1.00
  0.905900D+00  0.100000D+01
   s     1 1.00
  0.364300D+00  0.100000D+01
   p     5 1.00
  0.187100D+02  0.140310D-01
  0.413300D+01  0.868660D-01
  0.120000D+01  0.290216D+00
  0.382700D+00  0.501008D+00
  0.120900D+00  0.343406D+00
   p     1 1.00
  0.382700D+00  0.100000D+01
   p     1 1.00
  0.120900D+00  0.100000D+01
   d     1 1.00
  0.109700D+01  0.100000D+01
   d     1 1.00
  0.318000D+00  0.100000D+01
   f     1 1.00
  0.761000D+00  0.100000D+01
  
  7  0
   s    10 1.00
  0.823600D+04  0.531000D-03
  0.123500D+04  0.410800D-02
  0.280800D+03  0.210870D-01
  0.792700D+02  0.818530D-01
  0.255900D+02  0.234817D+00
  0.899700D+01  0.434401D+00
  0.331900D+01  0.346129D+00
  0.905900D+00  0.393780D-01
  0.364300D+00 -0.898300D-02
  0.128500D+00  0.238500D-02
   s    10 1.00
  0.823600D+04 -0.113000D-03
  0.123500D+04 -0.878000D-03
  0.280800D+03 -0.454000D-02
  0.792700D+02 -0.181330D-01
  0.255900D+02 -0.557600D-01
  0.899700D+01 -0.126895D+00
  0.331900D+01 -0.170352D+00
  0.905900D+00  0.140382D+00
  0.364300D+00  0.598684D+00
  0.128500D+00  0.395389D+00
   s     1 1.00
  0.905900D+00  0.100000D+01
   s     1 1.00
  0.364300D+00  0.100000D+01
   p     5 1.00
  0.187100D+02  0.140310D-01
  0.413300D+01  0.868660D-01
  0.120000D+01  0.290216D+00
  0.382700D+00  0.501008D+00
  0.120900D+00  0.343406D+00
   p     1 1.00
  0.382700D+00  0.100000D+01
   p     1 1.00
  0.120900D+00  0.100000D+01
   d     1 1.00
  0.109700D+01  0.100000D+01
   d     1 1.00
  0.318000D+00  0.100000D+01
   f     1 1.00
  0.761000D+00  0.100000D+01
  
  8  0
   s     4 1.00
  0.130100D+02  0.196850D-01
  0.196200D+01  0.137977D+00
  0.444600D+00  0.478148D+00
  0.122000D+00  0.501240D+00
   s     1 1.00
  0.122000D+00  0.100000D+01
   p     1 1.00
  0.727000D+00  0.100000D+01
  
  9  0
   s     4 1.00
  0.130100D+02  0.196850D-01
  0.196200D+01  0.137977D+00
  0.444600D+00  0.478148D+00
  0.122000D+00  0.501240D+00
   s     1 1.00
  0.122000D+00  0.100000D+01
   p     1 1.00
  0.727000D+00  0.100000D+01
  
 10  0
   s     4 1.00
  0.130100D+02  0.196850D-01
  0.196200D+01  0.137977D+00
  0.444600D+00  0.478148D+00
  0.122000D+00  0.501240D+00
   s     1 1.00
  0.122000D+00  0.100000D+01
   p     1 1.00
  0.727000D+00  0.100000D+01
  
 11  0
   s     4 1.00
  0.130100D+02  0.196850D-01
  0.196200D+01  0.137977D+00
  0.444600D+00  0.478148D+00
  0.122000D+00  0.501240D+00
   s     1 1.00
  0.122000D+00  0.100000D+01
   p     1 1.00
  0.727000D+00  0.100000D+01
  
 12  0
   s     4 1.00
  0.130100D+02  0.196850D-01
  0.196200D+01  0.137977D+00
  0.444600D+00  0.478148D+00
  0.122000D+00  0.501240D+00
   s     1 1.00
  0.122000D+00  0.100000D+01
   p     1 1.00
  0.727000D+00  0.100000D+01
  
 13  0
   s     4 1.00
  0.130100D+02  0.196850D-01
  0.196200D+01  0.137977D+00
  0.444600D+00  0.478148D+00
  0.122000D+00  0.501240D+00
   s     1 1.00
  0.122000D+00  0.100000D+01
   p     1 1.00
  0.727000D+00  0.100000D+01
  
 14  0
   s     4 1.00
  0.130100D+02  0.196850D-01
  0.196200D+01  0.137977D+00
  0.444600D+00  0.478148D+00
  0.122000D+00  0.501240D+00
   s     1 1.00
  0.122000D+00  0.100000D+01
   p     1 1.00
  0.727000D+00  0.100000D+01
  
[MO]
 Sym= __1_A__
 Ene=  0.000000000000000E+000
 Spin= Alpha
 Occup=    2.00000000000000     
                     1  5.439718348238012E-005
                     2  0.997853144959304     
                     3  1.148023613346193E-002
                     4  2.128727241394224E-003
                     5  1.211974642239407E-003
                     6  2.469050946367180E-006
                     7 -2.895780502619621E-006
                     8  4.021787634560379E-003
                     9 -1.452577357628319E-007
                    10  1.750679044280549E-007
                    11 -2.293290696525412E-004
                    12 -2.474109993740546E-007
                    13  2.556516649928276E-007
                    14 -4.006959548813225E-004
                    15  2.041474016779213E-004
                    16  2.989528743957425E-007
                    17 -3.059675940135704E-007
                    18 -1.365442312453861E-005
                    19  1.026002073599622E-004
                    20  1.212220965519658E-004
                    21 -2.497685193172143E-007
                    22  1.423462048852380E-007
                    23 -9.614673086571360E-007
                    24 -5.202500569116920E-004
                    25 -1.897105018850813E-004
                    26  1.809353951325131E-007
                    27 -2.969505742895138E-007
                    28  2.575442647512496E-005
                    29 -6.867199548212994E-005
                    30  4.165964877242492E-008
                    31 -7.464132856481531E-008
                    32 -2.608449637527076E-004
                    33  2.956331734978166E-003
                    34  1.298615766536996E-004
                    35 -5.050294880212914E-004
                    36 -4.353202417608395E-006
                    37  5.117195478460203E-006
                    38 -7.111548064907462E-003
                    39  5.537728458241121E-008
                    40 -1.113696724008965E-007
                    41  7.547960608520710E-005
                    42  2.535011528308080E-006
                    43 -2.932432370655213E-006
                    44  4.159501832249337E-003
                    45  3.774196198150625E-004
                    46  3.214834684969327E-007
                    47 -5.322529917374972E-007
                    48  1.138043318663168E-004
                    49 -1.238551431047246E-005
                    50  4.607773801688695E-004
                    51  6.370084229208616E-007
                    52 -7.226694837381404E-007
                    53 -1.035663937413777E-004
                    54  1.191352094805190E-004
                    55 -7.704600557283147E-005
                    56  3.654888673851104E-008
                    57 -1.758032872128876E-007
                    58  5.394358177010524E-005
                    59 -2.437433651239530E-005
                    60 -1.916329729956139E-008
                    61 -6.956318211402187E-008
                    62 -2.019858645612939E-004
                    63 -1.747844551608533E-003
                    64  1.764564563206708E-005
                    65  7.458898030171771E-004
                    66 -1.695954531462847E-005
                    67 -9.025358838817273E-004
                    68  1.173999740016653E-003
                    69  5.677242956425102E-005
                    70  5.829198208597826E-005
                    71  3.169506747832114E-004
                    72  4.700354742602069E-005
                    73 -6.490791945898326E-004
                    74 -2.457082989272405E-004
                    75  9.332732363164872E-005
                    76  2.706628194894015E-006
                    77 -1.231252015682514E-005
                    78  3.731105187277328E-005
                    79  3.043992482717724E-007
                    80  4.042461779190075E-005
                    81 -2.913822622144003E-005
                    82  7.176217336491064E-005
                    83  7.046704136734572E-006
                    84  3.524449828444257E-005
                    85 -8.120095560473909E-005
                    86  6.312867921531481E-006
                    87 -1.075318621640297E-005
                    88  2.097431690658626E-005
                    89 -6.770437152895888E-006
                    90  2.110667698397393E-006
                    91  2.119676764351043E-005
                    92 -2.019469310817879E-004
                    93 -1.747688616668325E-003
                    94  1.782176117950019E-005
                    95  7.453249188102813E-004
                    96  1.839326442659924E-005
                    97  9.008728707731901E-004
                    98  1.175388266960915E-003
                    99 -5.636788281710909E-005
                   100 -5.889850095643707E-005
                   101  3.162721649675650E-004
                   102 -4.726559105916287E-005
                   103  6.488178490200851E-004
                   104 -2.445404510761776E-004
                   105  9.332892186891092E-005
                   106 -2.553566861929005E-006
                   107  1.204502426356912E-005
                   108  3.732722141365600E-005
                   109  3.226234872567346E-007
                   110  3.971163616123159E-005
                   111  2.928076883685561E-005
                   112 -7.203060637660825E-005
                   113  6.884379981967770E-006
                   114  3.511027122264124E-005
                   115 -8.118380022843686E-005
                   116 -6.122992342332873E-006
                   117  1.043617927844281E-005
                   118  2.094118835450608E-005
                   119 -6.708755187505421E-006
                   120 -2.130668338669654E-006
                   121 -2.124259169805069E-005
                   122 -1.567758731603252E-004
                   123  1.633426181160317E-005
                   124  9.288327763102284E-005
                   125  2.080993114043390E-004
                   126 -5.794897592400138E-005
                   127  5.087748353443464E-005
                   128 -8.545360025912995E-004
                   129 -1.714960765321521E-006
                   130  1.812634885670368E-005
                   131  2.675248468545334E-004
                   132  1.814888090665170E-005
                   133 -6.937791478576398E-005
                   134  6.332832230559920E-004
                   135 -6.676734297901364E-006
                   136  2.264591197050473E-006
                   137  5.228484611015171E-006
                   138 -3.680058526015212E-007
                   139  1.844994332325169E-006
                   140 -1.543579001801222E-004
                   141 -1.632524413655200E-005
                   142  1.247668846946664E-004
                   143  2.637481090987740E-005
                   144 -8.367804869525328E-006
                   145 -2.970252727793284E-005
                   146 -4.605718710591616E-007
                   147 -4.335093597953099E-006
                   148 -8.506358161558215E-006
                   149 -1.676507281610379E-006
                   150 -8.720389676495679E-007
                   151 -2.606832724146733E-006
                   152 -1.572867135910947E-004
                   153  1.452462335044243E-005
                   154  9.235707106256302E-005
                   155  2.113778360841012E-004
                   156  5.689317507864796E-005
                   157 -4.958795367338748E-005
                   158 -8.546463184198763E-004
                   159  2.088607327546468E-006
                   160 -1.891819537987848E-005
                   161  2.671336633592448E-004
                   162 -1.741808394301159E-005
                   163  6.904540341889711E-005
                   164  6.335930103805575E-004
                   165 -6.627293098321691E-006
                   166 -2.277761671250063E-006
                   167 -5.223097945769189E-006
                   168 -4.349137022363996E-007
                   169  1.833751161099831E-006
                   170 -1.545669645897294E-004
                   171  1.596060566561709E-005
                   172 -1.246912308226703E-004
                   173  2.615993851255546E-005
                   174 -8.545887663013322E-006
                   175 -2.962129810237788E-005
                   176  5.658423600746488E-007
                   177  4.260307503155898E-006
                   178 -8.546345274966235E-006
                   179 -1.679126818812434E-006
                   180  8.886634522835760E-007
                   181  2.630159819479536E-006
                   182 -1.337427920582006E-004
                   183 -3.633261012573244E-004
                   184  2.751718102167392E-005
                   185  2.208710685588076E-004
                   186 -3.662667856716667E-008
                   187  1.287394216196457E-007
                   188 -4.478439989505220E-005
                   189  4.260267532783995E-008
                   190 -4.968063842455874E-007
                   191  1.215404539392743E-005
                   192 -3.403712026866363E-009
                   193 -3.888440111318902E-008
                   194 -1.492383809233714E-005
                   195  2.014343892263065E-005
                   196  1.561225668633525E-008
                   197 -5.056841615278733E-009
                   198  8.044574251905831E-006
                   199  1.659304915877457E-006
                   200  4.321197785014855E-005
                   201  1.173678520496889E-008
                   202  1.648651599171516E-007
                   203  2.964195781100042E-005
                   204 -3.521062279196030E-006
                   205 -1.188468137899263E-005
                   206  1.753521271286500E-008
                   207 -3.484656126309196E-008
                   208  3.423614517350828E-006
                   209  2.032361430065876E-006
                   210  1.089612563583312E-009
                   211  2.874758966930504E-008
                   212  5.079542652756289E-003
                   213 -2.879270740045193E-003
                   214  4.242656072270844E-004
                   215  3.743712158608917E-004
                   216  4.078010257463602E-004
                   217  5.079508671431891E-003
                   218 -2.879257736821540E-003
                   219 -4.237639116857856E-004
                   220 -3.749555168178162E-004
                   221  4.077810606095798E-004
                   222 -6.893086212045399E-004
                   223 -1.969443087699482E-004
                   224  3.864905444203705E-006
                   225 -3.343649948123618E-005
                   226 -4.362472527356855E-005
                   227 -6.893802072338864E-004
                   228 -1.965440379326906E-004
                   229 -3.917900536284270E-006
                   230  3.347927077786865E-005
                   231 -4.360065438057719E-005
                   232 -2.663110383086025E-004
                   233 -3.039137439595212E-004
                   234 -2.926312978918329E-006
                   235 -1.209925330367439E-005
                   236  1.652531266719815E-006
                   237 -2.663563812273630E-004
                   238 -3.040803451799468E-004
                   239  2.924052904498900E-006
                   240  1.214654831713935E-005
                   241  1.718502716334528E-006
                   242  9.197670669740731E-005
                   243 -6.536083088662515E-005
                   244  9.910227655488403E-009
                   245 -3.482641923055342E-008
                   246  1.515241621030823E-005
 Sym= __2_A__
 Ene=  0.000000000000000E+000
 Spin= Alpha
 Occup=    2.00000000000000     
                     1 -2.418044814387678E-005
                     2 -1.158276882052204E-004
                     3  2.003721456300219E-003
                     4  6.242882159473374E-005
                     5  1.211106851167882E-003
                     6  1.456496045294628E-006
                     7 -1.713881171829230E-006
                     8  2.393793210700654E-003
                     9 -5.102008379399741E-008
                    10  6.118000687091872E-008
                    11 -8.849539186443424E-005
                    12 -1.108864127825212E-007
                    13  1.394329362085512E-007
                    14 -1.875074946763810E-004
                    15  5.018500595936157E-005
                    16  1.583302220288988E-008
                    17 -6.290652316803163E-008
                    18  2.626299219106526E-005
                    19 -2.910631030598242E-005
                    20 -1.600160687624497E-004
                    21 -4.080229696100024E-009
                    22  1.931290909885371E-007
                    23 -1.072917101754543E-004
                    24  1.366906918561823E-004
                    25  1.951971258012280E-004
                    26 -2.892962867634075E-007
                    27  4.162693563502335E-007
                    28 -3.886234466834934E-005
                    29 -3.128687583165408E-005
                    30  5.650040462191297E-008
                    31  1.125613314360839E-008
                    32   1.00105381753515     
                    33  8.996628145927527E-003
                    34  2.592536425686107E-003
                    35 -7.852092772167576E-003
                    36 -2.136077139976517E-006
                    37  2.497808216937222E-006
                    38 -3.493236737410207E-003
                    39  7.457422230329224E-007
                    40 -8.703397828590448E-007
                    41  1.221029654645937E-003
                    42  2.408831001255986E-006
                    43 -2.886589408827537E-006
                    44  3.929247872332881E-003
                    45  3.516698850517901E-004
                    46  6.274532259644661E-007
                    47 -1.566206326816642E-007
                    48 -4.041072488318506E-004
                    49  1.105774561160171E-005
                    50  4.040600840302959E-004
                    51 -7.340401011281675E-008
                    52 -1.088848807375999E-006
                    53  8.322883793515324E-004
                    54  9.213317535180802E-006
                    55  3.269567048866101E-004
                    56 -3.002703870898942E-007
                    57  7.742417823918464E-007
                    58 -1.849453481661226E-004
                    59  9.867302228929431E-006
                    60  1.300140751164196E-007
                    61  1.715295104524021E-007
                    62  9.969067864440156E-003
                    63 -1.889300287778374E-003
                    64 -2.734660089905079E-004
                    65  2.938963887956686E-003
                    66 -1.022869614944542E-006
                    67  1.913701509042512E-004
                    68 -8.943178336243379E-005
                    69 -3.763653385020181E-005
                    70  5.233968615416405E-004
                    71  8.825443668825045E-005
                    72  9.771798061640287E-005
                    73 -1.911313566420165E-003
                    74  1.159573178870875E-004
                    75 -2.136674625655267E-005
                    76  1.985869315489766E-006
                    77  1.908068288981366E-005
                    78  2.750026027284592E-005
                    79  2.760219503143583E-006
                    80  7.719544739473268E-004
                    81  3.646572723219786E-005
                    82 -4.301479325542167E-004
                    83 -1.779175795158123E-005
                    84 -1.911516319948369E-005
                    85  5.803735323979321E-005
                    86 -1.095812953146335E-006
                    87  3.339629058773674E-005
                    88 -1.150307807427454E-004
                    89 -1.924121053866928E-006
                    90  5.372369830023388E-006
                    91  5.060422260005300E-005
                    92  9.969040556000527E-003
                    93 -1.889382380712560E-003
                    94 -2.735132330386639E-004
                    95  2.939169312980523E-003
                    96  9.140295550407603E-007
                    97 -1.912434849873113E-004
                    98 -8.973423290168145E-005
                    99  3.774087385838658E-005
                   100 -5.235153947350025E-004
                   101  8.760676888854894E-005
                   102 -9.758474147029858E-005
                   103  1.911289656914261E-003
                   104  1.186580789909345E-004
                   105 -2.139553236500322E-005
                   106 -2.061133809071768E-006
                   107 -1.907672913706729E-005
                   108  2.746896015255520E-005
                   109  2.739955225281746E-006
                   110  7.731747346010812E-004
                   111 -3.483911932188181E-005
                   112  4.283269857183599E-004
                   113 -1.719775956833552E-005
                   114 -1.853792807552668E-005
                   115  5.814129015893359E-005
                   116  1.139218439306258E-006
                   117 -3.292579077390950E-005
                   118 -1.151981239952312E-004
                   119 -1.924169533349004E-006
                   120 -5.196209050083827E-006
                   121 -5.040400297802076E-005
                   122 -1.905023056285452E-004
                   123 -7.492994508681806E-004
                   124  2.279273018234997E-004
                   125 -1.680996648865523E-004
                   126 -9.614109452980316E-006
                   127 -3.351592705151082E-005
                   128 -2.125431589950072E-004
                   129  1.922614415492136E-005
                   130  2.273625723834773E-005
                   131  5.595969210916421E-004
                   132 -1.264957443362658E-005
                   133  3.058341460535942E-004
                   134  6.773711730243879E-004
                   135 -2.032915950771453E-005
                   136 -3.823456605762319E-006
                   137  4.877163775451981E-005
                   138  1.519044339682211E-005
                   139  3.650718350940054E-006
                   140 -3.038587717123556E-004
                   141 -1.670890828522528E-006
                   142 -2.424290427159304E-004
                   143 -2.504160609547424E-005
                   144 -1.770467266951661E-005
                   145 -4.933531628508064E-006
                   146  5.307735174789971E-006
                   147 -2.982218435747971E-005
                   148 -3.256810097400090E-005
                   149 -4.630748608802535E-006
                   150  6.038961506231019E-007
                   151 -6.979633685942537E-006
                   152 -1.902089038989930E-004
                   153 -7.483255411344598E-004
                   154  2.280112676434888E-004
                   155 -1.691961426347887E-004
                   156  9.355817933825675E-006
                   157  3.380812600289326E-005
                   158 -2.125109013449556E-004
                   159 -1.854960721031691E-005
                   160 -2.347330252731314E-005