[Molden Format]
[Atoms] AU
  N     1    7     0.0000000000   -4.2907334100    0.0000000000        
  C     2    6     0.0000000000   -1.7772236300    0.0000000000        
  C     3    6    -2.3389203600   -0.4111016300    0.0000000000        
  C     4    6     2.3389203600   -0.4111016300    0.0000000000        
  C     5    6    -2.2998668500    2.1639215300    0.0000000000        
  C     6    6     2.2998668500    2.1639215300    0.0000000000        
  C     7    6     0.0000000000    3.4755251800    0.0000000000        
  H     8    1    -2.4124509000   -5.7790131500    0.0000000000        
  H     9    1     2.2516208400   -5.6797945000    0.0000000000        
  H    10    1    -4.0745407300   -1.4447408500    0.0000000000        
  H    11    1     4.0745407300   -1.4447408500    0.0000000000        
  H    12    1    -4.0420632100    3.1963889500    0.0000000000        
  H    13    1     4.0420632100    3.1963889500    0.0000000000        
  H    14    1     0.0000000000    5.5020335600    0.0000000000        
[5D]
[7F]
[GTO]
  1  0
   s    12 1.00
  0.114200D+05  0.172695D-04
  0.171200D+04  0.134411D-03
  0.389300D+03  0.694561D-03
  0.110000D+03  0.278531D-02
  0.355700D+02  0.863457D-02
  0.125400D+02  0.199805D-01
  0.464400D+01  0.262908D-01
  0.129300D+01 -0.243845D-01
  0.511800D+00 -0.924934D-01
  0.178700D+00 -0.339683D+00
  0.246240D-01  0.345111D+00
  0.112530D-01  0.752750D+00
   s    10 1.00
  0.114200D+05  0.523000D-03
  0.171200D+04  0.404500D-02
  0.389300D+03  0.207750D-01
  0.110000D+03  0.807269D-01
  0.355700D+02  0.233074D+00
  0.125400D+02  0.433501D+00
  0.464400D+01  0.347472D+00
  0.129300D+01  0.412620D-01
  0.511800D+00 -0.850799D-02
  0.178700D+00  0.238400D-02
   s    10 1.00
  0.114200D+05 -0.115000D-03
  0.171200D+04 -0.895000D-03
  0.389300D+03 -0.462400D-02
  0.110000D+03 -0.185280D-01
  0.355700D+02 -0.573390D-01
  0.125400D+02 -0.132076D+00
  0.464400D+01 -0.172510D+00
  0.129300D+01  0.151814D+00
  0.511800D+00  0.599944D+00
  0.178700D+00  0.387462D+00
   s     1 1.00
  0.129300D+01  0.100000D+01
   s     1 1.00
  0.178700D+00  0.100000D+01
   p     5 1.00
  0.266300D+02  0.146700D-01
  0.594800D+01  0.917640D-01
  0.174200D+01  0.298683D+00
  0.555000D+00  0.498487D+00
  0.172500D+00  0.337023D+00
   p     1 1.00
  0.174200D+01  0.100000D+01
   p     1 1.00
  0.555000D+00  0.100000D+01
   d     1 1.00
  0.165400D+01  0.100000D+01
   d     1 1.00
  0.469000D+00  0.100000D+01
   f     1 1.00
  0.109300D+01  0.100000D+01
  
  2  0
   s    10 1.00
  0.823600D+04  0.531000D-03
  0.123500D+04  0.410800D-02
  0.280800D+03  0.210870D-01
  0.792700D+02  0.818530D-01
  0.255900D+02  0.234817D+00
  0.899700D+01  0.434401D+00
  0.331900D+01  0.346129D+00
  0.905900D+00  0.393780D-01
  0.364300D+00 -0.898300D-02
  0.128500D+00  0.238500D-02
   s    10 1.00
  0.823600D+04 -0.113000D-03
  0.123500D+04 -0.878000D-03
  0.280800D+03 -0.454000D-02
  0.792700D+02 -0.181330D-01
  0.255900D+02 -0.557600D-01
  0.899700D+01 -0.126895D+00
  0.331900D+01 -0.170352D+00
  0.905900D+00  0.140382D+00
  0.364300D+00  0.598684D+00
  0.128500D+00  0.395389D+00
   s     1 1.00
  0.905900D+00  0.100000D+01
   s     1 1.00
  0.364300D+00  0.100000D+01
   p     5 1.00
  0.187100D+02  0.140310D-01
  0.413300D+01  0.868660D-01
  0.120000D+01  0.290216D+00
  0.382700D+00  0.501008D+00
  0.120900D+00  0.343406D+00
   p     1 1.00
  0.382700D+00  0.100000D+01
   p     1 1.00
  0.120900D+00  0.100000D+01
   d     1 1.00
  0.109700D+01  0.100000D+01
   d     1 1.00
  0.318000D+00  0.100000D+01
   f     1 1.00
  0.761000D+00  0.100000D+01
  
  3  0
   s    10 1.00
  0.823600D+04  0.531000D-03
  0.123500D+04  0.410800D-02
  0.280800D+03  0.210870D-01
  0.792700D+02  0.818530D-01
  0.255900D+02  0.234817D+00
  0.899700D+01  0.434401D+00
  0.331900D+01  0.346129D+00
  0.905900D+00  0.393780D-01
  0.364300D+00 -0.898300D-02
  0.128500D+00  0.238500D-02
   s    10 1.00
  0.823600D+04 -0.113000D-03
  0.123500D+04 -0.878000D-03
  0.280800D+03 -0.454000D-02
  0.792700D+02 -0.181330D-01
  0.255900D+02 -0.557600D-01
  0.899700D+01 -0.126895D+00
  0.331900D+01 -0.170352D+00
  0.905900D+00  0.140382D+00
  0.364300D+00  0.598684D+00
  0.128500D+00  0.395389D+00
   s     1 1.00
  0.905900D+00  0.100000D+01
   s     1 1.00
  0.364300D+00  0.100000D+01
   p     5 1.00
  0.187100D+02  0.140310D-01
  0.413300D+01  0.868660D-01
  0.120000D+01  0.290216D+00
  0.382700D+00  0.501008D+00
  0.120900D+00  0.343406D+00
   p     1 1.00
  0.382700D+00  0.100000D+01
   p     1 1.00
  0.120900D+00  0.100000D+01
   d     1 1.00
  0.109700D+01  0.100000D+01
   d     1 1.00
  0.318000D+00  0.100000D+01
   f     1 1.00
  0.761000D+00  0.100000D+01
  
  4  0
   s    10 1.00
  0.823600D+04  0.531000D-03
  0.123500D+04  0.410800D-02
  0.280800D+03  0.210870D-01
  0.792700D+02  0.818530D-01
  0.255900D+02  0.234817D+00
  0.899700D+01  0.434401D+00
  0.331900D+01  0.346129D+00
  0.905900D+00  0.393780D-01
  0.364300D+00 -0.898300D-02
  0.128500D+00  0.238500D-02
   s    10 1.00
  0.823600D+04 -0.113000D-03
  0.123500D+04 -0.878000D-03
  0.280800D+03 -0.454000D-02
  0.792700D+02 -0.181330D-01
  0.255900D+02 -0.557600D-01
  0.899700D+01 -0.126895D+00
  0.331900D+01 -0.170352D+00
  0.905900D+00  0.140382D+00
  0.364300D+00  0.598684D+00
  0.128500D+00  0.395389D+00
   s     1 1.00
  0.905900D+00  0.100000D+01
   s     1 1.00
  0.364300D+00  0.100000D+01
   p     5 1.00
  0.187100D+02  0.140310D-01
  0.413300D+01  0.868660D-01
  0.120000D+01  0.290216D+00
  0.382700D+00  0.501008D+00
  0.120900D+00  0.343406D+00
   p     1 1.00
  0.382700D+00  0.100000D+01
   p     1 1.00
  0.120900D+00  0.100000D+01
   d     1 1.00
  0.109700D+01  0.100000D+01
   d     1 1.00
  0.318000D+00  0.100000D+01
   f     1 1.00
  0.761000D+00  0.100000D+01
  
  5  0
   s    10 1.00
  0.823600D+04  0.531000D-03
  0.123500D+04  0.410800D-02
  0.280800D+03  0.210870D-01
  0.792700D+02  0.818530D-01
  0.255900D+02  0.234817D+00
  0.899700D+01  0.434401D+00
  0.331900D+01  0.346129D+00
  0.905900D+00  0.393780D-01
  0.364300D+00 -0.898300D-02
  0.128500D+00  0.238500D-02
   s    10 1.00
  0.823600D+04 -0.113000D-03
  0.123500D+04 -0.878000D-03
  0.280800D+03 -0.454000D-02
  0.792700D+02 -0.181330D-01
  0.255900D+02 -0.557600D-01
  0.899700D+01 -0.126895D+00
  0.331900D+01 -0.170352D+00
  0.905900D+00  0.140382D+00
  0.364300D+00  0.598684D+00
  0.128500D+00  0.395389D+00
   s     1 1.00
  0.905900D+00  0.100000D+01
   s     1 1.00
  0.364300D+00  0.100000D+01
   p     5 1.00
  0.187100D+02  0.140310D-01
  0.413300D+01  0.868660D-01
  0.120000D+01  0.290216D+00
  0.382700D+00  0.501008D+00
  0.120900D+00  0.343406D+00
   p     1 1.00
  0.382700D+00  0.100000D+01
   p     1 1.00
  0.120900D+00  0.100000D+01
   d     1 1.00
  0.109700D+01  0.100000D+01
   d     1 1.00
  0.318000D+00  0.100000D+01
   f     1 1.00
  0.761000D+00  0.100000D+01
  
  6  0
   s    10 1.00
  0.823600D+04  0.531000D-03
  0.123500D+04  0.410800D-02
  0.280800D+03  0.210870D-01
  0.792700D+02  0.818530D-01
  0.255900D+02  0.234817D+00
  0.899700D+01  0.434401D+00
  0.331900D+01  0.346129D+00
  0.905900D+00  0.393780D-01
  0.364300D+00 -0.898300D-02
  0.128500D+00  0.238500D-02
   s    10 1.00
  0.823600D+04 -0.113000D-03
  0.123500D+04 -0.878000D-03
  0.280800D+03 -0.454000D-02
  0.792700D+02 -0.181330D-01
  0.255900D+02 -0.557600D-01
  0.899700D+01 -0.126895D+00
  0.331900D+01 -0.170352D+00
  0.905900D+00  0.140382D+00
  0.364300D+00  0.598684D+00
  0.128500D+00  0.395389D+00
   s     1 1.00
  0.905900D+00  0.100000D+01
   s     1 1.00
  0.364300D+00  0.100000D+01
   p     5 1.00
  0.187100D+02  0.140310D-01
  0.413300D+01  0.868660D-01
  0.120000D+01  0.290216D+00
  0.382700D+00  0.501008D+00
  0.120900D+00  0.343406D+00
   p     1 1.00
  0.382700D+00  0.100000D+01
   p     1 1.00
  0.120900D+00  0.100000D+01
   d     1 1.00
  0.109700D+01  0.100000D+01
   d     1 1.00
  0.318000D+00  0.100000D+01
   f     1 1.00
  0.761000D+00  0.100000D+01
  
  7  0
   s    10 1.00
  0.823600D+04  0.531000D-03
  0.123500D+04  0.410800D-02
  0.280800D+03  0.210870D-01
  0.792700D+02  0.818530D-01
  0.255900D+02  0.234817D+00
  0.899700D+01  0.434401D+00
  0.331900D+01  0.346129D+00
  0.905900D+00  0.393780D-01
  0.364300D+00 -0.898300D-02
  0.128500D+00  0.238500D-02
   s    10 1.00
  0.823600D+04 -0.113000D-03
  0.123500D+04 -0.878000D-03
  0.280800D+03 -0.454000D-02
  0.792700D+02 -0.181330D-01
  0.255900D+02 -0.557600D-01
  0.899700D+01 -0.126895D+00
  0.331900D+01 -0.170352D+00
  0.905900D+00  0.140382D+00
  0.364300D+00  0.598684D+00
  0.128500D+00  0.395389D+00
   s     1 1.00
  0.905900D+00  0.100000D+01
   s     1 1.00
  0.364300D+00  0.100000D+01
   p     5 1.00
  0.187100D+02  0.140310D-01
  0.413300D+01  0.868660D-01
  0.120000D+01  0.290216D+00
  0.382700D+00  0.501008D+00
  0.120900D+00  0.343406D+00
   p     1 1.00
  0.382700D+00  0.100000D+01
   p     1 1.00
  0.120900D+00  0.100000D+01
   d     1 1.00
  0.109700D+01  0.100000D+01
   d     1 1.00
  0.318000D+00  0.100000D+01
   f     1 1.00
  0.761000D+00  0.100000D+01
  
  8  0
   s     4 1.00
  0.130100D+02  0.196850D-01
  0.196200D+01  0.137977D+00
  0.444600D+00  0.478148D+00
  0.122000D+00  0.501240D+00
   s     1 1.00
  0.122000D+00  0.100000D+01
   p     1 1.00
  0.727000D+00  0.100000D+01
  
  9  0
   s     4 1.00
  0.130100D+02  0.196850D-01
  0.196200D+01  0.137977D+00
  0.444600D+00  0.478148D+00
  0.122000D+00  0.501240D+00
   s     1 1.00
  0.122000D+00  0.100000D+01
   p     1 1.00
  0.727000D+00  0.100000D+01
  
 10  0
   s     4 1.00
  0.130100D+02  0.196850D-01
  0.196200D+01  0.137977D+00
  0.444600D+00  0.478148D+00
  0.122000D+00  0.501240D+00
   s     1 1.00
  0.122000D+00  0.100000D+01
   p     1 1.00
  0.727000D+00  0.100000D+01
  
 11  0
   s     4 1.00
  0.130100D+02  0.196850D-01
  0.196200D+01  0.137977D+00
  0.444600D+00  0.478148D+00
  0.122000D+00  0.501240D+00
   s     1 1.00
  0.122000D+00  0.100000D+01
   p     1 1.00
  0.727000D+00  0.100000D+01
  
 12  0
   s     4 1.00
  0.130100D+02  0.196850D-01
  0.196200D+01  0.137977D+00
  0.444600D+00  0.478148D+00
  0.122000D+00  0.501240D+00
   s     1 1.00
  0.122000D+00  0.100000D+01
   p     1 1.00
  0.727000D+00  0.100000D+01
  
 13  0
   s     4 1.00
  0.130100D+02  0.196850D-01
  0.196200D+01  0.137977D+00
  0.444600D+00  0.478148D+00
  0.122000D+00  0.501240D+00
   s     1 1.00
  0.122000D+00  0.100000D+01
   p     1 1.00
  0.727000D+00  0.100000D+01
  
 14  0
   s     4 1.00
  0.130100D+02  0.196850D-01
  0.196200D+01  0.137977D+00
  0.444600D+00  0.478148D+00
  0.122000D+00  0.501240D+00
   s     1 1.00
  0.122000D+00  0.100000D+01
   p     1 1.00
  0.727000D+00  0.100000D+01
  
[MO]
 Sym= __1_a__
 Ene=  0.000000000000000E+000
 Spin= Alpha
 Occup=    2.00000000000000     
                     1  2.333728016594150E-005
                     2  0.998783163353755     
                     3  8.240348360013650E-004
                     4  1.225400124050030E-003
                     5  4.952368796137100E-003
                     6  2.007216466925540E-003
                     7  6.655867799858100E-003
                     8  0.000000000000000E+000
                     9 -4.775620249240890E-004
                    10 -6.700864080158030E-004
                    11  0.000000000000000E+000
                    12 -1.304050112569720E-003
                    13 -2.256550980844820E-003
                    14  0.000000000000000E+000
                    15 -4.439496417468434E-005
                    16  0.000000000000000E+000
                    17  0.000000000000000E+000
                    18 -2.475888230049700E-004
                    19  6.980591626935280E-007
                    20  1.699355926106511E-004
                    21  0.000000000000000E+000
                    22  0.000000000000000E+000
                    23 -2.418312964314780E-004
                    24  1.859782583256030E-004
                    25  0.000000000000000E+000
                    26 -6.053610771965766E-006
                    27 -4.701931044057090E-005
                    28  0.000000000000000E+000
                    29  0.000000000000000E+000
                    30  1.178706423242385E-005
                    31 -1.110111282707542E-004
                    32 -2.830457929892680E-004
                    33  1.079737131400740E-003
                    34  2.670330642269160E-004
                    35 -3.200705885373910E-004
                    36 -1.056103713537440E-004
                    37 -3.866680534505020E-003
                    38  0.000000000000000E+000
                    39  3.220399337840080E-004
                    40  5.308138691752360E-005
                    41  0.000000000000000E+000
                    42 -1.389283779077790E-003
                    43  5.471676606592380E-003
                    44  0.000000000000000E+000
                    45 -1.833060344246533E-005
                    46  0.000000000000000E+000
                    47  0.000000000000000E+000
                    48 -2.049933756873880E-004
                    49 -3.808013768366650E-006
                    50 -2.548784663117641E-004
                    51  0.000000000000000E+000
                    52  0.000000000000000E+000
                    53 -6.189688278372560E-005
                    54  3.647167001404330E-004
                    55  0.000000000000000E+000
                    56 -9.776842403386608E-006
                    57 -4.363571133507848E-005
                    58  0.000000000000000E+000
                    59  0.000000000000000E+000
                    60  2.781001605103738E-006
                    61 -1.122079436660119E-004
                    62 -4.554846004426580E-004
                    63 -1.943757370857770E-003
                    64 -2.882233958305310E-005
                    65  1.669760127654100E-003
                    66 -5.204738490264210E-004
                    67  3.515896400372080E-004
                    68  0.000000000000000E+000
                    69  2.542076492006750E-004
                    70  6.499306449020170E-004
                    71  0.000000000000000E+000
                    72 -1.593594933713950E-003
                    73  3.116284807281670E-004
                    74  0.000000000000000E+000
                    75 -3.685609403901938E-005
                    76  0.000000000000000E+000
                    77  0.000000000000000E+000
                    78 -6.586650199363380E-005
                    79 -1.921443119559480E-005
                    80 -9.461822867514613E-005
                    81  0.000000000000000E+000
                    82  0.000000000000000E+000
                    83  5.561939798794240E-006
                    84  1.759383918080510E-005
                    85  0.000000000000000E+000
                    86  7.395784492848962E-006
                    87 -4.143233304780051E-005
                    88  0.000000000000000E+000
                    89  0.000000000000000E+000
                    90 -1.500335493319248E-005
                    91 -1.296703063965484E-004
                    92 -2.217758336686900E-004
                    93 -1.151624445327300E-003
                    94  1.387491674345400E-004
                    95  2.900900931600110E-004
                    96  4.528455326439010E-004
                    97  4.414786312496750E-004
                    98  0.000000000000000E+000
                    99  1.997966605734560E-004
                   100  3.470536098406930E-004
                   101  0.000000000000000E+000
                   102  8.485515632963730E-004
                   103 -9.846023404275520E-004
                   104  0.000000000000000E+000
                   105 -1.783574536359750E-005
                   106  0.000000000000000E+000
                   107  0.000000000000000E+000
                   108 -5.495093875680760E-005
                   109 -5.924709728586190E-006
                   110  8.679900481189775E-005
                   111  0.000000000000000E+000
                   112  0.000000000000000E+000
                   113 -7.628089122186540E-005
                   114 -1.130028247435100E-005
                   115  0.000000000000000E+000
                   116 -2.092635402082145E-005
                   117 -3.582454882515278E-005
                   118  0.000000000000000E+000
                   119  0.000000000000000E+000
                   120  1.649015372611006E-005
                   121 -5.670887215943771E-005
                   122 -2.850279572522630E-004
                   123 -6.793749529153660E-004
                   124  1.435030062624860E-004
                   125  4.902236058266480E-004
                   126 -1.712818055775120E-005
                   127 -4.174312524183530E-004
                   128  0.000000000000000E+000
                   129  1.940063067164180E-004
                   130  4.838125614062000E-004
                   131  0.000000000000000E+000
                   132  1.327629620350480E-004
                   133  1.580982901105360E-003
                   134  0.000000000000000E+000
                   135  6.313087541157819E-006
                   136  0.000000000000000E+000
                   137  0.000000000000000E+000
                   138  3.457729446596460E-005
                   139 -3.505164323267050E-006
                   140  1.794961749800000E-004
                   141  0.000000000000000E+000
                   142  0.000000000000000E+000
                   143  2.840634311039480E-004
                   144  1.880456510170160E-004
                   145  0.000000000000000E+000
                   146 -9.002963667343583E-006
                   147 -4.939718570494247E-005
                   148  0.000000000000000E+000
                   149  0.000000000000000E+000
                   150 -8.161104983773330E-006
                   151 -3.917904146953647E-005
                   152 -2.289212058604070E-004
                   153 -5.091502058371270E-004
                   154  6.371437973102000E-005
                   155  4.966070508129670E-004
                   156 -1.166396078031260E-005
                   157 -3.713065445540450E-004
                   158  0.000000000000000E+000
                   159 -4.454922477886100E-005
                   160  1.406056098063250E-004
                   161  0.000000000000000E+000
                   162  4.890392777066600E-004
                   163  1.952680494452250E-004
                   164  0.000000000000000E+000
                   165 -8.160417272179696E-007
                   166  0.000000000000000E+000
                   167  0.000000000000000E+000
                   168  5.432655990991680E-006
                   169  6.789257478486390E-006
                   170  8.901190840275411E-005
                   171  0.000000000000000E+000
                   172  0.000000000000000E+000
                   173  7.499309682854301E-005
                   174 -6.224553145660180E-005
                   175  0.000000000000000E+000
                   176  6.432444425728546E-006
                   177 -1.879611625744171E-005
                   178  0.000000000000000E+000
                   179  0.000000000000000E+000
                   180 -1.636523103372160E-005
                   181 -1.671145374560024E-005
                   182 -1.885307747759170E-004
                   183 -5.527307419016389E-004
                   184  5.820048061957030E-005
                   185  2.910999056813440E-004
                   186 -2.330144718141110E-005
                   187 -4.644051316848690E-005
                   188  0.000000000000000E+000
                   189  1.227178178396350E-004
                   190  6.565560927823420E-005
                   191  0.000000000000000E+000
                   192  7.769347311608750E-004
                   193 -1.590755319308560E-004
                   194  0.000000000000000E+000
                   195 -1.916506604353907E-006
                   196  0.000000000000000E+000
                   197  0.000000000000000E+000
                   198 -1.289232473354290E-005
                   199  3.835419919079390E-006
                   200  3.215835423294701E-005
                   201  0.000000000000000E+000
                   202  0.000000000000000E+000
                   203 -8.370025218232660E-005
                   204 -1.114604666994540E-004
                   205  0.000000000000000E+000
                   206 -3.888168246085055E-006
                   207 -6.935644976026798E-006
                   208  0.000000000000000E+000
                   209  0.000000000000000E+000
                   210  6.354804378912111E-006
                   211 -3.480981600337210E-007
                   212 -7.021024163343731E-005
                   213 -7.945914750854329E-006
                   214  1.681987775399860E-004
                   215  1.366689164371310E-004
                   216  0.000000000000000E+000
                   217 -3.297568817502670E-004
                   218 -2.483626576142750E-004
                   219 -2.074021520582970E-004
                   220  1.173465307307690E-004
                   221  0.000000000000000E+000
                   222 -2.985032687868910E-004
                   223 -6.843916321767760E-004
                   224  5.614628910382950E-006
                   225 -5.601678042677640E-005
                   226  0.000000000000000E+000
                   227 -1.915373582201110E-004
                   228 -5.929512951133200E-004
                   229 -8.235809277929260E-006
                   230 -2.881872445327080E-005
                   231  0.000000000000000E+000
                   232 -4.284342728619570E-005
                   233 -5.416371532585160E-004
                   234  5.341177501550370E-006
                   235 -4.487032698385700E-006
                   236  0.000000000000000E+000
                   237 -9.957451629323181E-005
                   238 -4.221928121119760E-004
                   239  3.689223030966200E-006
                   240  1.142238236990190E-006
                   241  0.000000000000000E+000
                   242  1.109120752908670E-005
                   243 -4.243935690426610E-005
                   244  3.704857850291520E-007
                   245  2.108471513958440E-005
                   246  0.000000000000000E+000
 Sym= __2_a__
 Ene=  0.000000000000000E+000
 Spin= Alpha
 Occup=    2.00000000000000     
                     1 -5.877393533912450E-005
                     2 -3.599401470070010E-004
                     3  3.057828018323790E-003
                     4  1.710607076962610E-004
                     5  1.321183693485730E-003
                     6 -5.008669643759010E-005
                     7  2.947616720888300E-003
                     8  0.000000000000000E+000
                     9 -9.850710396728101E-006
                    10 -1.256401691713480E-004
                    11  0.000000000000000E+000
                    12  1.292861414230580E-005
                    13 -3.784242977285240E-004
                    14  0.000000000000000E+000
                    15  3.257588500049450E-005
                    16  0.000000000000000E+000
                    17  0.000000000000000E+000
                    18 -5.252248380303020E-005
                    19  5.393201609966710E-006
                    20 -1.158202150461121E-004
                    21  0.000000000000000E+000
                    22  0.000000000000000E+000
                    23  1.134431521257482E-004
                    24  2.611856168162680E-006
                    25  0.000000000000000E+000
                    26 -2.839431461797924E-006
                    27  8.883380637905661E-005
                    28  0.000000000000000E+000
                    29  0.000000000000000E+000
                    30 -1.325250718786664E-006
                    31  1.536779473801619E-004
                    32   1.00100102692302     
                    33  9.305227897049399E-003
                    34  2.762552484646730E-003
                    35 -8.121854298912131E-003
                    36 -6.607965231847620E-005
                    37 -3.766003170411640E-003
                    38  0.000000000000000E+000
                    39  8.248018407803670E-005
                    40  6.176763339853240E-004
                    41  0.000000000000000E+000
                    42  2.221079945392620E-005
                    43  4.285763464062980E-003
                    44  0.000000000000000E+000
                    45 -5.771839153082250E-004
                    46  0.000000000000000E+000
                    47  0.000000000000000E+000
                    48 -2.048787192945620E-004
                    49  1.207049818180000E-006
                    50  5.503488960588769E-004
                    51  0.000000000000000E+000
                    52  0.000000000000000E+000
                    53 -8.551229248995740E-004
                    54  2.395014324697070E-005
                    55  0.000000000000000E+000
                    56 -3.354876478578414E-006
                    57  9.149803777302452E-005
                    58  0.000000000000000E+000
                    59  0.000000000000000E+000
                    60  3.335026320483885E-006
                    61  4.007021328748843E-004
                    62  9.224713423185191E-003
                    63 -2.084330886592080E-003
                    64 -2.891443944405200E-004
                    65  3.050437819274870E-003
                    66 -1.440735072373010E-005
                    67  1.007455767421070E-004
                    68  0.000000000000000E+000
                    69  7.014367111873200E-004
                    70  2.511334464268750E-005
                    71  0.000000000000000E+000
                    72 -2.052685048855040E-003
                    73  7.755725894797450E-005
                    74  0.000000000000000E+000
                    75  2.859380188891374E-005
                    76  0.000000000000000E+000
                    77  0.000000000000000E+000
                    78 -3.816690699502620E-006
                    79  4.705504798892180E-006
                    80 -4.110797728515281E-004
                    81  0.000000000000000E+000
                    82  0.000000000000000E+000
                    83 -5.953040391914840E-004
                    84 -3.699967413565600E-004
                    85  0.000000000000000E+000
                    86  3.266209586336849E-005
                    87 -5.870762767372074E-005
                    88  0.000000000000000E+000
                    89  0.000000000000000E+000
                    90  5.134489831975765E-005
                    91  1.393683852548628E-004
                    92  9.402420859807470E-003
                    93 -2.076661236386770E-003
                    94 -2.776809113716670E-004
                    95  3.006771169118960E-003
                    96  5.946956361037420E-006
                    97  9.178434480452451E-005
                    98  0.000000000000000E+000
                    99 -6.586114593596461E-004
                   100  5.845132103929270E-005
                   101  0.000000000000000E+000
                   102  2.055599319087940E-003
                   103  7.868956737679320E-005
                   104  0.000000000000000E+000
                   105  3.100440718377960E-005
                   106  0.000000000000000E+000
                   107  0.000000000000000E+000
                   108 -5.611249849696640E-006
                   109 -7.321839712653260E-006
                   110 -4.081238135540163E-004
                   111  0.000000000000000E+000
                   112  0.000000000000000E+000
                   113 -6.110616515598720E-004
                   114  3.570199174103670E-004
                   115  0.000000000000000E+000
                   116 -3.334418903119877E-005
                   117 -5.951416035815888E-005
                   118  0.000000000000000E+000
                   119  0.000000000000000E+000
                   120 -5.087084736447363E-005
                   121  1.388829552446133E-004
                   122 -1.688064186917520E-004
                   123 -6.840442086888311E-004
                   124  2.283821739677200E-004
                   125 -1.192536826377550E-004
                   126 -1.118235302313310E-006
                   127 -3.396847304243320E-004
                   128  0.000000000000000E+000
                   129 -5.840104759697110E-005
                   130  5.455365088074679E-004
                   131  0.000000000000000E+000
                   132  3.201903264117570E-004
                   133  7.530595637532480E-004
                   134  0.000000000000000E+000
                   135  1.955838490940453E-005
                   136  0.000000000000000E+000
                   137  0.000000000000000E+000
                   138  3.861975453929980E-006
                   139  5.316740955000600E-005
                   140  1.363272714159640E-004
                   141  0.000000000000000E+000
                   142  0.000000000000000E+000
                   143  2.475889196809720E-004
                   144 -1.873645046603100E-004
                   145  0.000000000000000E+000
                   146  6.864876792986071E-006
                   147 -3.332925903367127E-005
                   148  0.000000000000000E+000
                   149  0.000000000000000E+000
                   150 -4.646473270025307E-005
                   151  2.752456649481513E-005
                   152 -1.619197574915990E-004
                   153 -6.849985223502940E-004
                   154  2.297533447734270E-004
                   155 -1.304893959562770E-004
                   156  2.269357893134200E-006
                   157 -3.390305058872540E-004
                   158  0.000000000000000E+000
                   159  5.238404319850030E-005
                   160  5.590529756730850E-004