[Molden Format]
[Atoms] AU
  N     1    7     0.0000000000   -4.2907334100    0.0000000000        
  C     2    6     0.0000000000   -1.7772236300    0.0000000000        
  C     3    6    -2.3389203600   -0.4111016300    0.0000000000        
  C     4    6     2.3389203600   -0.4111016300    0.0000000000        
  C     5    6    -2.2998668500    2.1639215300    0.0000000000        
  C     6    6     2.2998668500    2.1639215300    0.0000000000        
  C     7    6     0.0000000000    3.4755251800    0.0000000000        
  H     8    1    -4.6640717500   -7.1680742300    0.0000000000        
  H     9    1     1.6528040300   -5.3103747800    0.0000000000        
  H    10    1    -4.0745407300   -1.4447408500    0.0000000000        
  H    11    1     4.0745407300   -1.4447408500    0.0000000000        
  H    12    1    -4.0420632100    3.1963889500    0.0000000000        
  H    13    1     4.0420632100    3.1963889500    0.0000000000        
  H    14    1     0.0000000000    5.5020335600    0.0000000000        
[5D]
[7F]
[GTO]
  1  0
   s    12 1.00
  0.114200D+05  0.172695D-04
  0.171200D+04  0.134411D-03
  0.389300D+03  0.694561D-03
  0.110000D+03  0.278531D-02
  0.355700D+02  0.863457D-02
  0.125400D+02  0.199805D-01
  0.464400D+01  0.262908D-01
  0.129300D+01 -0.243845D-01
  0.511800D+00 -0.924934D-01
  0.178700D+00 -0.339683D+00
  0.246240D-01  0.345111D+00
  0.112530D-01  0.752750D+00
   s    10 1.00
  0.114200D+05  0.523000D-03
  0.171200D+04  0.404500D-02
  0.389300D+03  0.207750D-01
  0.110000D+03  0.807269D-01
  0.355700D+02  0.233074D+00
  0.125400D+02  0.433501D+00
  0.464400D+01  0.347472D+00
  0.129300D+01  0.412620D-01
  0.511800D+00 -0.850799D-02
  0.178700D+00  0.238400D-02
   s    10 1.00
  0.114200D+05 -0.115000D-03
  0.171200D+04 -0.895000D-03
  0.389300D+03 -0.462400D-02
  0.110000D+03 -0.185280D-01
  0.355700D+02 -0.573390D-01
  0.125400D+02 -0.132076D+00
  0.464400D+01 -0.172510D+00
  0.129300D+01  0.151814D+00
  0.511800D+00  0.599944D+00
  0.178700D+00  0.387462D+00
   s     1 1.00
  0.129300D+01  0.100000D+01
   s     1 1.00
  0.178700D+00  0.100000D+01
   p     5 1.00
  0.266300D+02  0.146700D-01
  0.594800D+01  0.917640D-01
  0.174200D+01  0.298683D+00
  0.555000D+00  0.498487D+00
  0.172500D+00  0.337023D+00
   p     1 1.00
  0.174200D+01  0.100000D+01
   p     1 1.00
  0.555000D+00  0.100000D+01
   d     1 1.00
  0.165400D+01  0.100000D+01
   d     1 1.00
  0.469000D+00  0.100000D+01
   f     1 1.00
  0.109300D+01  0.100000D+01
  
  2  0
   s    10 1.00
  0.823600D+04  0.531000D-03
  0.123500D+04  0.410800D-02
  0.280800D+03  0.210870D-01
  0.792700D+02  0.818530D-01
  0.255900D+02  0.234817D+00
  0.899700D+01  0.434401D+00
  0.331900D+01  0.346129D+00
  0.905900D+00  0.393780D-01
  0.364300D+00 -0.898300D-02
  0.128500D+00  0.238500D-02
   s    10 1.00
  0.823600D+04 -0.113000D-03
  0.123500D+04 -0.878000D-03
  0.280800D+03 -0.454000D-02
  0.792700D+02 -0.181330D-01
  0.255900D+02 -0.557600D-01
  0.899700D+01 -0.126895D+00
  0.331900D+01 -0.170352D+00
  0.905900D+00  0.140382D+00
  0.364300D+00  0.598684D+00
  0.128500D+00  0.395389D+00
   s     1 1.00
  0.905900D+00  0.100000D+01
   s     1 1.00
  0.364300D+00  0.100000D+01
   p     5 1.00
  0.187100D+02  0.140310D-01
  0.413300D+01  0.868660D-01
  0.120000D+01  0.290216D+00
  0.382700D+00  0.501008D+00
  0.120900D+00  0.343406D+00
   p     1 1.00
  0.382700D+00  0.100000D+01
   p     1 1.00
  0.120900D+00  0.100000D+01
   d     1 1.00
  0.109700D+01  0.100000D+01
   d     1 1.00
  0.318000D+00  0.100000D+01
   f     1 1.00
  0.761000D+00  0.100000D+01
  
  3  0
   s    10 1.00
  0.823600D+04  0.531000D-03
  0.123500D+04  0.410800D-02
  0.280800D+03  0.210870D-01
  0.792700D+02  0.818530D-01
  0.255900D+02  0.234817D+00
  0.899700D+01  0.434401D+00
  0.331900D+01  0.346129D+00
  0.905900D+00  0.393780D-01
  0.364300D+00 -0.898300D-02
  0.128500D+00  0.238500D-02
   s    10 1.00
  0.823600D+04 -0.113000D-03
  0.123500D+04 -0.878000D-03
  0.280800D+03 -0.454000D-02
  0.792700D+02 -0.181330D-01
  0.255900D+02 -0.557600D-01
  0.899700D+01 -0.126895D+00
  0.331900D+01 -0.170352D+00
  0.905900D+00  0.140382D+00
  0.364300D+00  0.598684D+00
  0.128500D+00  0.395389D+00
   s     1 1.00
  0.905900D+00  0.100000D+01
   s     1 1.00
  0.364300D+00  0.100000D+01
   p     5 1.00
  0.187100D+02  0.140310D-01
  0.413300D+01  0.868660D-01
  0.120000D+01  0.290216D+00
  0.382700D+00  0.501008D+00
  0.120900D+00  0.343406D+00
   p     1 1.00
  0.382700D+00  0.100000D+01
   p     1 1.00
  0.120900D+00  0.100000D+01
   d     1 1.00
  0.109700D+01  0.100000D+01
   d     1 1.00
  0.318000D+00  0.100000D+01
   f     1 1.00
  0.761000D+00  0.100000D+01
  
  4  0
   s    10 1.00
  0.823600D+04  0.531000D-03
  0.123500D+04  0.410800D-02
  0.280800D+03  0.210870D-01
  0.792700D+02  0.818530D-01
  0.255900D+02  0.234817D+00
  0.899700D+01  0.434401D+00
  0.331900D+01  0.346129D+00
  0.905900D+00  0.393780D-01
  0.364300D+00 -0.898300D-02
  0.128500D+00  0.238500D-02
   s    10 1.00
  0.823600D+04 -0.113000D-03
  0.123500D+04 -0.878000D-03
  0.280800D+03 -0.454000D-02
  0.792700D+02 -0.181330D-01
  0.255900D+02 -0.557600D-01
  0.899700D+01 -0.126895D+00
  0.331900D+01 -0.170352D+00
  0.905900D+00  0.140382D+00
  0.364300D+00  0.598684D+00
  0.128500D+00  0.395389D+00
   s     1 1.00
  0.905900D+00  0.100000D+01
   s     1 1.00
  0.364300D+00  0.100000D+01
   p     5 1.00
  0.187100D+02  0.140310D-01
  0.413300D+01  0.868660D-01
  0.120000D+01  0.290216D+00
  0.382700D+00  0.501008D+00
  0.120900D+00  0.343406D+00
   p     1 1.00
  0.382700D+00  0.100000D+01
   p     1 1.00
  0.120900D+00  0.100000D+01
   d     1 1.00
  0.109700D+01  0.100000D+01
   d     1 1.00
  0.318000D+00  0.100000D+01
   f     1 1.00
  0.761000D+00  0.100000D+01
  
  5  0
   s    10 1.00
  0.823600D+04  0.531000D-03
  0.123500D+04  0.410800D-02
  0.280800D+03  0.210870D-01
  0.792700D+02  0.818530D-01
  0.255900D+02  0.234817D+00
  0.899700D+01  0.434401D+00
  0.331900D+01  0.346129D+00
  0.905900D+00  0.393780D-01
  0.364300D+00 -0.898300D-02
  0.128500D+00  0.238500D-02
   s    10 1.00
  0.823600D+04 -0.113000D-03
  0.123500D+04 -0.878000D-03
  0.280800D+03 -0.454000D-02
  0.792700D+02 -0.181330D-01
  0.255900D+02 -0.557600D-01
  0.899700D+01 -0.126895D+00
  0.331900D+01 -0.170352D+00
  0.905900D+00  0.140382D+00
  0.364300D+00  0.598684D+00
  0.128500D+00  0.395389D+00
   s     1 1.00
  0.905900D+00  0.100000D+01
   s     1 1.00
  0.364300D+00  0.100000D+01
   p     5 1.00
  0.187100D+02  0.140310D-01
  0.413300D+01  0.868660D-01
  0.120000D+01  0.290216D+00
  0.382700D+00  0.501008D+00
  0.120900D+00  0.343406D+00
   p     1 1.00
  0.382700D+00  0.100000D+01
   p     1 1.00
  0.120900D+00  0.100000D+01
   d     1 1.00
  0.109700D+01  0.100000D+01
   d     1 1.00
  0.318000D+00  0.100000D+01
   f     1 1.00
  0.761000D+00  0.100000D+01
  
  6  0
   s    10 1.00
  0.823600D+04  0.531000D-03
  0.123500D+04  0.410800D-02
  0.280800D+03  0.210870D-01
  0.792700D+02  0.818530D-01
  0.255900D+02  0.234817D+00
  0.899700D+01  0.434401D+00
  0.331900D+01  0.346129D+00
  0.905900D+00  0.393780D-01
  0.364300D+00 -0.898300D-02
  0.128500D+00  0.238500D-02
   s    10 1.00
  0.823600D+04 -0.113000D-03
  0.123500D+04 -0.878000D-03
  0.280800D+03 -0.454000D-02
  0.792700D+02 -0.181330D-01
  0.255900D+02 -0.557600D-01
  0.899700D+01 -0.126895D+00
  0.331900D+01 -0.170352D+00
  0.905900D+00  0.140382D+00
  0.364300D+00  0.598684D+00
  0.128500D+00  0.395389D+00
   s     1 1.00
  0.905900D+00  0.100000D+01
   s     1 1.00
  0.364300D+00  0.100000D+01
   p     5 1.00
  0.187100D+02  0.140310D-01
  0.413300D+01  0.868660D-01
  0.120000D+01  0.290216D+00
  0.382700D+00  0.501008D+00
  0.120900D+00  0.343406D+00
   p     1 1.00
  0.382700D+00  0.100000D+01
   p     1 1.00
  0.120900D+00  0.100000D+01
   d     1 1.00
  0.109700D+01  0.100000D+01
   d     1 1.00
  0.318000D+00  0.100000D+01
   f     1 1.00
  0.761000D+00  0.100000D+01
  
  7  0
   s    10 1.00
  0.823600D+04  0.531000D-03
  0.123500D+04  0.410800D-02
  0.280800D+03  0.210870D-01
  0.792700D+02  0.818530D-01
  0.255900D+02  0.234817D+00
  0.899700D+01  0.434401D+00
  0.331900D+01  0.346129D+00
  0.905900D+00  0.393780D-01
  0.364300D+00 -0.898300D-02
  0.128500D+00  0.238500D-02
   s    10 1.00
  0.823600D+04 -0.113000D-03
  0.123500D+04 -0.878000D-03
  0.280800D+03 -0.454000D-02
  0.792700D+02 -0.181330D-01
  0.255900D+02 -0.557600D-01
  0.899700D+01 -0.126895D+00
  0.331900D+01 -0.170352D+00
  0.905900D+00  0.140382D+00
  0.364300D+00  0.598684D+00
  0.128500D+00  0.395389D+00
   s     1 1.00
  0.905900D+00  0.100000D+01
   s     1 1.00
  0.364300D+00  0.100000D+01
   p     5 1.00
  0.187100D+02  0.140310D-01
  0.413300D+01  0.868660D-01
  0.120000D+01  0.290216D+00
  0.382700D+00  0.501008D+00
  0.120900D+00  0.343406D+00
   p     1 1.00
  0.382700D+00  0.100000D+01
   p     1 1.00
  0.120900D+00  0.100000D+01
   d     1 1.00
  0.109700D+01  0.100000D+01
   d     1 1.00
  0.318000D+00  0.100000D+01
   f     1 1.00
  0.761000D+00  0.100000D+01
  
  8  0
   s     4 1.00
  0.130100D+02  0.196850D-01
  0.196200D+01  0.137977D+00
  0.444600D+00  0.478148D+00
  0.122000D+00  0.501240D+00
   s     1 1.00
  0.122000D+00  0.100000D+01
   p     1 1.00
  0.727000D+00  0.100000D+01
  
  9  0
   s     4 1.00
  0.130100D+02  0.196850D-01
  0.196200D+01  0.137977D+00
  0.444600D+00  0.478148D+00
  0.122000D+00  0.501240D+00
   s     1 1.00
  0.122000D+00  0.100000D+01
   p     1 1.00
  0.727000D+00  0.100000D+01
  
 10  0
   s     4 1.00
  0.130100D+02  0.196850D-01
  0.196200D+01  0.137977D+00
  0.444600D+00  0.478148D+00
  0.122000D+00  0.501240D+00
   s     1 1.00
  0.122000D+00  0.100000D+01
   p     1 1.00
  0.727000D+00  0.100000D+01
  
 11  0
   s     4 1.00
  0.130100D+02  0.196850D-01
  0.196200D+01  0.137977D+00
  0.444600D+00  0.478148D+00
  0.122000D+00  0.501240D+00
   s     1 1.00
  0.122000D+00  0.100000D+01
   p     1 1.00
  0.727000D+00  0.100000D+01
  
 12  0
   s     4 1.00
  0.130100D+02  0.196850D-01
  0.196200D+01  0.137977D+00
  0.444600D+00  0.478148D+00
  0.122000D+00  0.501240D+00
   s     1 1.00
  0.122000D+00  0.100000D+01
   p     1 1.00
  0.727000D+00  0.100000D+01
  
 13  0
   s     4 1.00
  0.130100D+02  0.196850D-01
  0.196200D+01  0.137977D+00
  0.444600D+00  0.478148D+00
  0.122000D+00  0.501240D+00
   s     1 1.00
  0.122000D+00  0.100000D+01
   p     1 1.00
  0.727000D+00  0.100000D+01
  
 14  0
   s     4 1.00
  0.130100D+02  0.196850D-01
  0.196200D+01  0.137977D+00
  0.444600D+00  0.478148D+00
  0.122000D+00  0.501240D+00
   s     1 1.00
  0.122000D+00  0.100000D+01
   p     1 1.00
  0.727000D+00  0.100000D+01
  
[MO]
 Sym= __1_a__
 Ene=  0.000000000000000E+000
 Spin= Alpha
 Occup=    2.00000000000000     
                     1  1.183280070721660E-004
                     2  0.998321480105341     
                     3 -3.190571878019060E-003
                     4  1.971471996284330E-003
                     5  6.509919540660760E-003
                     6  2.788908897192020E-003
                     7  5.855267468892230E-003
                     8  0.000000000000000E+000
                     9 -7.592692808466510E-004
                    10 -5.935514937280370E-004
                    11  0.000000000000000E+000
                    12 -2.593777588977760E-003
                    13 -1.545078388456400E-003
                    14  0.000000000000000E+000
                    15 -5.426347630413599E-005
                    16  0.000000000000000E+000
                    17  0.000000000000000E+000
                    18 -1.873942418375718E-004
                    19 -7.072753276181480E-005
                    20  1.328856513631922E-004
                    21  0.000000000000000E+000
                    22  0.000000000000000E+000
                    23 -1.804791923738554E-004
                    24  5.970709388433720E-004
                    25  0.000000000000000E+000
                    26  3.312426565257187E-006
                    27 -5.390328831035735E-005
                    28  0.000000000000000E+000
                    29  0.000000000000000E+000
                    30  1.782722385631877E-005
                    31 -1.073326228363160E-004
                    32 -3.514821580033650E-004
                    33  4.319731127102450E-004
                    34  3.261900263575390E-004
                    35 -8.842021049571671E-005
                    36  4.966874189511180E-005
                    37 -2.787524442917690E-003
                    38  0.000000000000000E+000
                    39  5.064660880084530E-004
                    40  2.188230661565500E-004
                    41  0.000000000000000E+000
                    42 -2.496337461204770E-003
                    43  5.020978891400970E-003
                    44  0.000000000000000E+000
                    45  4.845439159654708E-006
                    46  0.000000000000000E+000
                    47  0.000000000000000E+000
                    48 -1.303391368715120E-004
                    49  1.904792794087090E-005
                    50 -1.779527380510575E-004
                    51  0.000000000000000E+000
                    52  0.000000000000000E+000
                    53  1.873122661598640E-004
                    54  8.301040887446360E-004
                    55  0.000000000000000E+000
                    56 -9.251130412210831E-006
                    57 -8.734567195825138E-005
                    58  0.000000000000000E+000
                    59  0.000000000000000E+000
                    60 -2.257035788678106E-005
                    61 -1.450694603499264E-004
                    62 -5.808690993594610E-004
                    63 -2.292249814867610E-003
                    64 -9.288712986242250E-005
                    65  2.333377146041740E-003
                    66 -5.602353344201279E-004
                    67  1.099856429396270E-004
                    68  0.000000000000000E+000
                    69  4.672379566551810E-004
                    70  9.052655209808400E-004
                    71  0.000000000000000E+000
                    72 -1.767770806168680E-003
                    73  7.868940633236050E-004
                    74  0.000000000000000E+000
                    75 -4.605536702851681E-005
                    76  0.000000000000000E+000
                    77  0.000000000000000E+000
                    78 -7.009279806255240E-005
                    79 -2.977795464445090E-005
                    80 -1.572916331925073E-004
                    81  0.000000000000000E+000
                    82  0.000000000000000E+000
                    83  1.113983346412166E-004
                    84  7.381181550872761E-005
                    85  0.000000000000000E+000
                    86  6.697543836907310E-006
                    87 -4.144263252200982E-005
                    88  0.000000000000000E+000
                    89  0.000000000000000E+000
                    90 -1.253071670544641E-005
                    91 -1.609999912967485E-004
                    92 -1.050982430254330E-004
                    93 -3.325347657012360E-004
                    94  2.092344924938610E-004
                    95 -4.367440475000280E-004
                    96  1.746703751703540E-004
                    97 -1.183696288361270E-004
                    98  0.000000000000000E+000
                    99  4.164625395626940E-004
                   100  3.120073220414180E-004
                   101  0.000000000000000E+000
                   102  5.742786640677190E-004
                   103 -1.506451114011300E-003
                   104  0.000000000000000E+000
                   105 -1.317865966593213E-005
                   106  0.000000000000000E+000
                   107  0.000000000000000E+000
                   108 -2.931746677662140E-005
                   109 -1.114810147549410E-005
                   110  1.648600502046228E-004
                   111  0.000000000000000E+000
                   112  0.000000000000000E+000
                   113 -7.526640442403780E-005
                   114 -8.090572896958260E-006
                   115  0.000000000000000E+000
                   116 -2.210307956873626E-005
                   117 -2.483838917393267E-005
                   118  0.000000000000000E+000
                   119  0.000000000000000E+000
                   120  2.049235984681925E-005
                   121 -2.399483839613051E-005
                   122 -2.689835802092390E-004
                   123 -6.902049807575780E-004
                   124  1.769060597476610E-004
                   125  3.904044309043770E-004
                   126 -2.755951193387380E-005
                   127 -2.931767536067980E-004
                   128  0.000000000000000E+000
                   129  2.213041893299420E-004
                   130  6.280669403722139E-004
                   131  0.000000000000000E+000
                   132  3.739788555400800E-004
                   133  2.089141761888570E-003
                   134  0.000000000000000E+000
                   135  1.377673033919607E-005
                   136  0.000000000000000E+000
                   137  0.000000000000000E+000
                   138  5.008387581643400E-005
                   139 -2.376122723910670E-006
                   140  2.217884982806681E-004
                   141  0.000000000000000E+000
                   142  0.000000000000000E+000
                   143  4.008870244723900E-004
                   144  2.547246541972540E-004
                   145  0.000000000000000E+000
                   146 -1.076114824354071E-005
                   147 -6.559424751611700E-005
                   148  0.000000000000000E+000
                   149  0.000000000000000E+000
                   150 -2.012935634489493E-005
                   151 -5.862980231491184E-005
                   152 -1.674581843164680E-004
                   153 -5.234137777958590E-004
                   154  2.121470269791040E-005
                   155  4.290354395573840E-004
                   156  9.339170111513680E-006
                   157 -2.888612607271610E-007
                   158  0.000000000000000E+000
                   159  3.427426621311840E-005
                   160 -4.052155349333870E-005
                   161  0.000000000000000E+000
                   162  7.186959453390180E-004
                   163 -4.115387100022470E-004
                   164  0.000000000000000E+000
                   165 -2.935586639647490E-007
                   166  0.000000000000000E+000
                   167  0.000000000000000E+000
                   168 -2.445500543860220E-006
                   169  1.462336766924050E-005
                   170  5.465997080576411E-005
                   171  0.000000000000000E+000
                   172  0.000000000000000E+000
                   173  6.006368723272000E-006
                   174  5.046660213543800E-006
                   175  0.000000000000000E+000
                   176  5.457496900336718E-006
                   177 -7.860917377810455E-006
                   178  0.000000000000000E+000
                   179  0.000000000000000E+000
                   180 -3.017416158770714E-005
                   181 -1.438048225590306E-005
                   182 -1.639665996241040E-004
                   183 -4.747274029188100E-004
                   184  4.136197081431680E-005
                   185  2.500469464981880E-004
                   186 -4.562998630948840E-005
                   187 -6.930056768589130E-005
                   188  0.000000000000000E+000
                   189  2.338580016248490E-004
                   190  9.338473696840571E-005
                   191  0.000000000000000E+000
                   192  1.385824198849420E-003
                   193 -2.724397436627620E-004
                   194  0.000000000000000E+000
                   195  1.244669843332094E-007
                   196  0.000000000000000E+000
                   197  0.000000000000000E+000
                   198 -4.098548142079580E-006
                   199  8.897189180556950E-006
                   200  4.873536748363186E-006
                   201  0.000000000000000E+000
                   202  0.000000000000000E+000
                   203 -8.218343586743880E-005
                   204 -2.030116107523910E-004
                   205  0.000000000000000E+000
                   206 -6.920225390596339E-006
                   207 -4.292088604666777E-006
                   208  0.000000000000000E+000
                   209  0.000000000000000E+000
                   210  1.134708917019018E-005
                   211 -4.745981588201539E-006
                   212 -5.837355139736750E-005
                   213  1.177022953466380E-004
                   214  2.382021110041500E-005
                   215  2.477493893850590E-005
                   216  0.000000000000000E+000
                   217 -1.443046891112830E-003
                   218 -4.115922292971180E-004
                   219 -2.358775836056610E-004
                   220  6.110414842789300E-005
                   221  0.000000000000000E+000
                   222 -2.077894585356340E-004
                   223 -6.353847874396250E-004
                   224  2.879878375008550E-005
                   225 -7.110671360251060E-005
                   226  0.000000000000000E+000
                   227  1.234775215852530E-004
                   228 -6.729296243585710E-004
                   229 -3.873149929873270E-005
                   230 -1.549423291615070E-005
                   231  0.000000000000000E+000
                   232  3.149634312319310E-005
                   233 -5.927215694305330E-004
                   234  1.437071519746620E-005
                   235 -3.179357059005730E-006
                   236  0.000000000000000E+000
                   237  1.793915618506580E-005
                   238 -3.718800830540600E-004
                   239  2.476066089626450E-007
                   240  6.605198566887520E-006
                   241  0.000000000000000E+000
                   242 -6.740548174399131E-005
                   243  3.206258961014020E-005
                   244  7.258784134731759E-007
                   245  2.845825882189100E-005
                   246  0.000000000000000E+000
 Sym= __2_a__
 Ene=  0.000000000000000E+000
 Spin= Alpha
 Occup=    2.00000000000000     
                     1  4.265539363950240E-005
                     2  3.582921557725840E-004
                     3 -3.515526148747690E-003
                     4 -1.252399037205880E-004
                     5 -1.574444261215190E-003
                     6  9.585008542738790E-004
                     7 -4.106233170982650E-003
                     8  0.000000000000000E+000
                     9  7.136978196710020E-005
                    10  8.819326196565150E-005
                    11  0.000000000000000E+000
                    12 -1.552432211821230E-004
                    13  4.018324356121890E-004
                    14  0.000000000000000E+000
                    15 -2.288245313321220E-005
                    16  0.000000000000000E+000
                    17  0.000000000000000E+000
                    18  7.276838577146080E-005
                    19 -2.376314097912160E-005
                    20  1.510089241764933E-004
                    21  0.000000000000000E+000
                    22  0.000000000000000E+000
                    23 -7.588480014180720E-005
                    24  4.885326375631790E-005
                    25  0.000000000000000E+000
                    26  1.805099727669005E-005
                    27 -7.056324965553107E-005
                    28  0.000000000000000E+000
                    29  0.000000000000000E+000
                    30  2.976371228885976E-005
                    31 -1.317663976432054E-004
                    32  -1.00081289562906     
                    33 -9.540851310790880E-003
                    34 -2.879947711362190E-003
                    35  8.303371099471150E-003
                    36  4.099509080674030E-004
                    37  4.824926415884940E-003
                    38  0.000000000000000E+000
                    39 -1.703498349535290E-004
                    40 -4.997541512130320E-004
                    41  0.000000000000000E+000
                    42 -1.446168741769260E-004
                    43 -4.761969019177790E-003
                    44  0.000000000000000E+000
                    45  5.376682547569856E-004
                    46  0.000000000000000E+000
                    47  0.000000000000000E+000
                    48  2.420811565237800E-004
                    49  6.694495019774490E-006
                    50 -5.623213542137300E-004
                    51  0.000000000000000E+000
                    52  0.000000000000000E+000
                    53  9.062631235716020E-004
                    54 -1.484288838729940E-005
                    55  0.000000000000000E+000
                    56  7.253386137035632E-007
                    57 -1.134964893977664E-004
                    58  0.000000000000000E+000
                    59  0.000000000000000E+000
                    60 -2.374702494786796E-006
                    61 -3.969695797866457E-004
                    62 -1.438635533623080E-002
                    63  2.298762430957190E-003
                    64  2.725858469090650E-004
                    65 -3.040797003094340E-003
                    66  2.400086552842050E-004
                    67 -4.043076394165690E-004
                    68  0.000000000000000E+000
                    69 -7.400958520301350E-004
                    70 -1.383500098483440E-005
                    71  0.000000000000000E+000
                    72  2.134891942532110E-003
                    73 -6.841356138658640E-007
                    74  0.000000000000000E+000
                    75 -2.539526556439436E-005
                    76  0.000000000000000E+000
                    77  0.000000000000000E+000
                    78  2.476570758780440E-005
                    79  1.767559501595690E-006
                    80  4.177669619678632E-004
                    81  0.000000000000000E+000
                    82  0.000000000000000E+000
                    83  6.219111822196960E-004
                    84  3.455028828315980E-004
                    85  0.000000000000000E+000
                    86 -3.408230300624456E-005
                    87  6.083321426599957E-005
                    88  0.000000000000000E+000
                    89  0.000000000000000E+000
                    90 -5.987153033239848E-005
                    91 -1.454464152195175E-004
                    92 -1.593354102399240E-002
                    93  2.344827846311670E-003
                    94  2.549493211891080E-004
                    95 -3.009717542834140E-003
                    96 -5.089635206002760E-004
                    97 -5.306900103018620E-004
                    98  0.000000000000000E+000
                    99  7.145349996828780E-004
                   100 -3.292873668960470E-005
                   101  0.000000000000000E+000
                   102 -2.094751936846090E-003
                   103  4.787236703465030E-006
                   104  0.000000000000000E+000
                   105 -3.179062487416798E-005
                   106  0.000000000000000E+000
                   107  0.000000000000000E+000
                   108  2.884658651578180E-005
                   109  1.523647221586770E-005
                   110  4.007025884126997E-004
                   111  0.000000000000000E+000
                   112  0.000000000000000E+000
                   113  6.168760777635900E-004
                   114 -3.185225723692940E-004
                   115  0.000000000000000E+000
                   116  3.699923801687923E-005
                   117  6.485342611931110E-005
                   118  0.000000000000000E+000
                   119  0.000000000000000E+000
                   120  5.398094052412069E-005
                   121 -1.428682463278171E-004
                   122 -1.870814664136790E-004
                   123  5.370746746153070E-004
                   124 -2.299511894768630E-004
                   125  1.107666369122040E-004
                   126  6.492192127888230E-006
                   127  5.645251627727609E-004
                   128  0.000000000000000E+000
                   129  7.886553028825170E-005
                   130 -5.668831225381560E-004
                   131  0.000000000000000E+000
                   132 -3.148333743151770E-004
                   133 -8.287612434467410E-004
                   134  0.000000000000000E+000
                   135 -1.766325567094399E-005
                   136  0.000000000000000E+000
                   137  0.000000000000000E+000
                   138  4.055608260589720E-007
                   139 -5.823461719134200E-005
                   140 -1.398944901408022E-004
                   141  0.000000000000000E+000
                   142  0.000000000000000E+000
                   143 -2.490477732295980E-004
                   144  1.581583809127050E-004
                   145  0.000000000000000E+000
                   146 -8.992380783297463E-006
                   147  3.494782518422513E-005
                   148  0.000000000000000E+000
                   149  0.000000000000000E+000
                   150  5.356093003423758E-005
                   151 -3.195636907105659E-005
                   152 -4.297125771950880E-004
                   153  5.214795301888250E-004
                   154 -2.283251167183030E-004
                   155  1.042999644026610E-004
                   156  4.120091519181890E-005
                   157  6.236563179781810E-004
                   158  0.000000000000000E+000
                   159 -7.223559920246921E-005
                   160 -5.797570863423810E-004