[Molden Format]
[Atoms] AU
  N     1    7    -4.4519150800    0.1645695100   -0.0000004400        
  C     2    6    -1.7695092000   -0.0145096000   -0.0000001700        
  C     3    6    -0.4270927200   -0.0061402300   -2.2691546100        
  C     4    6    -0.4270931100   -0.0061391100    2.2691544900        
  C     5    6     2.1889955900   -0.0004823800   -2.2566388900        
  C     6    6     2.1889952100   -0.0004812700    2.2566392100        
  C     7    6     3.5149715000    0.0022090000    0.0000002700        
  H     8    1    -5.3130101500   -0.8650459100   -1.8277697800        
  H     9    1    -5.1855380900   -0.7126258900    1.5571951400        
  H    10    1    -1.4305344500   -0.0005073500   -4.0318143700        
  H    11    1    -1.4305351200   -0.0005053700    4.0318140800        
  H    12    1     3.1914120400   -0.0010699000   -4.0209976100        
  H    13    1     3.1914113700   -0.0010679200    4.0209980900        
  H    14    1     5.5428332300    0.0050250700    0.0000004400        
[5D]
[7F]
[GTO]
  1  0
   s    12 1.00
  0.114200D+05  0.172695D-04
  0.171200D+04  0.134411D-03
  0.389300D+03  0.694561D-03
  0.110000D+03  0.278531D-02
  0.355700D+02  0.863457D-02
  0.125400D+02  0.199805D-01
  0.464400D+01  0.262908D-01
  0.129300D+01 -0.243845D-01
  0.511800D+00 -0.924934D-01
  0.178700D+00 -0.339683D+00
  0.246240D-01  0.345111D+00
  0.112530D-01  0.752750D+00
   s    10 1.00
  0.114200D+05  0.523000D-03
  0.171200D+04  0.404500D-02
  0.389300D+03  0.207750D-01
  0.110000D+03  0.807269D-01
  0.355700D+02  0.233074D+00
  0.125400D+02  0.433501D+00
  0.464400D+01  0.347472D+00
  0.129300D+01  0.412620D-01
  0.511800D+00 -0.850799D-02
  0.178700D+00  0.238400D-02
   s    10 1.00
  0.114200D+05 -0.115000D-03
  0.171200D+04 -0.895000D-03
  0.389300D+03 -0.462400D-02
  0.110000D+03 -0.185280D-01
  0.355700D+02 -0.573390D-01
  0.125400D+02 -0.132076D+00
  0.464400D+01 -0.172510D+00
  0.129300D+01  0.151814D+00
  0.511800D+00  0.599944D+00
  0.178700D+00  0.387462D+00
   s     1 1.00
  0.129300D+01  0.100000D+01
   s     1 1.00
  0.178700D+00  0.100000D+01
   p     5 1.00
  0.266300D+02  0.146700D-01
  0.594800D+01  0.917640D-01
  0.174200D+01  0.298683D+00
  0.555000D+00  0.498487D+00
  0.172500D+00  0.337023D+00
   p     1 1.00
  0.174200D+01  0.100000D+01
   p     1 1.00
  0.555000D+00  0.100000D+01
   d     1 1.00
  0.165400D+01  0.100000D+01
   d     1 1.00
  0.469000D+00  0.100000D+01
   f     1 1.00
  0.109300D+01  0.100000D+01
  
  2  0
   s    10 1.00
  0.823600D+04  0.531000D-03
  0.123500D+04  0.410800D-02
  0.280800D+03  0.210870D-01
  0.792700D+02  0.818530D-01
  0.255900D+02  0.234817D+00
  0.899700D+01  0.434401D+00
  0.331900D+01  0.346129D+00
  0.905900D+00  0.393780D-01
  0.364300D+00 -0.898300D-02
  0.128500D+00  0.238500D-02
   s    10 1.00
  0.823600D+04 -0.113000D-03
  0.123500D+04 -0.878000D-03
  0.280800D+03 -0.454000D-02
  0.792700D+02 -0.181330D-01
  0.255900D+02 -0.557600D-01
  0.899700D+01 -0.126895D+00
  0.331900D+01 -0.170352D+00
  0.905900D+00  0.140382D+00
  0.364300D+00  0.598684D+00
  0.128500D+00  0.395389D+00
   s     1 1.00
  0.905900D+00  0.100000D+01
   s     1 1.00
  0.364300D+00  0.100000D+01
   p     5 1.00
  0.187100D+02  0.140310D-01
  0.413300D+01  0.868660D-01
  0.120000D+01  0.290216D+00
  0.382700D+00  0.501008D+00
  0.120900D+00  0.343406D+00
   p     1 1.00
  0.382700D+00  0.100000D+01
   p     1 1.00
  0.120900D+00  0.100000D+01
   d     1 1.00
  0.109700D+01  0.100000D+01
   d     1 1.00
  0.318000D+00  0.100000D+01
   f     1 1.00
  0.761000D+00  0.100000D+01
  
  3  0
   s    10 1.00
  0.823600D+04  0.531000D-03
  0.123500D+04  0.410800D-02
  0.280800D+03  0.210870D-01
  0.792700D+02  0.818530D-01
  0.255900D+02  0.234817D+00
  0.899700D+01  0.434401D+00
  0.331900D+01  0.346129D+00
  0.905900D+00  0.393780D-01
  0.364300D+00 -0.898300D-02
  0.128500D+00  0.238500D-02
   s    10 1.00
  0.823600D+04 -0.113000D-03
  0.123500D+04 -0.878000D-03
  0.280800D+03 -0.454000D-02
  0.792700D+02 -0.181330D-01
  0.255900D+02 -0.557600D-01
  0.899700D+01 -0.126895D+00
  0.331900D+01 -0.170352D+00
  0.905900D+00  0.140382D+00
  0.364300D+00  0.598684D+00
  0.128500D+00  0.395389D+00
   s     1 1.00
  0.905900D+00  0.100000D+01
   s     1 1.00
  0.364300D+00  0.100000D+01
   p     5 1.00
  0.187100D+02  0.140310D-01
  0.413300D+01  0.868660D-01
  0.120000D+01  0.290216D+00
  0.382700D+00  0.501008D+00
  0.120900D+00  0.343406D+00
   p     1 1.00
  0.382700D+00  0.100000D+01
   p     1 1.00
  0.120900D+00  0.100000D+01
   d     1 1.00
  0.109700D+01  0.100000D+01
   d     1 1.00
  0.318000D+00  0.100000D+01
   f     1 1.00
  0.761000D+00  0.100000D+01
  
  4  0
   s    10 1.00
  0.823600D+04  0.531000D-03
  0.123500D+04  0.410800D-02
  0.280800D+03  0.210870D-01
  0.792700D+02  0.818530D-01
  0.255900D+02  0.234817D+00
  0.899700D+01  0.434401D+00
  0.331900D+01  0.346129D+00
  0.905900D+00  0.393780D-01
  0.364300D+00 -0.898300D-02
  0.128500D+00  0.238500D-02
   s    10 1.00
  0.823600D+04 -0.113000D-03
  0.123500D+04 -0.878000D-03
  0.280800D+03 -0.454000D-02
  0.792700D+02 -0.181330D-01
  0.255900D+02 -0.557600D-01
  0.899700D+01 -0.126895D+00
  0.331900D+01 -0.170352D+00
  0.905900D+00  0.140382D+00
  0.364300D+00  0.598684D+00
  0.128500D+00  0.395389D+00
   s     1 1.00
  0.905900D+00  0.100000D+01
   s     1 1.00
  0.364300D+00  0.100000D+01
   p     5 1.00
  0.187100D+02  0.140310D-01
  0.413300D+01  0.868660D-01
  0.120000D+01  0.290216D+00
  0.382700D+00  0.501008D+00
  0.120900D+00  0.343406D+00
   p     1 1.00
  0.382700D+00  0.100000D+01
   p     1 1.00
  0.120900D+00  0.100000D+01
   d     1 1.00
  0.109700D+01  0.100000D+01
   d     1 1.00
  0.318000D+00  0.100000D+01
   f     1 1.00
  0.761000D+00  0.100000D+01
  
  5  0
   s    10 1.00
  0.823600D+04  0.531000D-03
  0.123500D+04  0.410800D-02
  0.280800D+03  0.210870D-01
  0.792700D+02  0.818530D-01
  0.255900D+02  0.234817D+00
  0.899700D+01  0.434401D+00
  0.331900D+01  0.346129D+00
  0.905900D+00  0.393780D-01
  0.364300D+00 -0.898300D-02
  0.128500D+00  0.238500D-02
   s    10 1.00
  0.823600D+04 -0.113000D-03
  0.123500D+04 -0.878000D-03
  0.280800D+03 -0.454000D-02
  0.792700D+02 -0.181330D-01
  0.255900D+02 -0.557600D-01
  0.899700D+01 -0.126895D+00
  0.331900D+01 -0.170352D+00
  0.905900D+00  0.140382D+00
  0.364300D+00  0.598684D+00
  0.128500D+00  0.395389D+00
   s     1 1.00
  0.905900D+00  0.100000D+01
   s     1 1.00
  0.364300D+00  0.100000D+01
   p     5 1.00
  0.187100D+02  0.140310D-01
  0.413300D+01  0.868660D-01
  0.120000D+01  0.290216D+00
  0.382700D+00  0.501008D+00
  0.120900D+00  0.343406D+00
   p     1 1.00
  0.382700D+00  0.100000D+01
   p     1 1.00
  0.120900D+00  0.100000D+01
   d     1 1.00
  0.109700D+01  0.100000D+01
   d     1 1.00
  0.318000D+00  0.100000D+01
   f     1 1.00
  0.761000D+00  0.100000D+01
  
  6  0
   s    10 1.00
  0.823600D+04  0.531000D-03
  0.123500D+04  0.410800D-02
  0.280800D+03  0.210870D-01
  0.792700D+02  0.818530D-01
  0.255900D+02  0.234817D+00
  0.899700D+01  0.434401D+00
  0.331900D+01  0.346129D+00
  0.905900D+00  0.393780D-01
  0.364300D+00 -0.898300D-02
  0.128500D+00  0.238500D-02
   s    10 1.00
  0.823600D+04 -0.113000D-03
  0.123500D+04 -0.878000D-03
  0.280800D+03 -0.454000D-02
  0.792700D+02 -0.181330D-01
  0.255900D+02 -0.557600D-01
  0.899700D+01 -0.126895D+00
  0.331900D+01 -0.170352D+00
  0.905900D+00  0.140382D+00
  0.364300D+00  0.598684D+00
  0.128500D+00  0.395389D+00
   s     1 1.00
  0.905900D+00  0.100000D+01
   s     1 1.00
  0.364300D+00  0.100000D+01
   p     5 1.00
  0.187100D+02  0.140310D-01
  0.413300D+01  0.868660D-01
  0.120000D+01  0.290216D+00
  0.382700D+00  0.501008D+00
  0.120900D+00  0.343406D+00
   p     1 1.00
  0.382700D+00  0.100000D+01
   p     1 1.00
  0.120900D+00  0.100000D+01
   d     1 1.00
  0.109700D+01  0.100000D+01
   d     1 1.00
  0.318000D+00  0.100000D+01
   f     1 1.00
  0.761000D+00  0.100000D+01
  
  7  0
   s    10 1.00
  0.823600D+04  0.531000D-03
  0.123500D+04  0.410800D-02
  0.280800D+03  0.210870D-01
  0.792700D+02  0.818530D-01
  0.255900D+02  0.234817D+00
  0.899700D+01  0.434401D+00
  0.331900D+01  0.346129D+00
  0.905900D+00  0.393780D-01
  0.364300D+00 -0.898300D-02
  0.128500D+00  0.238500D-02
   s    10 1.00
  0.823600D+04 -0.113000D-03
  0.123500D+04 -0.878000D-03
  0.280800D+03 -0.454000D-02
  0.792700D+02 -0.181330D-01
  0.255900D+02 -0.557600D-01
  0.899700D+01 -0.126895D+00
  0.331900D+01 -0.170352D+00
  0.905900D+00  0.140382D+00
  0.364300D+00  0.598684D+00
  0.128500D+00  0.395389D+00
   s     1 1.00
  0.905900D+00  0.100000D+01
   s     1 1.00
  0.364300D+00  0.100000D+01
   p     5 1.00
  0.187100D+02  0.140310D-01
  0.413300D+01  0.868660D-01
  0.120000D+01  0.290216D+00
  0.382700D+00  0.501008D+00
  0.120900D+00  0.343406D+00
   p     1 1.00
  0.382700D+00  0.100000D+01
   p     1 1.00
  0.120900D+00  0.100000D+01
   d     1 1.00
  0.109700D+01  0.100000D+01
   d     1 1.00
  0.318000D+00  0.100000D+01
   f     1 1.00
  0.761000D+00  0.100000D+01
  
  8  0
   s     4 1.00
  0.130100D+02  0.196850D-01
  0.196200D+01  0.137977D+00
  0.444600D+00  0.478148D+00
  0.122000D+00  0.501240D+00
   s     1 1.00
  0.122000D+00  0.100000D+01
   p     1 1.00
  0.727000D+00  0.100000D+01
  
  9  0
   s     4 1.00
  0.130100D+02  0.196850D-01
  0.196200D+01  0.137977D+00
  0.444600D+00  0.478148D+00
  0.122000D+00  0.501240D+00
   s     1 1.00
  0.122000D+00  0.100000D+01
   p     1 1.00
  0.727000D+00  0.100000D+01
  
 10  0
   s     4 1.00
  0.130100D+02  0.196850D-01
  0.196200D+01  0.137977D+00
  0.444600D+00  0.478148D+00
  0.122000D+00  0.501240D+00
   s     1 1.00
  0.122000D+00  0.100000D+01
   p     1 1.00
  0.727000D+00  0.100000D+01
  
 11  0
   s     4 1.00
  0.130100D+02  0.196850D-01
  0.196200D+01  0.137977D+00
  0.444600D+00  0.478148D+00
  0.122000D+00  0.501240D+00
   s     1 1.00
  0.122000D+00  0.100000D+01
   p     1 1.00
  0.727000D+00  0.100000D+01
  
 12  0
   s     4 1.00
  0.130100D+02  0.196850D-01
  0.196200D+01  0.137977D+00
  0.444600D+00  0.478148D+00
  0.122000D+00  0.501240D+00
   s     1 1.00
  0.122000D+00  0.100000D+01
   p     1 1.00
  0.727000D+00  0.100000D+01
  
 13  0
   s     4 1.00
  0.130100D+02  0.196850D-01
  0.196200D+01  0.137977D+00
  0.444600D+00  0.478148D+00
  0.122000D+00  0.501240D+00
   s     1 1.00
  0.122000D+00  0.100000D+01
   p     1 1.00
  0.727000D+00  0.100000D+01
  
 14  0
   s     4 1.00
  0.130100D+02  0.196850D-01
  0.196200D+01  0.137977D+00
  0.444600D+00  0.478148D+00
  0.122000D+00  0.501240D+00
   s     1 1.00
  0.122000D+00  0.100000D+01
   p     1 1.00
  0.727000D+00  0.100000D+01
  
[MO]
 Sym= __1_A__
 Ene=   1.00000000000000     
 Spin= Alpha
 Occup=    1.00000000000000     
                     1  1.935305944604432E-004
                     2  0.998311086278873     
                     3  2.467871290054649E-003
                     4  1.680423034955825E-003
                     5  5.738872004814829E-003
                     6  5.702560996853724E-003
                     7 -4.705199761779892E-003
                     8  3.268650961531911E-004
                     9 -7.671960918291947E-004
                    10  3.301967210378958E-004
                    11  3.946291593220531E-005
                    12 -1.594570498302586E-003
                    13  3.139636852888579E-003
                    14 -1.721878684368679E-004
                    15 -4.803536331028836E-005
                    16 -4.074695646381995E-005
                    17 -5.886344518494813E-005
                    18  7.982988280806620E-005
                    19  3.435555222910638E-005
                    20 -3.570454098401495E-004
                    21  2.419101442858473E-005
                    22 -1.327277365225921E-005
                    23  4.113488947557384E-005
                    24 -4.728634556663737E-004
                    25 -1.713130737175315E-006
                    26 -1.110680299082639E-004
                    27 -3.143465811966860E-005
                    28 -1.559976133256060E-005
                    29  2.574164419625544E-005
                    30 -7.952429020529266E-005
                    31 -5.793315950988383E-005
                    32 -3.820315110064116E-004
                    33  7.652906878330284E-004
                    34  2.422411867877756E-004
                    35 -1.079371889513590E-004
                    36 -3.971897384485530E-003
                    37 -3.863019420173509E-005
                    38 -4.673500339748710E-005
                    39  1.110560255522094E-004
                    40 -6.807195175479302E-006
                    41  4.077952273463085E-005
                    42  4.971734570596844E-003
                    43  7.906221800097196E-004
                    44 -9.907715870255666E-005
                    45 -2.089817521554722E-004
                    46 -1.009499661000996E-005
                    47  3.399388537610414E-007
                    48  1.898835856850958E-004
                    49  4.499137822198604E-005
                    50  3.961102420526751E-004
                    51  5.911977943107487E-005
                    52  7.651199697161202E-007
                    53 -1.877802280683123E-005
                    54 -3.552558867620508E-004
                    55  7.019214640823033E-006
                    56 -5.711259901678182E-005
                    57  7.631278858161965E-006
                    58  1.071192466742227E-005
                    59 -1.287000061295127E-007
                    60 -3.204207463158119E-005
                    61  4.112727004882234E-005
                    62 -3.648129529814162E-004
                    63 -1.703327163923789E-003
                    64  7.963288847679708E-005
                    65  9.399327087537874E-004
                    66  4.596839412994458E-004
                    67 -1.108017956911792E-004
                    68 -5.200424900185546E-004
                    69  5.688386055285000E-004
                    70  8.148938577270988E-005
                    71  1.534739832814521E-004
                    72 -3.893498671746814E-004
                    73 -3.488624353892466E-004
                    74 -9.571735412452039E-004
                    75 -6.349345000484325E-005
                    76 -1.423173878458056E-005
                    77  1.862085732061715E-005
                    78  6.146676445012952E-005
                    79 -9.438345650048507E-006
                    80  1.760493248177803E-004
                    81  1.396482171803856E-004
                    82 -3.107108523859753E-005
                    83 -1.118516867319105E-004
                    84  5.119250815971804E-005
                    85 -1.256515608743320E-005
                    86 -6.044553705909966E-005
                    87  2.028656366667086E-005
                    88 -1.318271228709508E-005
                    89  1.237972988281290E-005
                    90 -4.857524442231324E-005
                    91 -1.080148011635682E-005
                    92 -3.709109794781281E-004
                    93 -1.778172137034457E-003
                    94  1.009980541860681E-004
                    95  8.419844005822684E-004
                    96  5.167424466770961E-004
                    97 -1.130392096994530E-004
                    98  5.490485413681518E-004
                    99  5.774878817871136E-004
                   100  8.644012000613012E-005
                   101 -7.958834874501419E-005
                   102 -6.210859771561284E-004
                   103 -3.630567710048711E-004
                   104  8.063531203597065E-004
                   105 -7.105034811253437E-005
                   106  9.093698828786587E-006
                   107 -1.918624329259382E-005
                   108  5.989700038374060E-005
                   109 -1.085029694689422E-005
                   110  1.479100396201967E-004
                   111 -1.293337908446865E-004
                   112  3.250539453580346E-005
                   113 -9.450502030844812E-005
                   114  5.886216824273608E-005
                   115  5.776373966366520E-006
                   116 -5.756315873197677E-005
                   117  2.006769561863622E-005
                   118  8.346767056614407E-006
                   119 -1.247047952403786E-005
                   120 -4.536040689982399E-005
                   121 -1.066518629445783E-005
                   122 -1.966850739986268E-004
                   123 -3.780249661352196E-004
                   124  5.360814656594960E-005
                   125  5.771335450409066E-004
                   126 -4.741016874945347E-004
                   127 -5.334726882854288E-005
                   128  1.440224037391867E-005
                   129  2.305795798067724E-004
                   130 -2.412658969683134E-005
                   131  3.814321856320352E-005
                   132  9.506950432908803E-004
                   133  1.566111259984356E-004
                   134 -2.095642475357762E-004
                   135  6.611593332429626E-006
                   136 -1.380580802274267E-006
                   137 -4.332960093793543E-006
                   138 -8.379016349660614E-007
                   139  9.427683410558480E-006
                   140  8.442962444168654E-005
                   141  1.830211476789638E-004
                   142  8.538763882095098E-006
                   143 -1.925093068664013E-004
                   144 -1.570654711073276E-005
                   145 -1.043977170962212E-005
                   146 -1.497144254792614E-005
                   147  2.432980560256083E-006
                   148 -2.120030603085202E-006
                   149 -2.394996722207213E-006
                   150 -4.610654259833189E-005
                   151 -1.762581452602049E-006
                   152 -1.920740903431940E-004
                   153 -3.467170142561698E-004
                   154  5.552605423719710E-005
                   155  5.411936187221036E-004
                   156 -4.907302643107013E-004
                   157 -5.186564685780502E-005
                   158 -1.685765352086561E-005
                   159  2.180764927698822E-004
                   160 -2.802526861897948E-005
                   161 -3.087368644464481E-005
                   162  7.582440461176588E-004
                   163  1.622084700925560E-004
                   164  3.413109447177399E-004
                   165  6.045544970160165E-006
                   166  3.522347540938075E-007
                   167  4.427713750002514E-006
                   168 -1.585775294883219E-007
                   169  9.848698170460596E-006
                   170  6.987645845343565E-005
                   171 -1.674447858980490E-004
                   172 -9.867154678036488E-006
                   173 -1.879192688245452E-004
                   174 -1.300696478504176E-005
                   175  9.402302163393171E-006
                   176 -1.655747317550232E-005
                   177  2.865328043826958E-006
                   178  2.151099369209544E-006
                   179  2.208611060665486E-006
                   180 -4.436443602912706E-005
                   181 -2.610119094101115E-006
                   182 -1.260931903394464E-004
                   183 -3.882557927089245E-004
                   184  3.001076218048991E-005
                   185  1.578629481420020E-004
                   186 -2.234767627523892E-005
                   187 -6.103748518847922E-005
                   188 -2.564844821930812E-006
                   189  1.020359869101402E-004
                   190  2.170550122278058E-005
                   191  1.710612114688965E-005
                   192 -3.780699994058213E-004
                   193 -1.096909316483160E-004
                   194  1.130266895877770E-004
                   195 -9.065718056621038E-006
                   196 -4.471208848228808E-007
                   197  2.266954632484454E-007
                   198  3.656964548586418E-006
                   199 -2.090226177979105E-006
                   200 -1.119471304622257E-004
                   201 -1.105364025130212E-005
                   202 -1.509756399672128E-006
                   203  5.691065935932628E-005
                   204  1.843376111445682E-005
                   205 -9.798324571992174E-008
                   206  2.862739123268587E-006
                   207  3.147682989559089E-006
                   208  7.532542074127150E-007
                   209  1.344195744922414E-007
                   210 -5.848997620877460E-006
                   211 -2.981518927504961E-006
                   212  1.239998526779689E-003
                   213 -1.172838118433971E-003
                   214  1.528969961133079E-004
                   215  2.611438061183457E-004
                   216  2.907540111606210E-004
                   217  2.254823880898830E-003
                   218 -1.980159694662129E-003
                   219  1.701838025256472E-004
                   220  2.882680231408542E-004
                   221 -3.232496742650897E-004
                   222 -4.166718498504249E-004
                   223 -4.203722807948997E-004
                   224 -5.977083379906703E-005
                   225  9.582499303270720E-006
                   226  3.997699201624007E-005
                   227 -4.311855539438046E-004
                   228 -3.541024152195359E-004
                   229 -5.696640615609743E-005
                   230  9.954635672073622E-006
                   231 -4.053297202088991E-005
                   232 -9.019726773218881E-005
                   233 -4.715425035640885E-004
                   234  3.723030247293238E-006
                   235 -1.882667696721850E-006
                   236 -7.998634312550095E-006
                   237 -9.691750334142596E-005
                   238 -4.810054256575252E-004
                   239  2.108117781426925E-006
                   240 -1.983982259068287E-006
                   241  6.417654646170221E-006
                   242  7.651709673087133E-006
                   243  1.174783640629348E-004
                   244  3.005451240514608E-005
                   245  1.523536932193187E-006
                   246 -4.403078735593521E-007
 Sym= __2_A__
 Ene=   2.00000000000000     
 Spin= Alpha
 Occup=    1.00000000000000     
                     1 -2.624542500576653E-005
                     2 -9.797546655159277E-005
                     3  2.147929592098070E-003
                     4 -8.653198998169116E-006
                     5  1.219387329791558E-003
                     6  2.031946900004405E-003
                     7  2.102837497791797E-004
                     8 -8.231086399171082E-005
                     9 -1.439527325849297E-004
                    10  9.665561415775588E-005
                    11 -7.125584423794612E-006
                    12  1.685181773953089E-005
                    13  3.708309004670079E-005
                    14  1.338005927362297E-007
                    15 -7.366738884977767E-005
                    16 -1.498773783394622E-006
                    17 -4.980025986415796E-007
                    18  4.127003539024212E-005
                    19 -5.548132211127226E-006
                    20  1.661196472981186E-004
                    21  2.099106986322154E-005
                    22  1.049694411199610E-005
                    23  9.949144201046335E-005
                    24 -2.769493937715211E-005
                    25 -5.460080138064778E-006
                    26  1.386924477049950E-004
                    27 -5.447773687873137E-005
                    28 -1.582251147880039E-006
                    29 -5.328938191355908E-006
                    30  1.248478294862040E-004
                    31  3.339246080186373E-005
                    32   1.00096167324840     
                    33  8.827900839753756E-003
                    34  2.778602231956780E-003
                    35 -8.218739094751749E-003
                    36 -2.676481624677696E-003
                    37  6.728137131404773E-004
                    38  1.728420136845294E-005
                    39  1.053342020497335E-003
                    40 -2.378203493842705E-004
                    41 -1.923579676007682E-005
                    42  3.499026201862551E-003
                    43 -1.290044308972720E-004
                    44  1.272399891157593E-005
                    45  2.910946191141972E-004
                    46 -3.485043824850604E-006
                    47  1.075278158151252E-006
                    48  4.236471695851058E-004
                    49 -2.626293773511120E-005
                    50 -1.046179915452918E-003
                    51  1.634616155877596E-005
                    52 -4.908046795502481E-006
                    53 -1.054632540676009E-004
                    54  4.046974309898038E-005
                    55  3.602363404868914E-007
                    56  3.140112014745330E-004
                    57 -8.311937272364946E-006
                    58 -1.240609553965129E-006
                    59 -6.346919092506192E-007
                    60  8.691017132777199E-005
                    61  1.695075358860928E-005
                    62  1.250304808342105E-002
                    63 -1.884241223832295E-003
                    64 -3.111397959438240E-004
                    65  3.154305669432559E-003
                    66 -1.240731737049454E-004
                    67  1.112457397865505E-004
                    68  2.380998074224389E-004
                    69  3.233128661803374E-005
                    70 -9.019474269406711E-007
                    71  5.304011562370833E-004
                    72  1.436701638795723E-004
                    73 -3.231161652152202E-005
                    74 -1.834677990808227E-003
                    75 -1.230188005433402E-005
                    76  2.404445459486701E-005
                    77  8.213209187626176E-006
                    78 -3.479884902162574E-005
                    79 -4.535507209350071E-006
                    80 -4.125715138587407E-004
                    81 -4.606408401994819E-004
                    82 -2.954320267084979E-006
                    83  7.562099849195554E-004
                    84 -1.086597440109175E-006
                    85  5.066290696405349E-005
                    86  1.084115674040452E-004
                    87  6.376478135659958E-008
                    88 -1.687310966045944E-005
                    89 -6.408453565045959E-006
                    90 -3.024473338189960E-005
                    91  4.827224768997642E-006
                    92  1.286249756492088E-002
                    93 -1.884950242395710E-003
                    94 -3.101876950515283E-004
                    95  3.146392857522671E-003
                    96 -1.227027284460506E-004
                    97  1.095699536165966E-004
                    98 -2.347222199136882E-004
                    99  2.641364373777665E-005
                   100  3.102762484008973E-006
                   101 -5.237760051206553E-004
                   102  1.642584398117666E-004
                   103 -2.954809872756589E-005
                   104  1.845922256089682E-003
                   105 -1.154223675847962E-005
                   106 -2.449977753953627E-005
                   107 -8.020140548452248E-006
                   108 -3.523537563278540E-005
                   109 -4.355132346031164E-006
                   110 -4.200519628771644E-004
                   111  4.648926131937519E-004
                   112 -4.040712150160232E-007
                   113  7.615083524117280E-004
                   114 -4.853604072503766E-006
                   115 -5.113158799460398E-005
                   116  1.091563201643169E-004
                   117  4.759751843578271E-007
                   118  1.594250512079512E-005
                   119  7.279562837447011E-006
                   120 -2.952304038989944E-005
                   121  5.013112352815500E-006
                   122 -1.415104464684558E-004
                   123 -7.026048847645433E-004
                   124  2.526985682782462E-004
                   125 -3.188374557492117E-004
                   126 -2.091062532270549E-004
                   127  1.862483961477847E-005
                   128 -4.081275948359421E-005
                   129  6.017196910893150E-004
                   130 -1.181955002486779E-006
                   131  3.573084900444722E-005
                   132  5.733078709987921E-004
                   133  4.727567239834088E-006
                   134  3.327360824450027E-004
                   135 -1.417824451881463E-007
                   136  4.210662943381968E-005
                   137  1.129313749720410E-007
                   138 -3.382867487143128E-005
                   139 -1.367508108231217E-006
                   140  1.926938877385610E-004
                   141 -2.565544845486402E-004
                   142  2.031269240492764E-006
                   143 -2.655047748594036E-004
                   144 -3.992344056917159E-006
                   145 -1.816340057151747E-005
                   146  1.358095269036540E-005
                   147  1.114641773054843E-007
                   148 -1.343402899907088E-005
                   149 -1.957663251609068E-006
                   150 -2.609172598170529E-005
                   151 -5.953768102312450E-007
                   152 -1.342072117016842E-004
                   153 -7.058709151634300E-004
                   154  2.518633489590517E-004
                   155 -3.169819578221873E-004
                   156 -2.073338097045648E-004
                   157  1.834218679649611E-005
                   158  4.089751713342306E-005
                   159  6.022828141132824E-004
                   160 -6.386894808955876E-007