[Molden Format]
[Atoms] AU
  N     1    7    -4.4519150800    0.1645695100   -0.0000004400        
  C     2    6    -1.7695092000   -0.0145096000   -0.0000001700        
  C     3    6    -0.4270927200   -0.0061402300   -2.2691546100        
  C     4    6    -0.4270931100   -0.0061391100    2.2691544900        
  C     5    6     2.1889955900   -0.0004823800   -2.2566388900        
  C     6    6     2.1889952100   -0.0004812700    2.2566392100        
  C     7    6     3.5149715000    0.0022090000    0.0000002700        
  H     8    1    -5.3130101500   -0.8650459100   -1.8277697800        
  H     9    1    -5.1855380900   -0.7126258900    1.5571951400        
  H    10    1    -1.4305344500   -0.0005073500   -4.0318143700        
  H    11    1    -1.4305351200   -0.0005053700    4.0318140800        
  H    12    1     3.1914120400   -0.0010699000   -4.0209976100        
  H    13    1     3.1914113700   -0.0010679200    4.0209980900        
  H    14    1     5.5428332300    0.0050250700    0.0000004400        
[5D]
[7F]
[GTO]
  1  0
   s    12 1.00
  0.114200D+05  0.172695D-04
  0.171200D+04  0.134411D-03
  0.389300D+03  0.694561D-03
  0.110000D+03  0.278531D-02
  0.355700D+02  0.863457D-02
  0.125400D+02  0.199805D-01
  0.464400D+01  0.262908D-01
  0.129300D+01 -0.243845D-01
  0.511800D+00 -0.924934D-01
  0.178700D+00 -0.339683D+00
  0.246240D-01  0.345111D+00
  0.112530D-01  0.752750D+00
   s    10 1.00
  0.114200D+05  0.523000D-03
  0.171200D+04  0.404500D-02
  0.389300D+03  0.207750D-01
  0.110000D+03  0.807269D-01
  0.355700D+02  0.233074D+00
  0.125400D+02  0.433501D+00
  0.464400D+01  0.347472D+00
  0.129300D+01  0.412620D-01
  0.511800D+00 -0.850799D-02
  0.178700D+00  0.238400D-02
   s    10 1.00
  0.114200D+05 -0.115000D-03
  0.171200D+04 -0.895000D-03
  0.389300D+03 -0.462400D-02
  0.110000D+03 -0.185280D-01
  0.355700D+02 -0.573390D-01
  0.125400D+02 -0.132076D+00
  0.464400D+01 -0.172510D+00
  0.129300D+01  0.151814D+00
  0.511800D+00  0.599944D+00
  0.178700D+00  0.387462D+00
   s     1 1.00
  0.129300D+01  0.100000D+01
   s     1 1.00
  0.178700D+00  0.100000D+01
   p     5 1.00
  0.266300D+02  0.146700D-01
  0.594800D+01  0.917640D-01
  0.174200D+01  0.298683D+00
  0.555000D+00  0.498487D+00
  0.172500D+00  0.337023D+00
   p     1 1.00
  0.174200D+01  0.100000D+01
   p     1 1.00
  0.555000D+00  0.100000D+01
   d     1 1.00
  0.165400D+01  0.100000D+01
   d     1 1.00
  0.469000D+00  0.100000D+01
   f     1 1.00
  0.109300D+01  0.100000D+01
  
  2  0
   s    10 1.00
  0.823600D+04  0.531000D-03
  0.123500D+04  0.410800D-02
  0.280800D+03  0.210870D-01
  0.792700D+02  0.818530D-01
  0.255900D+02  0.234817D+00
  0.899700D+01  0.434401D+00
  0.331900D+01  0.346129D+00
  0.905900D+00  0.393780D-01
  0.364300D+00 -0.898300D-02
  0.128500D+00  0.238500D-02
   s    10 1.00
  0.823600D+04 -0.113000D-03
  0.123500D+04 -0.878000D-03
  0.280800D+03 -0.454000D-02
  0.792700D+02 -0.181330D-01
  0.255900D+02 -0.557600D-01
  0.899700D+01 -0.126895D+00
  0.331900D+01 -0.170352D+00
  0.905900D+00  0.140382D+00
  0.364300D+00  0.598684D+00
  0.128500D+00  0.395389D+00
   s     1 1.00
  0.905900D+00  0.100000D+01
   s     1 1.00
  0.364300D+00  0.100000D+01
   p     5 1.00
  0.187100D+02  0.140310D-01
  0.413300D+01  0.868660D-01
  0.120000D+01  0.290216D+00
  0.382700D+00  0.501008D+00
  0.120900D+00  0.343406D+00
   p     1 1.00
  0.382700D+00  0.100000D+01
   p     1 1.00
  0.120900D+00  0.100000D+01
   d     1 1.00
  0.109700D+01  0.100000D+01
   d     1 1.00
  0.318000D+00  0.100000D+01
   f     1 1.00
  0.761000D+00  0.100000D+01
  
  3  0
   s    10 1.00
  0.823600D+04  0.531000D-03
  0.123500D+04  0.410800D-02
  0.280800D+03  0.210870D-01
  0.792700D+02  0.818530D-01
  0.255900D+02  0.234817D+00
  0.899700D+01  0.434401D+00
  0.331900D+01  0.346129D+00
  0.905900D+00  0.393780D-01
  0.364300D+00 -0.898300D-02
  0.128500D+00  0.238500D-02
   s    10 1.00
  0.823600D+04 -0.113000D-03
  0.123500D+04 -0.878000D-03
  0.280800D+03 -0.454000D-02
  0.792700D+02 -0.181330D-01
  0.255900D+02 -0.557600D-01
  0.899700D+01 -0.126895D+00
  0.331900D+01 -0.170352D+00
  0.905900D+00  0.140382D+00
  0.364300D+00  0.598684D+00
  0.128500D+00  0.395389D+00
   s     1 1.00
  0.905900D+00  0.100000D+01
   s     1 1.00
  0.364300D+00  0.100000D+01
   p     5 1.00
  0.187100D+02  0.140310D-01
  0.413300D+01  0.868660D-01
  0.120000D+01  0.290216D+00
  0.382700D+00  0.501008D+00
  0.120900D+00  0.343406D+00
   p     1 1.00
  0.382700D+00  0.100000D+01
   p     1 1.00
  0.120900D+00  0.100000D+01
   d     1 1.00
  0.109700D+01  0.100000D+01
   d     1 1.00
  0.318000D+00  0.100000D+01
   f     1 1.00
  0.761000D+00  0.100000D+01
  
  4  0
   s    10 1.00
  0.823600D+04  0.531000D-03
  0.123500D+04  0.410800D-02
  0.280800D+03  0.210870D-01
  0.792700D+02  0.818530D-01
  0.255900D+02  0.234817D+00
  0.899700D+01  0.434401D+00
  0.331900D+01  0.346129D+00
  0.905900D+00  0.393780D-01
  0.364300D+00 -0.898300D-02
  0.128500D+00  0.238500D-02
   s    10 1.00
  0.823600D+04 -0.113000D-03
  0.123500D+04 -0.878000D-03
  0.280800D+03 -0.454000D-02
  0.792700D+02 -0.181330D-01
  0.255900D+02 -0.557600D-01
  0.899700D+01 -0.126895D+00
  0.331900D+01 -0.170352D+00
  0.905900D+00  0.140382D+00
  0.364300D+00  0.598684D+00
  0.128500D+00  0.395389D+00
   s     1 1.00
  0.905900D+00  0.100000D+01
   s     1 1.00
  0.364300D+00  0.100000D+01
   p     5 1.00
  0.187100D+02  0.140310D-01
  0.413300D+01  0.868660D-01
  0.120000D+01  0.290216D+00
  0.382700D+00  0.501008D+00
  0.120900D+00  0.343406D+00
   p     1 1.00
  0.382700D+00  0.100000D+01
   p     1 1.00
  0.120900D+00  0.100000D+01
   d     1 1.00
  0.109700D+01  0.100000D+01
   d     1 1.00
  0.318000D+00  0.100000D+01
   f     1 1.00
  0.761000D+00  0.100000D+01
  
  5  0
   s    10 1.00
  0.823600D+04  0.531000D-03
  0.123500D+04  0.410800D-02
  0.280800D+03  0.210870D-01
  0.792700D+02  0.818530D-01
  0.255900D+02  0.234817D+00
  0.899700D+01  0.434401D+00
  0.331900D+01  0.346129D+00
  0.905900D+00  0.393780D-01
  0.364300D+00 -0.898300D-02
  0.128500D+00  0.238500D-02
   s    10 1.00
  0.823600D+04 -0.113000D-03
  0.123500D+04 -0.878000D-03
  0.280800D+03 -0.454000D-02
  0.792700D+02 -0.181330D-01
  0.255900D+02 -0.557600D-01
  0.899700D+01 -0.126895D+00
  0.331900D+01 -0.170352D+00
  0.905900D+00  0.140382D+00
  0.364300D+00  0.598684D+00
  0.128500D+00  0.395389D+00
   s     1 1.00
  0.905900D+00  0.100000D+01
   s     1 1.00
  0.364300D+00  0.100000D+01
   p     5 1.00
  0.187100D+02  0.140310D-01
  0.413300D+01  0.868660D-01
  0.120000D+01  0.290216D+00
  0.382700D+00  0.501008D+00
  0.120900D+00  0.343406D+00
   p     1 1.00
  0.382700D+00  0.100000D+01
   p     1 1.00
  0.120900D+00  0.100000D+01
   d     1 1.00
  0.109700D+01  0.100000D+01
   d     1 1.00
  0.318000D+00  0.100000D+01
   f     1 1.00
  0.761000D+00  0.100000D+01
  
  6  0
   s    10 1.00
  0.823600D+04  0.531000D-03
  0.123500D+04  0.410800D-02
  0.280800D+03  0.210870D-01
  0.792700D+02  0.818530D-01
  0.255900D+02  0.234817D+00
  0.899700D+01  0.434401D+00
  0.331900D+01  0.346129D+00
  0.905900D+00  0.393780D-01
  0.364300D+00 -0.898300D-02
  0.128500D+00  0.238500D-02
   s    10 1.00
  0.823600D+04 -0.113000D-03
  0.123500D+04 -0.878000D-03
  0.280800D+03 -0.454000D-02
  0.792700D+02 -0.181330D-01
  0.255900D+02 -0.557600D-01
  0.899700D+01 -0.126895D+00
  0.331900D+01 -0.170352D+00
  0.905900D+00  0.140382D+00
  0.364300D+00  0.598684D+00
  0.128500D+00  0.395389D+00
   s     1 1.00
  0.905900D+00  0.100000D+01
   s     1 1.00
  0.364300D+00  0.100000D+01
   p     5 1.00
  0.187100D+02  0.140310D-01
  0.413300D+01  0.868660D-01
  0.120000D+01  0.290216D+00
  0.382700D+00  0.501008D+00
  0.120900D+00  0.343406D+00
   p     1 1.00
  0.382700D+00  0.100000D+01
   p     1 1.00
  0.120900D+00  0.100000D+01
   d     1 1.00
  0.109700D+01  0.100000D+01
   d     1 1.00
  0.318000D+00  0.100000D+01
   f     1 1.00
  0.761000D+00  0.100000D+01
  
  7  0
   s    10 1.00
  0.823600D+04  0.531000D-03
  0.123500D+04  0.410800D-02
  0.280800D+03  0.210870D-01
  0.792700D+02  0.818530D-01
  0.255900D+02  0.234817D+00
  0.899700D+01  0.434401D+00
  0.331900D+01  0.346129D+00
  0.905900D+00  0.393780D-01
  0.364300D+00 -0.898300D-02
  0.128500D+00  0.238500D-02
   s    10 1.00
  0.823600D+04 -0.113000D-03
  0.123500D+04 -0.878000D-03
  0.280800D+03 -0.454000D-02
  0.792700D+02 -0.181330D-01
  0.255900D+02 -0.557600D-01
  0.899700D+01 -0.126895D+00
  0.331900D+01 -0.170352D+00
  0.905900D+00  0.140382D+00
  0.364300D+00  0.598684D+00
  0.128500D+00  0.395389D+00
   s     1 1.00
  0.905900D+00  0.100000D+01
   s     1 1.00
  0.364300D+00  0.100000D+01
   p     5 1.00
  0.187100D+02  0.140310D-01
  0.413300D+01  0.868660D-01
  0.120000D+01  0.290216D+00
  0.382700D+00  0.501008D+00
  0.120900D+00  0.343406D+00
   p     1 1.00
  0.382700D+00  0.100000D+01
   p     1 1.00
  0.120900D+00  0.100000D+01
   d     1 1.00
  0.109700D+01  0.100000D+01
   d     1 1.00
  0.318000D+00  0.100000D+01
   f     1 1.00
  0.761000D+00  0.100000D+01
  
  8  0
   s     4 1.00
  0.130100D+02  0.196850D-01
  0.196200D+01  0.137977D+00
  0.444600D+00  0.478148D+00
  0.122000D+00  0.501240D+00
   s     1 1.00
  0.122000D+00  0.100000D+01
   p     1 1.00
  0.727000D+00  0.100000D+01
  
  9  0
   s     4 1.00
  0.130100D+02  0.196850D-01
  0.196200D+01  0.137977D+00
  0.444600D+00  0.478148D+00
  0.122000D+00  0.501240D+00
   s     1 1.00
  0.122000D+00  0.100000D+01
   p     1 1.00
  0.727000D+00  0.100000D+01
  
 10  0
   s     4 1.00
  0.130100D+02  0.196850D-01
  0.196200D+01  0.137977D+00
  0.444600D+00  0.478148D+00
  0.122000D+00  0.501240D+00
   s     1 1.00
  0.122000D+00  0.100000D+01
   p     1 1.00
  0.727000D+00  0.100000D+01
  
 11  0
   s     4 1.00
  0.130100D+02  0.196850D-01
  0.196200D+01  0.137977D+00
  0.444600D+00  0.478148D+00
  0.122000D+00  0.501240D+00
   s     1 1.00
  0.122000D+00  0.100000D+01
   p     1 1.00
  0.727000D+00  0.100000D+01
  
 12  0
   s     4 1.00
  0.130100D+02  0.196850D-01
  0.196200D+01  0.137977D+00
  0.444600D+00  0.478148D+00
  0.122000D+00  0.501240D+00
   s     1 1.00
  0.122000D+00  0.100000D+01
   p     1 1.00
  0.727000D+00  0.100000D+01
  
 13  0
   s     4 1.00
  0.130100D+02  0.196850D-01
  0.196200D+01  0.137977D+00
  0.444600D+00  0.478148D+00
  0.122000D+00  0.501240D+00
   s     1 1.00
  0.122000D+00  0.100000D+01
   p     1 1.00
  0.727000D+00  0.100000D+01
  
 14  0
   s     4 1.00
  0.130100D+02  0.196850D-01
  0.196200D+01  0.137977D+00
  0.444600D+00  0.478148D+00
  0.122000D+00  0.501240D+00
   s     1 1.00
  0.122000D+00  0.100000D+01
   p     1 1.00
  0.727000D+00  0.100000D+01
  
[MO]
 Sym= __1_a__
 Ene=  0.000000000000000E+000
 Spin= Alpha
 Occup=    2.00000000000000     
                     1  1.935305944604430E-004
                     2  0.998311086278873     
                     3  2.467871290054650E-003
                     4  1.680423034955830E-003
                     5  5.738872004814830E-003
                     6  5.702560996853720E-003
                     7 -4.705199761779890E-003
                     8  3.268650961531910E-004
                     9 -7.671960918291950E-004
                    10  3.301967210378960E-004
                    11  3.946291593220530E-005
                    12 -1.594570498302590E-003
                    13  3.139636852888580E-003
                    14 -1.721878684368680E-004
                    15 -4.803536331028825E-005
                    16 -4.074695646381990E-005
                    17 -5.886344518494810E-005
                    18  7.982988280806620E-005
                    19  3.435555222910640E-005
                    20 -3.570454098401484E-004
                    21  2.419101442858470E-005
                    22 -1.327277365225920E-005
                    23  4.113488947557380E-005
                    24 -4.728634556663740E-004
                    25 -1.713130737175315E-006
                    26 -1.110680299082638E-004
                    27 -3.143465811966861E-005
                    28 -1.559976133256060E-005
                    29  2.574164419625540E-005
                    30 -7.952429020529271E-005
                    31 -5.793315950988391E-005
                    32 -3.820315110064120E-004
                    33  7.652906878330280E-004
                    34  2.422411867877760E-004
                    35 -1.079371889513590E-004
                    36 -3.971897384485530E-003
                    37 -3.863019420173510E-005
                    38 -4.673500339748710E-005
                    39  1.110560255522090E-004
                    40 -6.807195175479300E-006
                    41  4.077952273463080E-005
                    42  4.971734570596840E-003
                    43  7.906221800097200E-004
                    44 -9.907715870255670E-005
                    45 -2.089817521554723E-004
                    46 -1.009499661001000E-005
                    47  3.399388537610410E-007
                    48  1.898835856850958E-004
                    49  4.499137822198600E-005
                    50  3.961102420526754E-004
                    51  5.911977943107490E-005
                    52  7.651199697161200E-007
                    53 -1.877802280683124E-005
                    54 -3.552558867620510E-004
                    55  7.019214640823038E-006
                    56 -5.711259901678185E-005
                    57  7.631278858161951E-006
                    58  1.071192466742226E-005
                    59 -1.287000061295130E-007
                    60 -3.204207463158119E-005
                    61  4.112727004882234E-005
                    62 -3.648129529814160E-004
                    63 -1.703327163923790E-003
                    64  7.963288847679710E-005
                    65  9.399327087537870E-004
                    66  4.596839412994460E-004
                    67 -1.108017956911790E-004
                    68 -5.200424900185550E-004
                    69  5.688386055285000E-004
                    70  8.148938577270990E-005
                    71  1.534739832814520E-004
                    72 -3.893498671746810E-004
                    73 -3.488624353892470E-004
                    74 -9.571735412452040E-004
                    75 -6.349345000484342E-005
                    76 -1.423173878458060E-005
                    77  1.862085732061720E-005
                    78  6.146676445012961E-005
                    79 -9.438345650048511E-006
                    80  1.760493248177804E-004
                    81  1.396482171803860E-004
                    82 -3.107108523859750E-005
                    83 -1.118516867319104E-004
                    84  5.119250815971800E-005
                    85 -1.256515608743319E-005
                    86 -6.044553705909967E-005
                    87  2.028656366667086E-005
                    88 -1.318271228709508E-005
                    89  1.237972988281290E-005
                    90 -4.857524442231322E-005
                    91 -1.080148011635682E-005
                    92 -3.709109794781280E-004
                    93 -1.778172137034460E-003
                    94  1.009980541860680E-004
                    95  8.419844005822680E-004
                    96  5.167424466770960E-004
                    97 -1.130392096994530E-004
                    98  5.490485413681520E-004
                    99  5.774878817871140E-004
                   100  8.644012000613009E-005
                   101 -7.958834874501420E-005
                   102 -6.210859771561280E-004
                   103 -3.630567710048710E-004
                   104  8.063531203597060E-004
                   105 -7.105034811253446E-005
                   106  9.093698828786591E-006
                   107 -1.918624329259380E-005
                   108  5.989700038374060E-005
                   109 -1.085029694689420E-005
                   110  1.479100396201967E-004
                   111 -1.293337908446870E-004
                   112  3.250539453580350E-005
                   113 -9.450502030844821E-005
                   114  5.886216824273610E-005
                   115  5.776373966366516E-006
                   116 -5.756315873197679E-005
                   117  2.006769561863622E-005
                   118  8.346767056614401E-006
                   119 -1.247047952403790E-005
                   120 -4.536040689982393E-005
                   121 -1.066518629445785E-005
                   122 -1.966850739986270E-004
                   123 -3.780249661352200E-004
                   124  5.360814656594960E-005
                   125  5.771335450409070E-004
                   126 -4.741016874945350E-004
                   127 -5.334726882854290E-005
                   128  1.440224037391870E-005
                   129  2.305795798067720E-004
                   130 -2.412658969683130E-005
                   131  3.814321856320350E-005
                   132  9.506950432908800E-004
                   133  1.566111259984360E-004
                   134 -2.095642475357760E-004
                   135  6.611593332429626E-006
                   136 -1.380580802274270E-006
                   137 -4.332960093793540E-006
                   138 -8.379016349660620E-007
                   139  9.427683410558480E-006
                   140  8.442962444168665E-005
                   141  1.830211476789640E-004
                   142  8.538763882095099E-006
                   143 -1.925093068664014E-004
                   144 -1.570654711073280E-005
                   145 -1.043977170962212E-005
                   146 -1.497144254792614E-005
                   147  2.432980560256083E-006
                   148 -2.120030603085200E-006
                   149 -2.394996722207210E-006
                   150 -4.610654259833189E-005
                   151 -1.762581452602047E-006
                   152 -1.920740903431940E-004
                   153 -3.467170142561700E-004
                   154  5.552605423719710E-005
                   155  5.411936187221040E-004
                   156 -4.907302643107010E-004
                   157 -5.186564685780500E-005
                   158 -1.685765352086560E-005
                   159  2.180764927698820E-004
                   160 -2.802526861897950E-005
                   161 -3.087368644464480E-005
                   162  7.582440461176590E-004
                   163  1.622084700925560E-004
                   164  3.413109447177400E-004
                   165  6.045544970160165E-006
                   166  3.522347540938070E-007
                   167  4.427713750002510E-006
                   168 -1.585775294883220E-007
                   169  9.848698170460601E-006
                   170  6.987645845343568E-005
                   171 -1.674447858980490E-004
                   172 -9.867154678036490E-006
                   173 -1.879192688245452E-004
                   174 -1.300696478504180E-005
                   175  9.402302163393166E-006
                   176 -1.655747317550232E-005
                   177  2.865328043826960E-006
                   178  2.151099369209540E-006
                   179  2.208611060665490E-006
                   180 -4.436443602912706E-005
                   181 -2.610119094101117E-006
                   182 -1.260931903394460E-004
                   183 -3.882557927089240E-004
                   184  3.001076218048990E-005
                   185  1.578629481420020E-004
                   186 -2.234767627523890E-005
                   187 -6.103748518847920E-005
                   188 -2.564844821930810E-006
                   189  1.020359869101400E-004
                   190  2.170550122278060E-005
                   191  1.710612114688970E-005
                   192 -3.780699994058210E-004
                   193 -1.096909316483160E-004
                   194  1.130266895877770E-004
                   195 -9.065718056621023E-006
                   196 -4.471208848228810E-007
                   197  2.266954632484450E-007
                   198  3.656964548586420E-006
                   199 -2.090226177979110E-006
                   200 -1.119471304622257E-004
                   201 -1.105364025130210E-005
                   202 -1.509756399672130E-006
                   203  5.691065935932620E-005
                   204  1.843376111445680E-005
                   205 -9.798324571992173E-008
                   206  2.862739123268585E-006
                   207  3.147682989559087E-006
                   208  7.532542074127140E-007
                   209  1.344195744922410E-007
                   210 -5.848997620877465E-006
                   211 -2.981518927504959E-006
                   212  1.239998526779690E-003
                   213 -1.172838118433970E-003
                   214  1.528969961133080E-004
                   215  2.611438061183460E-004
                   216  2.907540111606210E-004
                   217  2.254823880898830E-003
                   218 -1.980159694662130E-003
                   219  1.701838025256470E-004
                   220  2.882680231408540E-004
                   221 -3.232496742650900E-004
                   222 -4.166718498504250E-004
                   223 -4.203722807949000E-004
                   224 -5.977083379906700E-005
                   225  9.582499303270720E-006
                   226  3.997699201624010E-005
                   227 -4.311855539438050E-004
                   228 -3.541024152195360E-004
                   229 -5.696640615609740E-005
                   230  9.954635672073620E-006
                   231 -4.053297202088990E-005
                   232 -9.019726773218880E-005
                   233 -4.715425035640890E-004
                   234  3.723030247293240E-006
                   235 -1.882667696721850E-006
                   236 -7.998634312550100E-006
                   237 -9.691750334142600E-005
                   238 -4.810054256575250E-004
                   239  2.108117781426930E-006
                   240 -1.983982259068290E-006
                   241  6.417654646170220E-006
                   242  7.651709673087130E-006
                   243  1.174783640629350E-004
                   244  3.005451240514610E-005
                   245  1.523536932193190E-006
                   246 -4.403078735593520E-007
 Sym= __2_a__
 Ene=  0.000000000000000E+000
 Spin= Alpha
 Occup=    2.00000000000000     
                     1 -2.624542500576650E-005
                     2 -9.797546655159281E-005
                     3  2.147929592098070E-003
                     4 -8.653198998169121E-006
                     5  1.219387329791560E-003
                     6  2.031946900004400E-003
                     7  2.102837497791800E-004
                     8 -8.231086399171081E-005
                     9 -1.439527325849300E-004
                    10  9.665561415775590E-005
                    11 -7.125584423794610E-006
                    12  1.685181773953090E-005
                    13  3.708309004670080E-005
                    14  1.338005927362300E-007
                    15 -7.366738884977771E-005
                    16 -1.498773783394620E-006
                    17 -4.980025986415800E-007
                    18  4.127003539024220E-005
                    19 -5.548132211127230E-006
                    20  1.661196472981185E-004
                    21  2.099106986322150E-005
                    22  1.049694411199610E-005
                    23  9.949144201046340E-005
                    24 -2.769493937715210E-005
                    25 -5.460080138064784E-006
                    26  1.386924477049947E-004
                    27 -5.447773687873141E-005
                    28 -1.582251147880040E-006
                    29 -5.328938191355910E-006
                    30  1.248478294862041E-004
                    31  3.339246080186372E-005
                    32   1.00096167324840     
                    33  8.827900839753759E-003
                    34  2.778602231956780E-003
                    35 -8.218739094751751E-003
                    36 -2.676481624677700E-003
                    37  6.728137131404770E-004
                    38  1.728420136845290E-005
                    39  1.053342020497340E-003
                    40 -2.378203493842710E-004
                    41 -1.923579676007680E-005
                    42  3.499026201862550E-003
                    43 -1.290044308972720E-004
                    44  1.272399891157590E-005
                    45  2.910946191141973E-004
                    46 -3.485043824850600E-006
                    47  1.075278158151250E-006
                    48  4.236471695851060E-004
                    49 -2.626293773511120E-005
                    50 -1.046179915452918E-003
                    51  1.634616155877600E-005
                    52 -4.908046795502480E-006
                    53 -1.054632540676008E-004
                    54  4.046974309898040E-005
                    55  3.602363404868927E-007
                    56  3.140112014745330E-004
                    57 -8.311937272364957E-006
                    58 -1.240609553965128E-006
                    59 -6.346919092506190E-007
                    60  8.691017132777194E-005
                    61  1.695075358860931E-005
                    62  1.250304808342110E-002
                    63 -1.884241223832290E-003
                    64 -3.111397959438240E-004
                    65  3.154305669432560E-003
                    66 -1.240731737049450E-004
                    67  1.112457397865500E-004
                    68  2.380998074224390E-004
                    69  3.233128661803370E-005
                    70 -9.019474269406710E-007
                    71  5.304011562370830E-004
                    72  1.436701638795720E-004
                    73 -3.231161652152200E-005
                    74 -1.834677990808230E-003
                    75 -1.230188005433403E-005
                    76  2.404445459486700E-005
                    77  8.213209187626179E-006
                    78 -3.479884902162580E-005
                    79 -4.535507209350070E-006
                    80 -4.125715138587417E-004
                    81 -4.606408401994820E-004
                    82 -2.954320267084980E-006
                    83  7.562099849195561E-004
                    84 -1.086597440109180E-006
                    85  5.066290696405351E-005
                    86  1.084115674040450E-004
                    87  6.376478135659958E-008
                    88 -1.687310966045944E-005
                    89 -6.408453565045960E-006
                    90 -3.024473338189966E-005
                    91  4.827224768997643E-006
                    92  1.286249756492090E-002
                    93 -1.884950242395710E-003
                    94 -3.101876950515280E-004
                    95  3.146392857522670E-003
                    96 -1.227027284460510E-004
                    97  1.095699536165970E-004
                    98 -2.347222199136880E-004
                    99  2.641364373777660E-005
                   100  3.102762484008970E-006
                   101 -5.237760051206550E-004
                   102  1.642584398117670E-004
                   103 -2.954809872756590E-005
                   104  1.845922256089680E-003
                   105 -1.154223675847961E-005
                   106 -2.449977753953630E-005
                   107 -8.020140548452250E-006
                   108 -3.523537563278540E-005
                   109 -4.355132346031160E-006
                   110 -4.200519628771651E-004
                   111  4.648926131937520E-004
                   112 -4.040712150160230E-007
                   113  7.615083524117280E-004
                   114 -4.853604072503770E-006
                   115 -5.113158799460390E-005
                   116  1.091563201643167E-004
                   117  4.759751843578269E-007
                   118  1.594250512079512E-005
                   119  7.279562837447010E-006
                   120 -2.952304038989938E-005
                   121  5.013112352815495E-006
                   122 -1.415104464684560E-004
                   123 -7.026048847645430E-004
                   124  2.526985682782460E-004
                   125 -3.188374557492120E-004
                   126 -2.091062532270550E-004
                   127  1.862483961477850E-005
                   128 -4.081275948359420E-005
                   129  6.017196910893150E-004
                   130 -1.181955002486780E-006
                   131  3.573084900444720E-005
                   132  5.733078709987920E-004
                   133  4.727567239834090E-006
                   134  3.327360824450030E-004
                   135 -1.417824451881462E-007
                   136  4.210662943381970E-005
                   137  1.129313749720410E-007
                   138 -3.382867487143120E-005
                   139 -1.367508108231220E-006
                   140  1.926938877385611E-004
                   141 -2.565544845486400E-004
                   142  2.031269240492760E-006
                   143 -2.655047748594040E-004
                   144 -3.992344056917160E-006
                   145 -1.816340057151748E-005
                   146  1.358095269036541E-005
                   147  1.114641773054842E-007
                   148 -1.343402899907088E-005
                   149 -1.957663251609070E-006
                   150 -2.609172598170527E-005
                   151 -5.953768102312460E-007
                   152 -1.342072117016840E-004
                   153 -7.058709151634300E-004
                   154  2.518633489590520E-004
                   155 -3.169819578221870E-004
                   156 -2.073338097045650E-004
                   157  1.834218679649610E-005
                   158  4.089751713342310E-005
                   159  6.022828141132820E-004
                   160 -6.386894808955880E-007