[Molden Format]
[Atoms] AU
  N     1    7    -4.4612839000    0.2221934600   -0.0102738100        
  C     2    6    -1.7455490500    0.0046100000   -0.0220588900        
  C     3    6    -0.4111887800    0.0281559400   -2.2838331500        
  C     4    6    -0.4382509200   -0.0299355200    2.2473320700        
  C     5    6     2.1954217900    0.0068395400   -2.2538086400        
  C     6    6     2.1735879800   -0.0146264900    2.2490150500        
  C     7    6     3.4994148000   -0.0063244700    0.0045189700        
  H     8    1    -5.3942658500   -1.6292512500   -1.9433007200        
  H     9    1    -5.1481146800   -0.7440746800    1.5563455600        
  H    10    1    -1.4152078000    0.0694879800   -4.0435164400        
  H    11    1    -1.4532437200   -0.0588099400    4.0036322700        
  H    12    1     3.2131736700    0.0152426300   -4.0100281200        
  H    13    1     3.1712610500   -0.0256261400    4.0166516800        
  H    14    1     5.5283511800   -0.0143400800    0.0147973900        
[5D]
[7F]
[GTO]
  1  0
   s    12 1.00
  0.114200D+05  0.172695D-04
  0.171200D+04  0.134411D-03
  0.389300D+03  0.694561D-03
  0.110000D+03  0.278531D-02
  0.355700D+02  0.863457D-02
  0.125400D+02  0.199805D-01
  0.464400D+01  0.262908D-01
  0.129300D+01 -0.243845D-01
  0.511800D+00 -0.924934D-01
  0.178700D+00 -0.339683D+00
  0.246240D-01  0.345111D+00
  0.112530D-01  0.752750D+00
   s    10 1.00
  0.114200D+05  0.523000D-03
  0.171200D+04  0.404500D-02
  0.389300D+03  0.207750D-01
  0.110000D+03  0.807269D-01
  0.355700D+02  0.233074D+00
  0.125400D+02  0.433501D+00
  0.464400D+01  0.347472D+00
  0.129300D+01  0.412620D-01
  0.511800D+00 -0.850799D-02
  0.178700D+00  0.238400D-02
   s    10 1.00
  0.114200D+05 -0.115000D-03
  0.171200D+04 -0.895000D-03
  0.389300D+03 -0.462400D-02
  0.110000D+03 -0.185280D-01
  0.355700D+02 -0.573390D-01
  0.125400D+02 -0.132076D+00
  0.464400D+01 -0.172510D+00
  0.129300D+01  0.151814D+00
  0.511800D+00  0.599944D+00
  0.178700D+00  0.387462D+00
   s     1 1.00
  0.129300D+01  0.100000D+01
   s     1 1.00
  0.178700D+00  0.100000D+01
   p     5 1.00
  0.266300D+02  0.146700D-01
  0.594800D+01  0.917640D-01
  0.174200D+01  0.298683D+00
  0.555000D+00  0.498487D+00
  0.172500D+00  0.337023D+00
   p     1 1.00
  0.174200D+01  0.100000D+01
   p     1 1.00
  0.555000D+00  0.100000D+01
   d     1 1.00
  0.165400D+01  0.100000D+01
   d     1 1.00
  0.469000D+00  0.100000D+01
   f     1 1.00
  0.109300D+01  0.100000D+01
  
  2  0
   s    10 1.00
  0.823600D+04  0.531000D-03
  0.123500D+04  0.410800D-02
  0.280800D+03  0.210870D-01
  0.792700D+02  0.818530D-01
  0.255900D+02  0.234817D+00
  0.899700D+01  0.434401D+00
  0.331900D+01  0.346129D+00
  0.905900D+00  0.393780D-01
  0.364300D+00 -0.898300D-02
  0.128500D+00  0.238500D-02
   s    10 1.00
  0.823600D+04 -0.113000D-03
  0.123500D+04 -0.878000D-03
  0.280800D+03 -0.454000D-02
  0.792700D+02 -0.181330D-01
  0.255900D+02 -0.557600D-01
  0.899700D+01 -0.126895D+00
  0.331900D+01 -0.170352D+00
  0.905900D+00  0.140382D+00
  0.364300D+00  0.598684D+00
  0.128500D+00  0.395389D+00
   s     1 1.00
  0.905900D+00  0.100000D+01
   s     1 1.00
  0.364300D+00  0.100000D+01
   p     5 1.00
  0.187100D+02  0.140310D-01
  0.413300D+01  0.868660D-01
  0.120000D+01  0.290216D+00
  0.382700D+00  0.501008D+00
  0.120900D+00  0.343406D+00
   p     1 1.00
  0.382700D+00  0.100000D+01
   p     1 1.00
  0.120900D+00  0.100000D+01
   d     1 1.00
  0.109700D+01  0.100000D+01
   d     1 1.00
  0.318000D+00  0.100000D+01
   f     1 1.00
  0.761000D+00  0.100000D+01
  
  3  0
   s    10 1.00
  0.823600D+04  0.531000D-03
  0.123500D+04  0.410800D-02
  0.280800D+03  0.210870D-01
  0.792700D+02  0.818530D-01
  0.255900D+02  0.234817D+00
  0.899700D+01  0.434401D+00
  0.331900D+01  0.346129D+00
  0.905900D+00  0.393780D-01
  0.364300D+00 -0.898300D-02
  0.128500D+00  0.238500D-02
   s    10 1.00
  0.823600D+04 -0.113000D-03
  0.123500D+04 -0.878000D-03
  0.280800D+03 -0.454000D-02
  0.792700D+02 -0.181330D-01
  0.255900D+02 -0.557600D-01
  0.899700D+01 -0.126895D+00
  0.331900D+01 -0.170352D+00
  0.905900D+00  0.140382D+00
  0.364300D+00  0.598684D+00
  0.128500D+00  0.395389D+00
   s     1 1.00
  0.905900D+00  0.100000D+01
   s     1 1.00
  0.364300D+00  0.100000D+01
   p     5 1.00
  0.187100D+02  0.140310D-01
  0.413300D+01  0.868660D-01
  0.120000D+01  0.290216D+00
  0.382700D+00  0.501008D+00
  0.120900D+00  0.343406D+00
   p     1 1.00
  0.382700D+00  0.100000D+01
   p     1 1.00
  0.120900D+00  0.100000D+01
   d     1 1.00
  0.109700D+01  0.100000D+01
   d     1 1.00
  0.318000D+00  0.100000D+01
   f     1 1.00
  0.761000D+00  0.100000D+01
  
  4  0
   s    10 1.00
  0.823600D+04  0.531000D-03
  0.123500D+04  0.410800D-02
  0.280800D+03  0.210870D-01
  0.792700D+02  0.818530D-01
  0.255900D+02  0.234817D+00
  0.899700D+01  0.434401D+00
  0.331900D+01  0.346129D+00
  0.905900D+00  0.393780D-01
  0.364300D+00 -0.898300D-02
  0.128500D+00  0.238500D-02
   s    10 1.00
  0.823600D+04 -0.113000D-03
  0.123500D+04 -0.878000D-03
  0.280800D+03 -0.454000D-02
  0.792700D+02 -0.181330D-01
  0.255900D+02 -0.557600D-01
  0.899700D+01 -0.126895D+00
  0.331900D+01 -0.170352D+00
  0.905900D+00  0.140382D+00
  0.364300D+00  0.598684D+00
  0.128500D+00  0.395389D+00
   s     1 1.00
  0.905900D+00  0.100000D+01
   s     1 1.00
  0.364300D+00  0.100000D+01
   p     5 1.00
  0.187100D+02  0.140310D-01
  0.413300D+01  0.868660D-01
  0.120000D+01  0.290216D+00
  0.382700D+00  0.501008D+00
  0.120900D+00  0.343406D+00
   p     1 1.00
  0.382700D+00  0.100000D+01
   p     1 1.00
  0.120900D+00  0.100000D+01
   d     1 1.00
  0.109700D+01  0.100000D+01
   d     1 1.00
  0.318000D+00  0.100000D+01
   f     1 1.00
  0.761000D+00  0.100000D+01
  
  5  0
   s    10 1.00
  0.823600D+04  0.531000D-03
  0.123500D+04  0.410800D-02
  0.280800D+03  0.210870D-01
  0.792700D+02  0.818530D-01
  0.255900D+02  0.234817D+00
  0.899700D+01  0.434401D+00
  0.331900D+01  0.346129D+00
  0.905900D+00  0.393780D-01
  0.364300D+00 -0.898300D-02
  0.128500D+00  0.238500D-02
   s    10 1.00
  0.823600D+04 -0.113000D-03
  0.123500D+04 -0.878000D-03
  0.280800D+03 -0.454000D-02
  0.792700D+02 -0.181330D-01
  0.255900D+02 -0.557600D-01
  0.899700D+01 -0.126895D+00
  0.331900D+01 -0.170352D+00
  0.905900D+00  0.140382D+00
  0.364300D+00  0.598684D+00
  0.128500D+00  0.395389D+00
   s     1 1.00
  0.905900D+00  0.100000D+01
   s     1 1.00
  0.364300D+00  0.100000D+01
   p     5 1.00
  0.187100D+02  0.140310D-01
  0.413300D+01  0.868660D-01
  0.120000D+01  0.290216D+00
  0.382700D+00  0.501008D+00
  0.120900D+00  0.343406D+00
   p     1 1.00
  0.382700D+00  0.100000D+01
   p     1 1.00
  0.120900D+00  0.100000D+01
   d     1 1.00
  0.109700D+01  0.100000D+01
   d     1 1.00
  0.318000D+00  0.100000D+01
   f     1 1.00
  0.761000D+00  0.100000D+01
  
  6  0
   s    10 1.00
  0.823600D+04  0.531000D-03
  0.123500D+04  0.410800D-02
  0.280800D+03  0.210870D-01
  0.792700D+02  0.818530D-01
  0.255900D+02  0.234817D+00
  0.899700D+01  0.434401D+00
  0.331900D+01  0.346129D+00
  0.905900D+00  0.393780D-01
  0.364300D+00 -0.898300D-02
  0.128500D+00  0.238500D-02
   s    10 1.00
  0.823600D+04 -0.113000D-03
  0.123500D+04 -0.878000D-03
  0.280800D+03 -0.454000D-02
  0.792700D+02 -0.181330D-01
  0.255900D+02 -0.557600D-01
  0.899700D+01 -0.126895D+00
  0.331900D+01 -0.170352D+00
  0.905900D+00  0.140382D+00
  0.364300D+00  0.598684D+00
  0.128500D+00  0.395389D+00
   s     1 1.00
  0.905900D+00  0.100000D+01
   s     1 1.00
  0.364300D+00  0.100000D+01
   p     5 1.00
  0.187100D+02  0.140310D-01
  0.413300D+01  0.868660D-01
  0.120000D+01  0.290216D+00
  0.382700D+00  0.501008D+00
  0.120900D+00  0.343406D+00
   p     1 1.00
  0.382700D+00  0.100000D+01
   p     1 1.00
  0.120900D+00  0.100000D+01
   d     1 1.00
  0.109700D+01  0.100000D+01
   d     1 1.00
  0.318000D+00  0.100000D+01
   f     1 1.00
  0.761000D+00  0.100000D+01
  
  7  0
   s    10 1.00
  0.823600D+04  0.531000D-03
  0.123500D+04  0.410800D-02
  0.280800D+03  0.210870D-01
  0.792700D+02  0.818530D-01
  0.255900D+02  0.234817D+00
  0.899700D+01  0.434401D+00
  0.331900D+01  0.346129D+00
  0.905900D+00  0.393780D-01
  0.364300D+00 -0.898300D-02
  0.128500D+00  0.238500D-02
   s    10 1.00
  0.823600D+04 -0.113000D-03
  0.123500D+04 -0.878000D-03
  0.280800D+03 -0.454000D-02
  0.792700D+02 -0.181330D-01
  0.255900D+02 -0.557600D-01
  0.899700D+01 -0.126895D+00
  0.331900D+01 -0.170352D+00
  0.905900D+00  0.140382D+00
  0.364300D+00  0.598684D+00
  0.128500D+00  0.395389D+00
   s     1 1.00
  0.905900D+00  0.100000D+01
   s     1 1.00
  0.364300D+00  0.100000D+01
   p     5 1.00
  0.187100D+02  0.140310D-01
  0.413300D+01  0.868660D-01
  0.120000D+01  0.290216D+00
  0.382700D+00  0.501008D+00
  0.120900D+00  0.343406D+00
   p     1 1.00
  0.382700D+00  0.100000D+01
   p     1 1.00
  0.120900D+00  0.100000D+01
   d     1 1.00
  0.109700D+01  0.100000D+01
   d     1 1.00
  0.318000D+00  0.100000D+01
   f     1 1.00
  0.761000D+00  0.100000D+01
  
  8  0
   s     4 1.00
  0.130100D+02  0.196850D-01
  0.196200D+01  0.137977D+00
  0.444600D+00  0.478148D+00
  0.122000D+00  0.501240D+00
   s     1 1.00
  0.122000D+00  0.100000D+01
   p     1 1.00
  0.727000D+00  0.100000D+01
  
  9  0
   s     4 1.00
  0.130100D+02  0.196850D-01
  0.196200D+01  0.137977D+00
  0.444600D+00  0.478148D+00
  0.122000D+00  0.501240D+00
   s     1 1.00
  0.122000D+00  0.100000D+01
   p     1 1.00
  0.727000D+00  0.100000D+01
  
 10  0
   s     4 1.00
  0.130100D+02  0.196850D-01
  0.196200D+01  0.137977D+00
  0.444600D+00  0.478148D+00
  0.122000D+00  0.501240D+00
   s     1 1.00
  0.122000D+00  0.100000D+01
   p     1 1.00
  0.727000D+00  0.100000D+01
  
 11  0
   s     4 1.00
  0.130100D+02  0.196850D-01
  0.196200D+01  0.137977D+00
  0.444600D+00  0.478148D+00
  0.122000D+00  0.501240D+00
   s     1 1.00
  0.122000D+00  0.100000D+01
   p     1 1.00
  0.727000D+00  0.100000D+01
  
 12  0
   s     4 1.00
  0.130100D+02  0.196850D-01
  0.196200D+01  0.137977D+00
  0.444600D+00  0.478148D+00
  0.122000D+00  0.501240D+00
   s     1 1.00
  0.122000D+00  0.100000D+01
   p     1 1.00
  0.727000D+00  0.100000D+01
  
 13  0
   s     4 1.00
  0.130100D+02  0.196850D-01
  0.196200D+01  0.137977D+00
  0.444600D+00  0.478148D+00
  0.122000D+00  0.501240D+00
   s     1 1.00
  0.122000D+00  0.100000D+01
   p     1 1.00
  0.727000D+00  0.100000D+01
  
 14  0
   s     4 1.00
  0.130100D+02  0.196850D-01
  0.196200D+01  0.137977D+00
  0.444600D+00  0.478148D+00
  0.122000D+00  0.501240D+00
   s     1 1.00
  0.122000D+00  0.100000D+01
   p     1 1.00
  0.727000D+00  0.100000D+01
  
[MO]
 Sym= __1_a__
 Ene=  0.000000000000000E+000
 Spin= Alpha
 Occup=    2.00000000000000     
                     1  2.097460079017500E-004
                     2  0.998437136139604     
                     3 -3.837870074678900E-003
                     4  1.562265476046820E-003
                     5  7.653715432508780E-003
                     6  6.707608463054420E-003
                     7 -4.193516722001470E-003
                     8  1.807301517962790E-003
                     9 -1.142886119961570E-003
                    10  5.470346271224020E-004
                    11 -3.748882579350140E-004
                    12 -2.670219817570730E-003
                    13  2.997462551211780E-003
                    14 -1.702813873682270E-003
                    15 -3.845293760427213E-005
                    16 -4.303088912552120E-005
                    17 -2.800561963959950E-005
                    18  4.674085087949620E-005
                    19  8.752271328559881E-006
                    20 -2.325828978227445E-004
                    21  2.534061353744740E-004
                    22  1.372436644685120E-005
                    23  7.302212240781100E-005
                    24 -3.696277490269890E-004
                    25  5.699606513129221E-006
                    26 -8.062884632204047E-005
                    27 -2.291906209706851E-005
                    28 -4.476747667997980E-006
                    29  2.460253674669020E-007
                    30 -4.966121317082488E-005
                    31 -4.491054126482955E-005
                    32 -3.335540018540800E-004
                    33 -1.105076321916770E-004
                    34  2.725974609623830E-004
                    35 -2.777968934822780E-005
                    36 -1.806088221289670E-003
                    37 -1.597577853460300E-004
                    38 -8.374702238589570E-005
                    39 -7.622173829190700E-006
                    40  1.545436411081570E-005
                    41  4.098574309978300E-004
                    42  5.115177565150240E-003
                    43  5.093417759522910E-004
                    44 -1.543548492818170E-003
                    45 -1.355477894441751E-004
                    46  1.307124033303410E-005
                    47  7.960627633989250E-006
                    48  1.290622390576736E-004
                    49  3.034834975993470E-005
                    50  4.672447991212460E-004
                    51  3.754767753681580E-004
                    52 -4.551749664718090E-005
                    53 -1.565169153429812E-004
                    54 -3.122345155967260E-004
                    55 -5.261231325245706E-006
                    56 -4.020226470239073E-005
                    57  3.329626008313273E-006
                    58  1.104418149122658E-005
                    59 -2.525859798088570E-006
                    60 -4.062681189799193E-005
                    61  3.145435285354274E-005
                    62 -5.681711739629601E-004
                    63 -2.027898622314770E-003
                    64  2.484003299271000E-005
                    65  1.752827732152670E-003
                    66 -5.379145593473000E-006
                    67 -1.693311515376400E-004
                    68 -2.995250421031020E-004
                    69  6.850120465638790E-004
                    70  2.495555781926110E-005
                    71  3.838841880417440E-004
                    72  3.651177146388700E-004
                    73 -1.850377539714390E-004
                    74 -1.454325657631290E-003
                    75 -3.986973476149132E-005
                    76 -2.931011185788770E-005
                    77  8.582045193015359E-006
                    78  6.633560665873900E-005
                    79 -6.858938215672270E-006
                    80  2.929384696060649E-004
                    81  1.249560487190130E-004
                    82 -2.777370213238000E-005
                    83 -8.343862608456741E-005
                    84  4.979051078671640E-005
                    85 -1.755648661811098E-005
                    86 -9.443827657282331E-005
                    87  1.519053090623770E-005
                    88  1.963043395317316E-006
                    89  1.595728355277990E-005
                    90 -5.607749298496101E-005
                    91 -1.133228064748546E-005
                    92 -2.658504828047430E-004
                    93 -9.163461420878710E-004
                    94  2.001794796023850E-004
                    95  1.168808394868140E-004
                    96 -1.296818292453860E-005
                    97 -2.303372892563040E-004
                    98  1.780652316008180E-004
                    99  4.360449054164550E-004
                   100  1.157410729814750E-004
                   101  1.377099317441430E-004
                   102 -1.329558152733530E-003
                   103 -2.931716441540910E-004
                   104  7.082822412397770E-004
                   105 -3.916497685114910E-005
                   106  3.257878633191180E-007
                   107 -1.141108038069030E-005
                   108  4.316077734435280E-005
                   109 -1.470351782587680E-005
                   110  1.029087607280118E-004
                   111 -1.217244199349400E-004
                   112  1.084439805994500E-005
                   113 -2.155551085326140E-004
                   114  7.084303771401779E-005
                   115  1.452753614911876E-005
                   116 -1.716447182622574E-005
                   117  1.513136437774556E-005
                   118  1.756238554681242E-005
                   119 -9.881526865135379E-006
                   120 -3.299427509217485E-005
                   121 -9.823274005835630E-006
                   122 -2.982561671560560E-004
                   123 -8.700191957010260E-004
                   124  7.539684120469680E-005
                   125  8.891469120007980E-004
                   126 -2.091943340338170E-004
                   127 -9.353807711439379E-005
                   128 -2.604761957815400E-005
                   129  3.629606400297490E-004
                   130 -2.347437060224340E-005
                   131  1.640412605674830E-004
                   132  1.783159634771310E-003
                   133  9.195019196012370E-005
                   134  2.831958204613800E-005
                   135  2.281887239787016E-005
                   136 -2.627474538812000E-006
                   137 -5.469660673492960E-006
                   138 -8.875242711846300E-006
                   139  6.912924657797620E-006
                   140  1.598120808695733E-004
                   141  2.590295437774180E-004
                   142  5.875673977202840E-006
                   143 -2.868449991254900E-004
                   144  2.376559170932830E-006
                   145 -2.448365662723141E-005
                   146 -1.949621802444540E-005
                   147  1.630306642693491E-006
                   148 -7.504933351537460E-006
                   149 -7.028649188780180E-007
                   150 -6.379116633004270E-005
                   151 -3.529116934682820E-006
                   152 -2.165751024689620E-004
                   153 -6.520425676984580E-004
                   154  8.332552489824400E-007
                   155  7.629496098671800E-004
                   156 -1.098641169364350E-004
                   157 -1.034215560935060E-004
                   158 -1.094160165841580E-005
                   159 -6.718619902467430E-006
                   160 -4.890221509112320E-005
                   161  4.043629639076540E-005
                   162  7.077301558918129E-005
                   163  1.397357359516420E-004
                   164  6.571666206014800E-004
                   165 -8.992093838077326E-007
                   166  8.466420479457800E-006
                   167  5.411294639367790E-006
                   168  8.861869291168779E-006
                   169  1.169333557752310E-005
                   170  8.180068521650567E-006
                   171 -9.399941051134770E-005
                   172 -8.889344466860679E-006
                   173 -9.760092586285639E-005
                   174  5.191461718651560E-006
                   175 -3.268502279436436E-006
                   176 -1.028144492395529E-005
                   177  4.260196369611077E-006
                   178 -8.696531281008359E-006
                   179 -5.748302181626490E-007
                   180 -2.873797386051983E-005
                   181 -6.860709810533708E-006
                   182 -1.627588236773320E-004
                   183 -5.037259018548910E-004
                   184  4.637640270936470E-005
                   185  2.159584808432390E-004
                   186 -3.374426928118330E-005
                   187 -8.765485194384700E-005
                   188 -2.919166462973590E-005
                   189  1.247855891744470E-004
                   190  8.764033760698130E-006
                   191  1.716120455469310E-004
                   192 -4.453120742291370E-004
                   193 -7.601978818707549E-005
                   194  9.406002708408230E-004
                   195 -3.443072246187187E-006
                   196  2.208974736815110E-006
                   197  1.776326110451070E-006
                   198  2.531423399934760E-007
                   199  4.982201675787790E-007
                   200 -1.272696416958205E-004
                   201 -1.394799262929720E-004
                   202 -6.439420393966830E-006
                   203  4.492351509819220E-005
                   204  1.584196412161170E-005
                   205  3.745009097878502E-006
                   206  8.278983577981634E-006
                   207  8.974800155144196E-007
                   208  1.095314945424510E-005
                   209  3.395169017589910E-007
                   210 -5.993011451270575E-006
                   211 -3.060442087189220E-006
                   212 -3.468537161187690E-004
                   213 -2.210214836922850E-005
                   214  1.590622392932140E-005
                   215  1.210651626114710E-004
                   216 -6.485387677688660E-006
                   217 -6.207579496335279E-004
                   218 -8.145876976873300E-004
                   219  4.939630152619380E-005
                   220  1.950925699453640E-004
                   221 -1.888042533810160E-004
                   222 -2.536591561627750E-004
                   223 -5.532021483059010E-004
                   224 -7.988250856210570E-005
                   225  7.136215441347000E-006
                   226  5.564906229193290E-005
                   227 -7.943035701962161E-005
                   228 -5.836685195049270E-004
                   229 -4.570130686928640E-005
                   230  1.247830927288120E-005
                   231 -6.871203763308250E-005
                   232  4.862511801840260E-005
                   233 -6.119092720814759E-004
                   234 -4.005735171586490E-008
                   235 -9.916150739250611E-007
                   236  7.364346921083390E-007
                   237 -8.238170603992760E-006
                   238 -4.440844324560160E-004
                   239  9.176050743629200E-006
                   240 -3.425732641027350E-006
                   241  8.495432928323469E-006
                   242 -4.967411830556930E-005
                   243  1.293617780560120E-004
                   244  3.294102310571400E-005
                   245  1.163070308975830E-006
                   246 -4.477308972017450E-008
 Sym= __2_a__
 Ene=  0.000000000000000E+000
 Spin= Alpha
 Occup=    2.00000000000000     
                     1 -2.100759767709020E-005
                     2 -1.580860868314980E-004
                     3  2.237046612030030E-003
                     4  3.810349754681490E-006
                     5  1.147412177087870E-003
                     6  2.014006852376170E-003
                     7 -1.181270982574880E-004
                     8 -2.690764298920410E-004
                     9 -1.310402056839370E-004
                    10  1.193551610819370E-004
                    11 -3.405976448111820E-005
                    12  6.011245240294640E-005
                    13  7.973495020202380E-005
                    14  4.545102906719380E-005
                    15 -6.780632577115221E-005
                    16  2.160675986509650E-007
                    17  2.944680138491550E-006
                    18  4.825326136306640E-005
                    19 -1.142305174556350E-005
                    20  7.902094883320368E-005
                    21  3.140448511120680E-005
                    22 -5.124273515627510E-006
                    23  1.230032196317440E-004
                    24 -2.982140898273450E-005
                    25 -7.408060985462250E-006
                    26  1.348469759556739E-004
                    27 -4.136403822916605E-005
                    28  3.116121360356460E-007
                    29 -3.692985087780260E-006
                    30  1.047976158101535E-004
                    31  3.373747040987717E-005
                    32   1.00082577324301     
                    33  8.917972521718470E-003
                    34  2.870587889658200E-003
                    35 -8.446463758857161E-003
                    36 -2.252798843939470E-003
                    37  5.732770716030210E-004
                    38  5.357521220303550E-006
                    39  6.336775810864300E-004
                    40 -2.725971571419910E-004
                    41  3.573773942971460E-005
                    42  3.232879415191950E-003
                    43 -1.703600052793890E-004
                    44  4.194327017486130E-005
                    45  3.103223444598722E-004
                    46 -7.386625607798650E-006
                    47 -1.351362102065950E-005
                    48  3.875050892464180E-004
                    49 -2.680746828121360E-005
                    50 -1.148113642976572E-003
                    51  1.023866133843860E-004
                    52  3.223532522156090E-005
                    53 -7.315306732403820E-005
                    54  4.158913675564510E-005
                    55  1.426896815473104E-006
                    56  2.927166437350187E-004
                    57 -1.357687347770415E-005
                    58  1.433563757125888E-006
                    59 -6.300672094215590E-006
                    60  8.747472732713283E-005
                    61  1.578465229931139E-005
                    62  1.587275942313080E-002
                    63 -1.881309066777240E-003
                    64 -3.279368340623850E-004
                    65  3.280682316742620E-003
                    66 -6.795578033685330E-005
                    67  5.094771771497920E-005
                    68  2.046238626896360E-004
                    69 -4.650028308126560E-005
                    70 -7.469472448500290E-007
                    71  6.216606510019681E-004
                    72  1.051822050073120E-004
                    73 -2.997306886079010E-006
                    74 -1.756736245391010E-003
                    75 -9.467189609861350E-006
                    76  1.735958861384620E-005
                    77  6.402698371687160E-006
                    78 -2.816174807795640E-005
                    79 -2.397496049012370E-006
                    80 -3.869493530024498E-004
                    81 -4.787638852246920E-004
                    82  4.567313086232070E-006
                    83  7.500055458178380E-004
                    84 -1.505149921543260E-005
                    85  4.942112180076393E-005
                    86  1.070287972833595E-004
                    87  1.728793118785530E-006
                    88 -1.992364772123860E-005
                    89 -9.585699470083759E-006
                    90 -3.122212750262594E-005
                    91  3.475854923892358E-006
                    92  1.804370253648320E-002
                    93 -1.847646069478370E-003
                    94 -3.101890413654090E-004
                    95  3.178395444157470E-003
                    96 -7.905691888937980E-005
                    97  5.402790816975270E-005
                    98 -2.099285066434050E-004
                    99 -1.962559564593670E-005
                   100  1.819419299789470E-005
                   101 -5.380607914827010E-004
                   102  1.435520079419640E-004
                   103 -4.119573844932070E-005
                   104  1.857861432579350E-003
                   105 -1.042556119310457E-005
                   106 -2.261560267562790E-005
                   107 -5.052835313398430E-006
                   108 -3.148122189247120E-005
                   109 -2.139046692357740E-006
                   110 -4.418296040715652E-004
                   111  4.951826868653550E-004
                   112 -3.172723801312880E-006
                   113  7.784308044702240E-004
                   114 -1.526140132401670E-005
                   115 -5.556677518388650E-005
                   116  1.063944102878725E-004
                   117 -2.241343668454080E-006
                   118  1.566985172074040E-005
                   119  3.935722799046040E-006
                   120 -3.063835849187333E-005
                   121  4.886378565825713E-006
                   122 -2.284380899233540E-006
                   123 -6.583093964614260E-004
                   124  2.466460625784790E-004
                   125 -3.112558234764790E-004
                   126 -2.434516336128320E-004
                   127  2.010376888273330E-005
                   128 -4.082554194479530E-005
                   129  5.873523621228180E-004
                   130 -6.104166198989440E-006
                   131  4.019423317596110E-005
                   132  5.483649839128310E-004
                   133  3.705102602302330E-006
                   134  3.023035730848890E-004
                   135 -1.738235694240083E-007
                   136  4.392527736662100E-005
                   137  2.772458799257950E-007
                   138 -3.393783640225420E-005
                   139 -1.226882988476600E-007
                   140  1.811785392049031E-004
                   141 -2.580850571275970E-004
                   142  3.531444627410640E-006
                   143 -2.580813879720980E-004
                   144  3.536229411381280E-006
                   145 -1.929665193977174E-005
                   146  1.312057552490877E-005
                   147 -3.438905364395737E-007
                   148 -1.266544438054064E-005
                   149 -1.877622752191730E-006
                   150 -2.563516069978525E-005
                   151 -1.110050271794502E-006
                   152  7.754684077294110E-005
                   153 -6.709109475263860E-004
                   154  2.479137279748430E-004
                   155 -3.317267939756660E-004
                   156 -2.358274427608640E-004
                   157  7.969970350015950E-006
                   158  4.407418784015880E-005
                   159  6.142612174655990E-004
                   160  6.538423271262420E-006