[Molden Format]
[Atoms] AU
  N     1    7    -4.4612839000    0.2221934600   -0.0102738100        
  C     2    6    -1.7455490500    0.0046100000   -0.0220588900        
  C     3    6    -0.4111887800    0.0281559400   -2.2838331500        
  C     4    6    -0.4382509200   -0.0299355200    2.2473320700        
  C     5    6     2.1954217900    0.0068395400   -2.2538086400        
  C     6    6     2.1735879800   -0.0146264900    2.2490150500        
  C     7    6     3.4994148000   -0.0063244700    0.0045189700        
  H     8    1    -5.3942658500   -1.6292512500   -1.9433007200        
  H     9    1    -5.1481146800   -0.7440746800    1.5563455600        
  H    10    1    -1.4152078000    0.0694879800   -4.0435164400        
  H    11    1    -1.4532437200   -0.0588099400    4.0036322700        
  H    12    1     3.2131736700    0.0152426300   -4.0100281200        
  H    13    1     3.1712610500   -0.0256261400    4.0166516800        
  H    14    1     5.5283511800   -0.0143400800    0.0147973900        
[5D]
[7F]
[GTO]
  1  0
   s    12 1.00
  0.114200D+05  0.172695D-04
  0.171200D+04  0.134411D-03
  0.389300D+03  0.694561D-03
  0.110000D+03  0.278531D-02
  0.355700D+02  0.863457D-02
  0.125400D+02  0.199805D-01
  0.464400D+01  0.262908D-01
  0.129300D+01 -0.243845D-01
  0.511800D+00 -0.924934D-01
  0.178700D+00 -0.339683D+00
  0.246240D-01  0.345111D+00
  0.112530D-01  0.752750D+00
   s    10 1.00
  0.114200D+05  0.523000D-03
  0.171200D+04  0.404500D-02
  0.389300D+03  0.207750D-01
  0.110000D+03  0.807269D-01
  0.355700D+02  0.233074D+00
  0.125400D+02  0.433501D+00
  0.464400D+01  0.347472D+00
  0.129300D+01  0.412620D-01
  0.511800D+00 -0.850799D-02
  0.178700D+00  0.238400D-02
   s    10 1.00
  0.114200D+05 -0.115000D-03
  0.171200D+04 -0.895000D-03
  0.389300D+03 -0.462400D-02
  0.110000D+03 -0.185280D-01
  0.355700D+02 -0.573390D-01
  0.125400D+02 -0.132076D+00
  0.464400D+01 -0.172510D+00
  0.129300D+01  0.151814D+00
  0.511800D+00  0.599944D+00
  0.178700D+00  0.387462D+00
   s     1 1.00
  0.129300D+01  0.100000D+01
   s     1 1.00
  0.178700D+00  0.100000D+01
   p     5 1.00
  0.266300D+02  0.146700D-01
  0.594800D+01  0.917640D-01
  0.174200D+01  0.298683D+00
  0.555000D+00  0.498487D+00
  0.172500D+00  0.337023D+00
   p     1 1.00
  0.174200D+01  0.100000D+01
   p     1 1.00
  0.555000D+00  0.100000D+01
   d     1 1.00
  0.165400D+01  0.100000D+01
   d     1 1.00
  0.469000D+00  0.100000D+01
   f     1 1.00
  0.109300D+01  0.100000D+01
  
  2  0
   s    10 1.00
  0.823600D+04  0.531000D-03
  0.123500D+04  0.410800D-02
  0.280800D+03  0.210870D-01
  0.792700D+02  0.818530D-01
  0.255900D+02  0.234817D+00
  0.899700D+01  0.434401D+00
  0.331900D+01  0.346129D+00
  0.905900D+00  0.393780D-01
  0.364300D+00 -0.898300D-02
  0.128500D+00  0.238500D-02
   s    10 1.00
  0.823600D+04 -0.113000D-03
  0.123500D+04 -0.878000D-03
  0.280800D+03 -0.454000D-02
  0.792700D+02 -0.181330D-01
  0.255900D+02 -0.557600D-01
  0.899700D+01 -0.126895D+00
  0.331900D+01 -0.170352D+00
  0.905900D+00  0.140382D+00
  0.364300D+00  0.598684D+00
  0.128500D+00  0.395389D+00
   s     1 1.00
  0.905900D+00  0.100000D+01
   s     1 1.00
  0.364300D+00  0.100000D+01
   p     5 1.00
  0.187100D+02  0.140310D-01
  0.413300D+01  0.868660D-01
  0.120000D+01  0.290216D+00
  0.382700D+00  0.501008D+00
  0.120900D+00  0.343406D+00
   p     1 1.00
  0.382700D+00  0.100000D+01
   p     1 1.00
  0.120900D+00  0.100000D+01
   d     1 1.00
  0.109700D+01  0.100000D+01
   d     1 1.00
  0.318000D+00  0.100000D+01
   f     1 1.00
  0.761000D+00  0.100000D+01
  
  3  0
   s    10 1.00
  0.823600D+04  0.531000D-03
  0.123500D+04  0.410800D-02
  0.280800D+03  0.210870D-01
  0.792700D+02  0.818530D-01
  0.255900D+02  0.234817D+00
  0.899700D+01  0.434401D+00
  0.331900D+01  0.346129D+00
  0.905900D+00  0.393780D-01
  0.364300D+00 -0.898300D-02
  0.128500D+00  0.238500D-02
   s    10 1.00
  0.823600D+04 -0.113000D-03
  0.123500D+04 -0.878000D-03
  0.280800D+03 -0.454000D-02
  0.792700D+02 -0.181330D-01
  0.255900D+02 -0.557600D-01
  0.899700D+01 -0.126895D+00
  0.331900D+01 -0.170352D+00
  0.905900D+00  0.140382D+00
  0.364300D+00  0.598684D+00
  0.128500D+00  0.395389D+00
   s     1 1.00
  0.905900D+00  0.100000D+01
   s     1 1.00
  0.364300D+00  0.100000D+01
   p     5 1.00
  0.187100D+02  0.140310D-01
  0.413300D+01  0.868660D-01
  0.120000D+01  0.290216D+00
  0.382700D+00  0.501008D+00
  0.120900D+00  0.343406D+00
   p     1 1.00
  0.382700D+00  0.100000D+01
   p     1 1.00
  0.120900D+00  0.100000D+01
   d     1 1.00
  0.109700D+01  0.100000D+01
   d     1 1.00
  0.318000D+00  0.100000D+01
   f     1 1.00
  0.761000D+00  0.100000D+01
  
  4  0
   s    10 1.00
  0.823600D+04  0.531000D-03
  0.123500D+04  0.410800D-02
  0.280800D+03  0.210870D-01
  0.792700D+02  0.818530D-01
  0.255900D+02  0.234817D+00
  0.899700D+01  0.434401D+00
  0.331900D+01  0.346129D+00
  0.905900D+00  0.393780D-01
  0.364300D+00 -0.898300D-02
  0.128500D+00  0.238500D-02
   s    10 1.00
  0.823600D+04 -0.113000D-03
  0.123500D+04 -0.878000D-03
  0.280800D+03 -0.454000D-02
  0.792700D+02 -0.181330D-01
  0.255900D+02 -0.557600D-01
  0.899700D+01 -0.126895D+00
  0.331900D+01 -0.170352D+00
  0.905900D+00  0.140382D+00
  0.364300D+00  0.598684D+00
  0.128500D+00  0.395389D+00
   s     1 1.00
  0.905900D+00  0.100000D+01
   s     1 1.00
  0.364300D+00  0.100000D+01
   p     5 1.00
  0.187100D+02  0.140310D-01
  0.413300D+01  0.868660D-01
  0.120000D+01  0.290216D+00
  0.382700D+00  0.501008D+00
  0.120900D+00  0.343406D+00
   p     1 1.00
  0.382700D+00  0.100000D+01
   p     1 1.00
  0.120900D+00  0.100000D+01
   d     1 1.00
  0.109700D+01  0.100000D+01
   d     1 1.00
  0.318000D+00  0.100000D+01
   f     1 1.00
  0.761000D+00  0.100000D+01
  
  5  0
   s    10 1.00
  0.823600D+04  0.531000D-03
  0.123500D+04  0.410800D-02
  0.280800D+03  0.210870D-01
  0.792700D+02  0.818530D-01
  0.255900D+02  0.234817D+00
  0.899700D+01  0.434401D+00
  0.331900D+01  0.346129D+00
  0.905900D+00  0.393780D-01
  0.364300D+00 -0.898300D-02
  0.128500D+00  0.238500D-02
   s    10 1.00
  0.823600D+04 -0.113000D-03
  0.123500D+04 -0.878000D-03
  0.280800D+03 -0.454000D-02
  0.792700D+02 -0.181330D-01
  0.255900D+02 -0.557600D-01
  0.899700D+01 -0.126895D+00
  0.331900D+01 -0.170352D+00
  0.905900D+00  0.140382D+00
  0.364300D+00  0.598684D+00
  0.128500D+00  0.395389D+00
   s     1 1.00
  0.905900D+00  0.100000D+01
   s     1 1.00
  0.364300D+00  0.100000D+01
   p     5 1.00
  0.187100D+02  0.140310D-01
  0.413300D+01  0.868660D-01
  0.120000D+01  0.290216D+00
  0.382700D+00  0.501008D+00
  0.120900D+00  0.343406D+00
   p     1 1.00
  0.382700D+00  0.100000D+01
   p     1 1.00
  0.120900D+00  0.100000D+01
   d     1 1.00
  0.109700D+01  0.100000D+01
   d     1 1.00
  0.318000D+00  0.100000D+01
   f     1 1.00
  0.761000D+00  0.100000D+01
  
  6  0
   s    10 1.00
  0.823600D+04  0.531000D-03
  0.123500D+04  0.410800D-02
  0.280800D+03  0.210870D-01
  0.792700D+02  0.818530D-01
  0.255900D+02  0.234817D+00
  0.899700D+01  0.434401D+00
  0.331900D+01  0.346129D+00
  0.905900D+00  0.393780D-01
  0.364300D+00 -0.898300D-02
  0.128500D+00  0.238500D-02
   s    10 1.00
  0.823600D+04 -0.113000D-03
  0.123500D+04 -0.878000D-03
  0.280800D+03 -0.454000D-02
  0.792700D+02 -0.181330D-01
  0.255900D+02 -0.557600D-01
  0.899700D+01 -0.126895D+00
  0.331900D+01 -0.170352D+00
  0.905900D+00  0.140382D+00
  0.364300D+00  0.598684D+00
  0.128500D+00  0.395389D+00
   s     1 1.00
  0.905900D+00  0.100000D+01
   s     1 1.00
  0.364300D+00  0.100000D+01
   p     5 1.00
  0.187100D+02  0.140310D-01
  0.413300D+01  0.868660D-01
  0.120000D+01  0.290216D+00
  0.382700D+00  0.501008D+00
  0.120900D+00  0.343406D+00
   p     1 1.00
  0.382700D+00  0.100000D+01
   p     1 1.00
  0.120900D+00  0.100000D+01
   d     1 1.00
  0.109700D+01  0.100000D+01
   d     1 1.00
  0.318000D+00  0.100000D+01
   f     1 1.00
  0.761000D+00  0.100000D+01
  
  7  0
   s    10 1.00
  0.823600D+04  0.531000D-03
  0.123500D+04  0.410800D-02
  0.280800D+03  0.210870D-01
  0.792700D+02  0.818530D-01
  0.255900D+02  0.234817D+00
  0.899700D+01  0.434401D+00
  0.331900D+01  0.346129D+00
  0.905900D+00  0.393780D-01
  0.364300D+00 -0.898300D-02
  0.128500D+00  0.238500D-02
   s    10 1.00
  0.823600D+04 -0.113000D-03
  0.123500D+04 -0.878000D-03
  0.280800D+03 -0.454000D-02
  0.792700D+02 -0.181330D-01
  0.255900D+02 -0.557600D-01
  0.899700D+01 -0.126895D+00
  0.331900D+01 -0.170352D+00
  0.905900D+00  0.140382D+00
  0.364300D+00  0.598684D+00
  0.128500D+00  0.395389D+00
   s     1 1.00
  0.905900D+00  0.100000D+01
   s     1 1.00
  0.364300D+00  0.100000D+01
   p     5 1.00
  0.187100D+02  0.140310D-01
  0.413300D+01  0.868660D-01
  0.120000D+01  0.290216D+00
  0.382700D+00  0.501008D+00
  0.120900D+00  0.343406D+00
   p     1 1.00
  0.382700D+00  0.100000D+01
   p     1 1.00
  0.120900D+00  0.100000D+01
   d     1 1.00
  0.109700D+01  0.100000D+01
   d     1 1.00
  0.318000D+00  0.100000D+01
   f     1 1.00
  0.761000D+00  0.100000D+01
  
  8  0
   s     4 1.00
  0.130100D+02  0.196850D-01
  0.196200D+01  0.137977D+00
  0.444600D+00  0.478148D+00
  0.122000D+00  0.501240D+00
   s     1 1.00
  0.122000D+00  0.100000D+01
   p     1 1.00
  0.727000D+00  0.100000D+01
  
  9  0
   s     4 1.00
  0.130100D+02  0.196850D-01
  0.196200D+01  0.137977D+00
  0.444600D+00  0.478148D+00
  0.122000D+00  0.501240D+00
   s     1 1.00
  0.122000D+00  0.100000D+01
   p     1 1.00
  0.727000D+00  0.100000D+01
  
 10  0
   s     4 1.00
  0.130100D+02  0.196850D-01
  0.196200D+01  0.137977D+00
  0.444600D+00  0.478148D+00
  0.122000D+00  0.501240D+00
   s     1 1.00
  0.122000D+00  0.100000D+01
   p     1 1.00
  0.727000D+00  0.100000D+01
  
 11  0
   s     4 1.00
  0.130100D+02  0.196850D-01
  0.196200D+01  0.137977D+00
  0.444600D+00  0.478148D+00
  0.122000D+00  0.501240D+00
   s     1 1.00
  0.122000D+00  0.100000D+01
   p     1 1.00
  0.727000D+00  0.100000D+01
  
 12  0
   s     4 1.00
  0.130100D+02  0.196850D-01
  0.196200D+01  0.137977D+00
  0.444600D+00  0.478148D+00
  0.122000D+00  0.501240D+00
   s     1 1.00
  0.122000D+00  0.100000D+01
   p     1 1.00
  0.727000D+00  0.100000D+01
  
 13  0
   s     4 1.00
  0.130100D+02  0.196850D-01
  0.196200D+01  0.137977D+00
  0.444600D+00  0.478148D+00
  0.122000D+00  0.501240D+00
   s     1 1.00
  0.122000D+00  0.100000D+01
   p     1 1.00
  0.727000D+00  0.100000D+01
  
 14  0
   s     4 1.00
  0.130100D+02  0.196850D-01
  0.196200D+01  0.137977D+00
  0.444600D+00  0.478148D+00
  0.122000D+00  0.501240D+00
   s     1 1.00
  0.122000D+00  0.100000D+01
   p     1 1.00
  0.727000D+00  0.100000D+01
  
[MO]
 Sym= __1_A__
 Ene=  0.000000000000000E+000
 Spin= Alpha
 Occup=    2.00000000000000     
                     1  2.097460079719060E-004
                     2  0.998437136139481     
                     3 -3.837870074071859E-003
                     4  1.562265476040597E-003
                     5  7.653715432373486E-003
                     6  6.707608463175016E-003
                     7 -4.193516721818022E-003
                     8  1.807301518195232E-003
                     9 -1.142886119886597E-003
                    10  5.470346270680641E-004
                    11 -3.748882579155810E-004
                    12 -2.670219817576212E-003
                    13  2.997462551178466E-003
                    14 -1.702813873675227E-003
                    15 -3.845293760885476E-005
                    16 -4.303088912229050E-005
                    17 -2.800561964335937E-005
                    18  4.674085090260960E-005
                    19  8.752271331792172E-006
                    20 -2.325828978680971E-004
                    21  2.534061354030456E-004
                    22  1.372436643955511E-005
                    23  7.302212251089338E-005
                    24 -3.696277490450222E-004
                    25  5.699606515682948E-006
                    26 -8.062884632810363E-005
                    27 -2.291906209974153E-005
                    28 -4.476747665004040E-006
                    29  2.460253682096068E-007
                    30 -4.966121319213153E-005
                    31 -4.491054126874133E-005
                    32 -3.335540084888584E-004
                    33 -1.105076216470186E-004
                    34  2.725974608818162E-004
                    35 -2.777969011506854E-005
                    36 -1.806088218372935E-003
                    37 -1.597577851348983E-004
                    38 -8.374702131319890E-005
                    39 -7.622173856016944E-006
                    40  1.545436410158236E-005
                    41  4.098574309999242E-004
                    42  5.115177566128991E-003
                    43  5.093417759759439E-004
                    44 -1.543548493110633E-003
                    45 -1.355477891335789E-004
                    46  1.307124036545083E-005
                    47  7.960627626525563E-006
                    48  1.290622390627823E-004
                    49  3.034834976230197E-005
                    50  4.672447993490997E-004
                    51  3.754767754171245E-004
                    52 -4.551749665566174E-005
                    53 -1.565169151289522E-004
                    54 -3.122345155746276E-004
                    55 -5.261231325630209E-006
                    56 -4.020226452845793E-005
                    57  3.329626011269403E-006
                    58  1.104418150131849E-005
                    59 -2.525859802274370E-006
                    60 -4.062681188834517E-005
                    61  3.145435286209522E-005
                    62 -5.681711742335158E-004
                    63 -2.027898619863725E-003
                    64  2.484003299854679E-005
                    65  1.752827732163204E-003
                    66 -5.379153170197073E-006
                    67 -1.693311513038822E-004
                    68 -2.995250414096531E-004
                    69  6.850120474781024E-004
                    70  2.495555780911720E-005
                    71  3.838841881489277E-004
                    72  3.651177164951061E-004
                    73 -1.850377539789197E-004
                    74 -1.454325659217337E-003
                    75 -3.986973451505531E-005
                    76 -2.931011190016115E-005
                    77  8.582045193250360E-006
                    78  6.633560656933590E-005
                    79 -6.858938216348558E-006
                    80  2.929384695905134E-004
                    81  1.249560483415260E-004
                    82 -2.777370212707069E-005
                    83 -8.343862602824626E-005
                    84  4.979051079354296E-005
                    85 -1.755648663215124E-005
                    86 -9.443827662346143E-005
                    87  1.519053090664364E-005
                    88  1.963043412099216E-006
                    89  1.595728355355790E-005
                    90 -5.607749294882943E-005
                    91 -1.133228064516570E-005
                    92 -2.658504828425329E-004
                    93 -9.163461399387802E-004
                    94  2.001794796149117E-004
                    95  1.168808394211928E-004
                    96 -1.296819066220577E-005
                    97 -2.303372890234264E-004
                    98  1.780652286428675E-004
                    99  4.360449062578497E-004
                   100  1.157410729809579E-004
                   101  1.377099319148315E-004
                   102 -1.329558150934232E-003
                   103 -2.931716441919136E-004
                   104  7.082822429386986E-004
                   105 -3.916497661213513E-005
                   106  3.257879782419575E-007
                   107 -1.141108039056614E-005
                   108  4.316077725208936E-005
                   109 -1.470351783013366E-005
                   110  1.029087607555245E-004
                   111 -1.217244196326518E-004
                   112  1.084439805837160E-005
                   113 -2.155551084726406E-004
                   114  7.084303772113334E-005
                   115  1.452753616197693E-005
                   116 -1.716447187806569E-005
                   117  1.513136438017778E-005
                   118  1.756238551906487E-005
                   119 -9.881526862682180E-006
                   120 -3.299427504931738E-005
                   121 -9.823274004562758E-006
                   122 -2.982561671502461E-004
                   123 -8.700191986478767E-004
                   124  7.539684132567638E-005
                   125  8.891469120870050E-004
                   126 -2.091943288296474E-004
                   127 -9.353807714793792E-005
                   128 -2.604761994140275E-005
                   129  3.629606399173671E-004
                   130 -2.347437060547118E-005
                   131  1.640412607622888E-004
                   132  1.783159634885928E-003
                   133  9.195019194630787E-005
                   134  2.831958227739966E-005
                   135  2.281887250234387E-005
                   136 -2.627474557688091E-006
                   137 -5.469660675033851E-006
                   138 -8.875242834593475E-006
                   139  6.912924656101426E-006
                   140  1.598120810536660E-004
                   141  2.590295437474080E-004
                   142  5.875673977434039E-006
                   143 -2.868449993509528E-004
                   144  2.376559170299389E-006
                   145 -2.448365661423233E-005
                   146 -1.949621806946904E-005
                   147  1.630306643051796E-006
                   148 -7.504933344264792E-006
                   149 -7.028649196453402E-007
                   150 -6.379116639125800E-005
                   151 -3.529116935574814E-006
                   152 -2.165751024646794E-004
                   153 -6.520425707082551E-004
                   154  8.332553664104514E-007
                   155  7.629496099881902E-004
                   156 -1.098641115624557E-004
                   157 -1.034215560321540E-004
                   158 -1.094160055043644E-005
                   159 -6.718620073658329E-006
                   160 -4.890221509374566E-005
                   161  4.043629617002559E-005
                   162  7.077301551334188E-005
                   163  1.397357359443005E-004
                   164  6.571666205304562E-004
                   165 -8.992092681619595E-007
                   166  8.466420548271530E-006
                   167  5.411294639927634E-006
                   168  8.861869161040995E-006
                   169  1.169333557049761E-005
                   170  8.180068655358301E-006
                   171 -9.399941050207810E-005
                   172 -8.889344466839637E-006
                   173 -9.760092607196641E-005
                   174  5.191461707311866E-006
                   175 -3.268502299168027E-006
                   176 -1.028144496840241E-005
                   177  4.260196368872412E-006
                   178 -8.696531289479277E-006
                   179 -5.748302167854379E-007
                   180 -2.873797392233445E-005
                   181 -6.860709808301958E-006
                   182 -1.627588237347968E-004
                   183 -5.037259019159600E-004
                   184  4.637640272590034E-005
                   185  2.159584809401190E-004
                   186 -3.374426978477342E-005
                   187 -8.765485200702783E-005
                   188 -2.919166502165898E-005
                   189  1.247855893304272E-004
                   190  8.764033758763044E-006
                   191  1.716120455588916E-004
                   192 -4.453120748984055E-004
                   193 -7.601978820846362E-005
                   194  9.406002709843823E-004
                   195 -3.443072128019484E-006
                   196  2.208974748149898E-006
                   197  1.776326111208923E-006
                   198  2.531422649989566E-007
                   199  4.982201676074346E-007
                   200 -1.272696416281910E-004
                   201 -1.394799262958023E-004
                   202 -6.439420392888037E-006
                   203  4.492351513828390E-005
                   204  1.584196412048159E-005
                   205  3.745009101727705E-006
                   206  8.278983558315428E-006
                   207  8.974800151024129E-007
                   208  1.095314945473230E-005
                   209  3.395169012474260E-007
                   210 -5.993011459775659E-006
                   211 -3.060442087294541E-006
                   212 -3.468537159320690E-004
                   213 -2.210214824154332E-005
                   214  1.590622393481962E-005
                   215  1.210651626240723E-004
                   216 -6.485387672643680E-006
                   217 -6.207579491855798E-004
                   218 -8.145876976541506E-004
                   219  4.939630154592655E-005
                   220  1.950925699654076E-004
                   221 -1.888042533957377E-004
                   222 -2.536591516138634E-004
                   223 -5.532021504994104E-004
                   224 -7.988250849669617E-005
                   225  7.136215438994255E-006
                   226  5.564906257498841E-005
                   227 -7.943035457745953E-005
                   228 -5.836685209577517E-004
                   229 -4.570130688171968E-005
                   230  1.247830927951985E-005
                   231 -6.871203781758439E-005
                   232  4.862511979003008E-005
                   233 -6.119092727489547E-004
                   234 -4.005733824507948E-008
                   235 -9.916150751227947E-007
                   236  7.364347851142444E-007
                   237 -8.238167923576570E-006
                   238 -4.440844333667181E-004
                   239  9.176050741094425E-006
                   240 -3.425732639303791E-006
                   241  8.495432801252539E-006
                   242 -4.967411965900533E-005
                   243  1.293617781864020E-004
                   244  3.294102317348090E-005
                   245  1.163070307026141E-006
                   246 -4.477309336470197E-008
 Sym= __2_A__
 Ene=  0.000000000000000E+000
 Spin= Alpha
 Occup=    2.00000000000000     
                     1 -2.100759733829013E-005
                     2 -1.580860807731511E-004
                     3  2.237046612686580E-003
                     4  3.810349677381510E-006
                     5  1.147412178328420E-003
                     6  2.014006852889575E-003
                     7 -1.181270978751889E-004
                     8 -2.690764292164848E-004
                     9 -1.310402058414163E-004
                    10  1.193551609496400E-004
                    11 -3.405976450768450E-005
                    12  6.011245227005082E-005
                    13  7.973495012025797E-005
                    14  4.545102910664657E-005
                    15 -6.780632579750395E-005
                    16  2.160676292021819E-007
                    17  2.944680135072122E-006
                    18  4.825326137911158E-005
                    19 -1.142305174225570E-005
                    20  7.902094903332636E-005
                    21  3.140448524191275E-005
                    22 -5.124273555386588E-006
                    23  1.230032198857266E-004
                    24 -2.982140898427485E-005
                    25 -7.408060963147798E-006
                    26  1.348469760672561E-004
                    27 -4.136403824359387E-005
                    28  3.116121727869244E-007
                    29 -3.692985088404899E-006
                    30  1.047976157307393E-004
                    31  3.373747039204932E-005
                    32   1.00082577331605     
                    33  8.917972539697651E-003
                    34  2.870587891523906E-003
                    35 -8.446463773166886E-003
                    36 -2.252798842006005E-003
                    37  5.732770718605495E-004
                    38  5.357526284574097E-006
                    39  6.336775791789469E-004
                    40 -2.725971571664234E-004
                    41  3.573773911027133E-005
                    42  3.232879419204024E-003
                    43 -1.703600052949797E-004
                    44  4.194326874612696E-005
                    45  3.103223450283276E-004
                    46 -7.386625483826494E-006
                    47 -1.351362103324652E-005
                    48  3.875050893691734E-004
                    49 -2.680746829050324E-005
                    50 -1.148113646408264E-003
                    51  1.023866138395406E-004
                    52  3.223532531968484E-005
                    53 -7.315306742830411E-005
                    54  4.158913683222077E-005
                    55  1.426896755562777E-006
                    56  2.927166443809095E-004
                    57 -1.357687348209055E-005
                    58  1.433563803780223E-006
                    59 -6.300672102962956E-006
                    60  8.747472739379785E-005
                    61  1.578465229780212E-005
                    62  1.587275752203126E-002
                    63 -1.881309082162361E-003
                    64 -3.279368407072221E-004
                    65  3.280682334742481E-003
                    66 -6.795578818460657E-005
                    67  5.094771804232455E-005
                    68  2.046238609559750E-004
                    69 -4.650028241763655E-005
                    70 -7.469473390012561E-007
                    71  6.216606539894200E-004
                    72  1.051822055799629E-004
                    73 -2.997306860280119E-006
                    74 -1.756736247898291E-003
                    75 -9.467189560975977E-006
                    76  1.735958876914221E-005
                    77  6.402698394575133E-006
                    78 -2.816174901433862E-005
                    79 -2.397496037249878E-006
                    80 -3.869493535190645E-004
                    81 -4.787638879370836E-004
                    82  4.567313097689599E-006
                    83  7.500055475142954E-004
                    84 -1.505149920041232E-005
                    85  4.942112165583183E-005
                    86  1.070287978767248E-004
                    87  1.728793101918172E-006
                    88 -1.992364756671229E-005
                    89 -9.585699487021670E-006
                    90 -3.122212735308090E-005
                    91  3.475854924190372E-006
                    92  1.804370043494176E-002
                    93 -1.847646081124123E-003
                    94 -3.101890486122310E-004
                    95  3.178395463042149E-003
                    96 -7.905693268350459E-005
                    97  5.402790868062381E-005
                    98 -2.099285089575326E-004
                    99 -1.962559428511347E-005
                   100  1.819419286642561E-005
                   101 -5.380607936229028E-004
                   102  1.435520096012100E-004
                   103 -4.119573860368288E-005
                   104  1.857861435897161E-003
                   105 -1.042556103275789E-005
                   106 -2.261560275774737E-005
                   107 -5.052835307640548E-006
                   108 -3.148122289859698E-005
                   109 -2.139046695243461E-006
                   110 -4.418296047359155E-004
                   111  4.951826900252618E-004
                   112 -3.172723786891621E-006
                   113  7.784308064305264E-004
                   114 -1.526140134919043E-005
                   115 -5.556677505022254E-005
                   116  1.063944108519572E-004
                   117 -2.241343662931600E-006
                   118  1.566985151437244E-005
                   119  3.935722790624856E-006
                   120 -3.063835832017406E-005
                   121  4.886378565054091E-006
                   122 -2.284454772479605E-006
                   123 -6.583093960957849E-004
                   124  2.466460632719726E-004
                   125 -3.112558304334665E-004
                   126 -2.434516262166382E-004
                   127  2.010376877717217E-005
                   128 -4.082554254084966E-005
                   129  5.873523630594609E-004
                   130 -6.104166207473831E-006
                   131  4.019423301147952E-005
                   132  5.483649811146688E-004
                   133  3.705102577326246E-006
                   134  3.023035749331026E-004
                   135 -1.738234007232247E-007
                   136  4.392527740109100E-005
                   137  2.772458748534111E-007
                   138 -3.393783653568486E-005
                   139 -1.226883046037111E-007
                   140  1.811785391293695E-004
                   141 -2.580850585287885E-004
                   142  3.531444652684640E-006
                   143 -2.580813890884426E-004
                   144  3.536229444948078E-006
                   145 -1.929665192697781E-005
                   146  1.312057558324200E-005
                   147 -3.438905376087521E-007
                   148 -1.266544444277397E-005
                   149 -1.877622753171163E-006
                   150 -2.563516056377513E-005
                   151 -1.110050268047392E-006
                   152  7.754671021182727E-005
                   153 -6.709109496487640E-004
                   154  2.479137286586877E-004
                   155 -3.317268010257589E-004
                   156 -2.358274330007974E-004
                   157  7.969970412074042E-006
                   158  4.407418823183568E-005
                   159  6.142612185781304E-004
                   160  6.538423293743136E-006