[Molden Format]
[Atoms] AU
  N     1    7     0.0000000000    0.0000000000   -4.2907334100        
  C     2    6     0.0000000000    0.0000000000   -1.7772236300        
  C     3    6     0.0000000000   -2.3389203600   -0.4111016300        
  C     4    6     0.0000000000    2.3389203600   -0.4111016300        
  C     5    6     0.0000000000   -2.2998668500    2.1639215300        
  C     6    6     0.0000000000    2.2998668500    2.1639215300        
  C     7    6     0.0000000000    0.0000000000    3.4755251800        
  H     8    1     0.0000000000   -1.1258104200   -4.9852639500        
  H     9    1     0.0000000000    1.4474705400   -5.1837012500        
  H    10    1     0.0000000000   -4.0745407300   -1.4447408500        
  H    11    1     0.0000000000    4.0745407300   -1.4447408500        
  H    12    1     0.0000000000   -4.0420632100    3.1963889500        
  H    13    1     0.0000000000    4.0420632100    3.1963889500        
  H    14    1     0.0000000000    0.0000000000    5.5020335600        
[5D]
[7F]
[GTO]
  1  0
   s    12 1.00
  0.114200D+05  0.172695D-04
  0.171200D+04  0.134411D-03
  0.389300D+03  0.694561D-03
  0.110000D+03  0.278531D-02
  0.355700D+02  0.863457D-02
  0.125400D+02  0.199805D-01
  0.464400D+01  0.262908D-01
  0.129300D+01 -0.243845D-01
  0.511800D+00 -0.924934D-01
  0.178700D+00 -0.339683D+00
  0.246240D-01  0.345111D+00
  0.112530D-01  0.752750D+00
   s    10 1.00
  0.114200D+05  0.523000D-03
  0.171200D+04  0.404500D-02
  0.389300D+03  0.207750D-01
  0.110000D+03  0.807269D-01
  0.355700D+02  0.233074D+00
  0.125400D+02  0.433501D+00
  0.464400D+01  0.347472D+00
  0.129300D+01  0.412620D-01
  0.511800D+00 -0.850799D-02
  0.178700D+00  0.238400D-02
   s    10 1.00
  0.114200D+05 -0.115000D-03
  0.171200D+04 -0.895000D-03
  0.389300D+03 -0.462400D-02
  0.110000D+03 -0.185280D-01
  0.355700D+02 -0.573390D-01
  0.125400D+02 -0.132076D+00
  0.464400D+01 -0.172510D+00
  0.129300D+01  0.151814D+00
  0.511800D+00  0.599944D+00
  0.178700D+00  0.387462D+00
   s     1 1.00
  0.129300D+01  0.100000D+01
   s     1 1.00
  0.178700D+00  0.100000D+01
   p     5 1.00
  0.266300D+02  0.146700D-01
  0.594800D+01  0.917640D-01
  0.174200D+01  0.298683D+00
  0.555000D+00  0.498487D+00
  0.172500D+00  0.337023D+00
   p     1 1.00
  0.174200D+01  0.100000D+01
   p     1 1.00
  0.555000D+00  0.100000D+01
   d     1 1.00
  0.165400D+01  0.100000D+01
   d     1 1.00
  0.469000D+00  0.100000D+01
   f     1 1.00
  0.109300D+01  0.100000D+01
  
  2  0
   s    10 1.00
  0.823600D+04  0.531000D-03
  0.123500D+04  0.410800D-02
  0.280800D+03  0.210870D-01
  0.792700D+02  0.818530D-01
  0.255900D+02  0.234817D+00
  0.899700D+01  0.434401D+00
  0.331900D+01  0.346129D+00
  0.905900D+00  0.393780D-01
  0.364300D+00 -0.898300D-02
  0.128500D+00  0.238500D-02
   s    10 1.00
  0.823600D+04 -0.113000D-03
  0.123500D+04 -0.878000D-03
  0.280800D+03 -0.454000D-02
  0.792700D+02 -0.181330D-01
  0.255900D+02 -0.557600D-01
  0.899700D+01 -0.126895D+00
  0.331900D+01 -0.170352D+00
  0.905900D+00  0.140382D+00
  0.364300D+00  0.598684D+00
  0.128500D+00  0.395389D+00
   s     1 1.00
  0.905900D+00  0.100000D+01
   s     1 1.00
  0.364300D+00  0.100000D+01
   p     5 1.00
  0.187100D+02  0.140310D-01
  0.413300D+01  0.868660D-01
  0.120000D+01  0.290216D+00
  0.382700D+00  0.501008D+00
  0.120900D+00  0.343406D+00
   p     1 1.00
  0.382700D+00  0.100000D+01
   p     1 1.00
  0.120900D+00  0.100000D+01
   d     1 1.00
  0.109700D+01  0.100000D+01
   d     1 1.00
  0.318000D+00  0.100000D+01
   f     1 1.00
  0.761000D+00  0.100000D+01
  
  3  0
   s    10 1.00
  0.823600D+04  0.531000D-03
  0.123500D+04  0.410800D-02
  0.280800D+03  0.210870D-01
  0.792700D+02  0.818530D-01
  0.255900D+02  0.234817D+00
  0.899700D+01  0.434401D+00
  0.331900D+01  0.346129D+00
  0.905900D+00  0.393780D-01
  0.364300D+00 -0.898300D-02
  0.128500D+00  0.238500D-02
   s    10 1.00
  0.823600D+04 -0.113000D-03
  0.123500D+04 -0.878000D-03
  0.280800D+03 -0.454000D-02
  0.792700D+02 -0.181330D-01
  0.255900D+02 -0.557600D-01
  0.899700D+01 -0.126895D+00
  0.331900D+01 -0.170352D+00
  0.905900D+00  0.140382D+00
  0.364300D+00  0.598684D+00
  0.128500D+00  0.395389D+00
   s     1 1.00
  0.905900D+00  0.100000D+01
   s     1 1.00
  0.364300D+00  0.100000D+01
   p     5 1.00
  0.187100D+02  0.140310D-01
  0.413300D+01  0.868660D-01
  0.120000D+01  0.290216D+00
  0.382700D+00  0.501008D+00
  0.120900D+00  0.343406D+00
   p     1 1.00
  0.382700D+00  0.100000D+01
   p     1 1.00
  0.120900D+00  0.100000D+01
   d     1 1.00
  0.109700D+01  0.100000D+01
   d     1 1.00
  0.318000D+00  0.100000D+01
   f     1 1.00
  0.761000D+00  0.100000D+01
  
  4  0
   s    10 1.00
  0.823600D+04  0.531000D-03
  0.123500D+04  0.410800D-02
  0.280800D+03  0.210870D-01
  0.792700D+02  0.818530D-01
  0.255900D+02  0.234817D+00
  0.899700D+01  0.434401D+00
  0.331900D+01  0.346129D+00
  0.905900D+00  0.393780D-01
  0.364300D+00 -0.898300D-02
  0.128500D+00  0.238500D-02
   s    10 1.00
  0.823600D+04 -0.113000D-03
  0.123500D+04 -0.878000D-03
  0.280800D+03 -0.454000D-02
  0.792700D+02 -0.181330D-01
  0.255900D+02 -0.557600D-01
  0.899700D+01 -0.126895D+00
  0.331900D+01 -0.170352D+00
  0.905900D+00  0.140382D+00
  0.364300D+00  0.598684D+00
  0.128500D+00  0.395389D+00
   s     1 1.00
  0.905900D+00  0.100000D+01
   s     1 1.00
  0.364300D+00  0.100000D+01
   p     5 1.00
  0.187100D+02  0.140310D-01
  0.413300D+01  0.868660D-01
  0.120000D+01  0.290216D+00
  0.382700D+00  0.501008D+00
  0.120900D+00  0.343406D+00
   p     1 1.00
  0.382700D+00  0.100000D+01
   p     1 1.00
  0.120900D+00  0.100000D+01
   d     1 1.00
  0.109700D+01  0.100000D+01
   d     1 1.00
  0.318000D+00  0.100000D+01
   f     1 1.00
  0.761000D+00  0.100000D+01
  
  5  0
   s    10 1.00
  0.823600D+04  0.531000D-03
  0.123500D+04  0.410800D-02
  0.280800D+03  0.210870D-01
  0.792700D+02  0.818530D-01
  0.255900D+02  0.234817D+00
  0.899700D+01  0.434401D+00
  0.331900D+01  0.346129D+00
  0.905900D+00  0.393780D-01
  0.364300D+00 -0.898300D-02
  0.128500D+00  0.238500D-02
   s    10 1.00
  0.823600D+04 -0.113000D-03
  0.123500D+04 -0.878000D-03
  0.280800D+03 -0.454000D-02
  0.792700D+02 -0.181330D-01
  0.255900D+02 -0.557600D-01
  0.899700D+01 -0.126895D+00
  0.331900D+01 -0.170352D+00
  0.905900D+00  0.140382D+00
  0.364300D+00  0.598684D+00
  0.128500D+00  0.395389D+00
   s     1 1.00
  0.905900D+00  0.100000D+01
   s     1 1.00
  0.364300D+00  0.100000D+01
   p     5 1.00
  0.187100D+02  0.140310D-01
  0.413300D+01  0.868660D-01
  0.120000D+01  0.290216D+00
  0.382700D+00  0.501008D+00
  0.120900D+00  0.343406D+00
   p     1 1.00
  0.382700D+00  0.100000D+01
   p     1 1.00
  0.120900D+00  0.100000D+01
   d     1 1.00
  0.109700D+01  0.100000D+01
   d     1 1.00
  0.318000D+00  0.100000D+01
   f     1 1.00
  0.761000D+00  0.100000D+01
  
  6  0
   s    10 1.00
  0.823600D+04  0.531000D-03
  0.123500D+04  0.410800D-02
  0.280800D+03  0.210870D-01
  0.792700D+02  0.818530D-01
  0.255900D+02  0.234817D+00
  0.899700D+01  0.434401D+00
  0.331900D+01  0.346129D+00
  0.905900D+00  0.393780D-01
  0.364300D+00 -0.898300D-02
  0.128500D+00  0.238500D-02
   s    10 1.00
  0.823600D+04 -0.113000D-03
  0.123500D+04 -0.878000D-03
  0.280800D+03 -0.454000D-02
  0.792700D+02 -0.181330D-01
  0.255900D+02 -0.557600D-01
  0.899700D+01 -0.126895D+00
  0.331900D+01 -0.170352D+00
  0.905900D+00  0.140382D+00
  0.364300D+00  0.598684D+00
  0.128500D+00  0.395389D+00
   s     1 1.00
  0.905900D+00  0.100000D+01
   s     1 1.00
  0.364300D+00  0.100000D+01
   p     5 1.00
  0.187100D+02  0.140310D-01
  0.413300D+01  0.868660D-01
  0.120000D+01  0.290216D+00
  0.382700D+00  0.501008D+00
  0.120900D+00  0.343406D+00
   p     1 1.00
  0.382700D+00  0.100000D+01
   p     1 1.00
  0.120900D+00  0.100000D+01
   d     1 1.00
  0.109700D+01  0.100000D+01
   d     1 1.00
  0.318000D+00  0.100000D+01
   f     1 1.00
  0.761000D+00  0.100000D+01
  
  7  0
   s    10 1.00
  0.823600D+04  0.531000D-03
  0.123500D+04  0.410800D-02
  0.280800D+03  0.210870D-01
  0.792700D+02  0.818530D-01
  0.255900D+02  0.234817D+00
  0.899700D+01  0.434401D+00
  0.331900D+01  0.346129D+00
  0.905900D+00  0.393780D-01
  0.364300D+00 -0.898300D-02
  0.128500D+00  0.238500D-02
   s    10 1.00
  0.823600D+04 -0.113000D-03
  0.123500D+04 -0.878000D-03
  0.280800D+03 -0.454000D-02
  0.792700D+02 -0.181330D-01
  0.255900D+02 -0.557600D-01
  0.899700D+01 -0.126895D+00
  0.331900D+01 -0.170352D+00
  0.905900D+00  0.140382D+00
  0.364300D+00  0.598684D+00
  0.128500D+00  0.395389D+00
   s     1 1.00
  0.905900D+00  0.100000D+01
   s     1 1.00
  0.364300D+00  0.100000D+01
   p     5 1.00
  0.187100D+02  0.140310D-01
  0.413300D+01  0.868660D-01
  0.120000D+01  0.290216D+00
  0.382700D+00  0.501008D+00
  0.120900D+00  0.343406D+00
   p     1 1.00
  0.382700D+00  0.100000D+01
   p     1 1.00
  0.120900D+00  0.100000D+01
   d     1 1.00
  0.109700D+01  0.100000D+01
   d     1 1.00
  0.318000D+00  0.100000D+01
   f     1 1.00
  0.761000D+00  0.100000D+01
  
  8  0
   s     4 1.00
  0.130100D+02  0.196850D-01
  0.196200D+01  0.137977D+00
  0.444600D+00  0.478148D+00
  0.122000D+00  0.501240D+00
   s     1 1.00
  0.122000D+00  0.100000D+01
   p     1 1.00
  0.727000D+00  0.100000D+01
  
  9  0
   s     4 1.00
  0.130100D+02  0.196850D-01
  0.196200D+01  0.137977D+00
  0.444600D+00  0.478148D+00
  0.122000D+00  0.501240D+00
   s     1 1.00
  0.122000D+00  0.100000D+01
   p     1 1.00
  0.727000D+00  0.100000D+01
  
 10  0
   s     4 1.00
  0.130100D+02  0.196850D-01
  0.196200D+01  0.137977D+00
  0.444600D+00  0.478148D+00
  0.122000D+00  0.501240D+00
   s     1 1.00
  0.122000D+00  0.100000D+01
   p     1 1.00
  0.727000D+00  0.100000D+01
  
 11  0
   s     4 1.00
  0.130100D+02  0.196850D-01
  0.196200D+01  0.137977D+00
  0.444600D+00  0.478148D+00
  0.122000D+00  0.501240D+00
   s     1 1.00
  0.122000D+00  0.100000D+01
   p     1 1.00
  0.727000D+00  0.100000D+01
  
 12  0
   s     4 1.00
  0.130100D+02  0.196850D-01
  0.196200D+01  0.137977D+00
  0.444600D+00  0.478148D+00
  0.122000D+00  0.501240D+00
   s     1 1.00
  0.122000D+00  0.100000D+01
   p     1 1.00
  0.727000D+00  0.100000D+01
  
 13  0
   s     4 1.00
  0.130100D+02  0.196850D-01
  0.196200D+01  0.137977D+00
  0.444600D+00  0.478148D+00
  0.122000D+00  0.501240D+00
   s     1 1.00
  0.122000D+00  0.100000D+01
   p     1 1.00
  0.727000D+00  0.100000D+01
  
 14  0
   s     4 1.00
  0.130100D+02  0.196850D-01
  0.196200D+01  0.137977D+00
  0.444600D+00  0.478148D+00
  0.122000D+00  0.501240D+00
   s     1 1.00
  0.122000D+00  0.100000D+01
   p     1 1.00
  0.727000D+00  0.100000D+01
  
[MO]
 Sym= __1_a__
 Ene=  0.000000000000000E+000
 Spin= Alpha
 Occup=    2.00000000000000     
                     1  5.850145005975730E-005
                     2  0.997166757802579     
                     3  1.499789905578160E-002
                     4  3.108838026757920E-003
                     5 -1.645520018635680E-003
                     6 -3.141551384013540E-011
                     7 -1.033546968989340E-003
                     8  3.480014586653830E-003
                     9  8.475333473423930E-012
                    10 -5.170714151691320E-004
                    11 -5.558462523408420E-004
                    12  1.142223680629520E-011
                    13  3.274180031340840E-004
                    14  2.479418270451310E-004
                    15  1.951494886177233E-004
                    16 -1.160562381070290E-012
                    17  5.921038885084270E-004
                    18 -8.560768092441540E-004
                    19 -9.044700353601040E-013
                    20  2.360979634558797E-004
                    21 -1.003444930113920E-011
                    22 -4.156382357226060E-004
                    23  4.595393166213120E-004
                    24 -6.024828247755380E-012
                    25 -5.268649552914110E-004
                    26 -1.266568799868755E-012
                    27 -5.725905129616214E-005
                    28  5.894761857865380E-004
                    29  6.608980537573810E-013
                    30 -1.522049984444798E-012
                    31  1.377134690732246E-004
                    32 -3.858998554817440E-004
                    33  3.239071024486970E-003
                    34  1.975832110725560E-004
                    35 -3.849224585421410E-004
                    36  1.473235620452690E-011
                    37  3.708935838593940E-004
                    38 -8.311441533390369E-003
                    39 -1.496898733837060E-011
                    40 -1.381677718950650E-004
                    41  4.952740069459100E-004
                    42 -3.527170655615940E-013
                    43  3.202015122626400E-004
                    44  2.812156991062860E-003
                    45  3.581428322566571E-004
                    46  9.383333188588730E-013
                    47  3.366030765211690E-005
                    48  1.703855273785722E-004
                    49 -1.513352373579210E-013
                    50 -2.159018367057247E-004
                    51 -5.413595162438830E-012
                    52 -7.526445750565460E-004
                    53 -6.244130307058560E-004
                    54  5.643611526428760E-012
                    55 -2.028145361543209E-004
                    56 -2.925550122726155E-012
                    57  2.560717275959078E-005
                    58  1.754672428190732E-004
                    59  2.292118372208460E-012
                    60 -3.330525190824402E-012
                    61 -5.452229021878359E-006
                    62 -1.437590269899610E-004
                    63 -1.813135292567280E-003
                    64  1.120978140161610E-004
                    65  3.941065024905190E-006
                    66  1.705284712904830E-013
                    67 -1.088312659189780E-003
                    68  1.430801541725230E-003
                    69  6.592384110946220E-012
                    70 -3.105900255473320E-004
                    71  6.186560458706920E-004
                    72 -4.367214321954350E-012
                    73  1.136831614597330E-004
                    74 -6.807498589347349E-005
                    75  1.001394917918016E-004
                    76  8.660676723450780E-013
                    77 -7.732193679295890E-006
                    78  5.078642840499420E-005
                    79 -2.915786065740300E-012
                    80 -9.712756576808264E-006
                    81 -3.691347893447730E-012
                    82  3.250825129845880E-004
                    83 -1.368998479758094E-006
                    84  5.116565924175450E-012
                    85 -9.062285670575391E-005
                    86 -3.511221149640359E-014
                    87 -4.056038542101001E-005
                    88  2.291480170561780E-005
                    89  1.259011887368720E-012
                    90  2.139076865507022E-012
                    91  1.702205884704315E-006
                    92 -1.594283902376480E-004
                    93 -1.608596479608190E-003
                    94 -1.446058560386960E-005
                    95  8.572730041912160E-004
                    96  2.473819717611910E-012
                    97  8.510207201028670E-004
                    98  1.091528964750260E-003
                    99  2.501914717431800E-014
                   100 -2.820825205878150E-004
                   101  6.781105705353460E-004
                   102 -1.943435141408630E-012
                   103 -3.275099374757400E-005
                   104  5.202275748959760E-004
                   105  1.200752155204747E-004
                   106 -1.026665797064850E-012
                   107  5.129495181398700E-005
                   108  3.131438954081720E-005
                   109 -9.413046641811859E-013
                   110 -3.428576092344409E-004
                   111  4.763235568745210E-012
                   112 -3.811646931687360E-004
                   113 -2.265744721081240E-004
                   114 -1.583380250642060E-012
                   115 -1.400600006961334E-004
                   116  4.796217355809431E-013
                   117  6.696059104919054E-005
                   118  3.742322002444320E-005
                   119  1.274348375817520E-012
                   120  9.331085808943429E-013
                   121 -5.345793898015748E-006
                   122 -1.180394619152810E-004
                   123  2.463449628816500E-004
                   124  1.119075325104450E-004
                   125 -3.130511243029070E-005
                   126 -3.039233027195830E-012
                   127  7.282819909888610E-005
                   128 -1.000635968787030E-003
                   129  5.414197457839340E-012
                   130 -4.461282302578710E-005
                   131  3.221631024931630E-004
                   132  1.129493411514040E-011
                   133 -1.806909440045680E-004
                   134  1.764718841050090E-004
                   135 -1.430663783100129E-005
                   136  4.945842974730930E-013
                   137  3.965404851532620E-006
                   138  6.398587962491040E-006
                   139  3.055097488723840E-013
                   140 -1.086552511703590E-004
                   141  5.904747814670940E-012
                   142  1.516307109265320E-004
                   143  1.126485427184222E-005
                   144  2.299817820487240E-012
                   145 -2.970176044792535E-005
                   146 -1.329177211099007E-012
                   147  9.409579300559021E-006
                   148 -3.987595529994180E-006
                   149 -1.875770248354910E-012
                   150  2.432050918166495E-012
                   151 -1.241229289161240E-007
                   152 -1.198545032494760E-004
                   153  1.722539234272970E-004
                   154  1.300703893945600E-004
                   155  8.134844769780721E-005
                   156 -5.002955740729470E-013
                   157 -5.318970885776630E-005
                   158 -9.197929939687060E-004
                   159 -2.224751442496460E-012
                   160  7.053161556794330E-005
                   161  3.500081641870490E-004
                   162 -8.367833165804820E-013
                   163  2.060423755847270E-005
                   164  7.188337260121540E-004
                   165 -3.110496089783212E-005
                   166  2.708235641194130E-016
                   167  3.624755998987780E-006
                   168  4.711714338131420E-006
                   169  2.946052370279470E-012
                   170 -1.732304868212797E-004
                   171  3.121991458696210E-012
                   172 -2.540367174616470E-004
                   173  1.535884192184260E-005
                   174 -4.881748279866050E-012
                   175 -5.631651689191850E-005
                   176  7.735121340502960E-013
                   177 -1.416337575196625E-006
                   178 -9.547700175517560E-006
                   179  2.278953539341890E-012
                   180  1.087171030271553E-012
                   181  3.912065924875597E-006
                   182 -9.898721137915199E-005
                   183 -2.461188027670570E-004
                   184  1.803129223840970E-005
                   185  1.139700790217210E-004
                   186 -4.696139160845020E-012
                   187 -1.002585582526430E-005
                   188 -3.609011002135730E-005
                   189  1.064750438027380E-012
                   190 -3.550148966988110E-005
                   191 -3.162651885773730E-005
                   192 -1.264374570804200E-011
                   193 -3.076955228172780E-004
                   194  2.756131499256950E-004
                   195  2.395681622909729E-005
                   196 -1.145659560801090E-012
                   197 -1.776599042954050E-006
                   198  1.069162733785076E-005
                   199  1.207474585657350E-012
                   200  5.758868656373986E-005
                   201  9.158979652191259E-012
                   202  2.697893208053380E-005
                   203  3.342912915494540E-005
                   204  4.525496812188410E-012
                   205 -1.699843170509219E-005
                   206  2.305037560772200E-012
                   207  4.181805618318156E-007
                   208  1.170584404760106E-005
                   209  2.298381458261650E-013
                   210 -7.521826966032860E-013
                   211  4.452150169668958E-007
                   212  7.133670533568690E-003
                   213 -4.548701497775330E-003
                   214 -3.522504865355150E-012
                   215  1.598907729360830E-004
                   216  1.247071162842360E-004
                   217  5.608851765819850E-003
                   218 -3.030458537699610E-003
                   219  7.539303591654920E-014
                   220 -2.656836152035900E-004
                   221  3.653185605099280E-004
                   222 -8.308989996157759E-004
                   223  3.444456125200150E-004
                   224 -3.385667007226290E-012
                   225 -4.435389288894340E-005
                   226 -3.944115621727580E-005
                   227 -9.533197772421250E-004
                   228  4.048288899746570E-004
                   229 -8.691543685307580E-013
                   230  1.504092515596080E-005
                   231 -8.986385815559060E-005
                   232 -3.320557359323140E-004
                   233 -2.252906768195610E-004
                   234 -1.140506485666840E-012
                   235 -8.833489190223360E-006
                   236  9.427256515997909E-006
                   237 -2.243175630064930E-004
                   238 -3.109926008548980E-004
                   239 -1.650528851224550E-012
                   240  2.767762991349060E-006
                   241  1.434674015723670E-005
                   242  9.004506954220610E-005
                   243 -2.022738781130000E-004
                   244 -2.225922757657040E-012
                   245  1.551587267678650E-006
                   246  6.541009194177830E-006
 Sym= __2_a__
 Ene=  0.000000000000000E+000
 Spin= Alpha
 Occup=    2.00000000000000     
                     1 -3.115503970096500E-005
                     2 -2.158999937150600E-004
                     3  1.488769705446690E-003
                     4  9.130672599725831E-005
                     5  1.668934982107970E-003
                     6  1.494562703129960E-011
                     7  8.013684221434399E-005
                     8  2.922261415492250E-003
                     9 -1.091959695977300E-011
                    10  3.100007351091090E-005
                    11 -4.638343710926900E-005
                    12 -6.278942145927720E-012
                    13 -7.511062335407930E-006
                    14 -3.166864685726870E-004
                    15  1.999001339262457E-005
                    16 -2.250432102542220E-012
                    17 -1.439107441418610E-005
                    18  6.264947055957501E-005
                    19  9.558644894815389E-013
                    20 -4.226770743975933E-004
                    21  4.412147341123380E-013
                    22 -6.276104889506521E-005
                    23 -4.178338778813340E-004
                    24 -4.765766284431000E-013
                    25  1.668832933578998E-004
                    26 -9.953384643848907E-014
                    27  3.527258270028850E-005
                    28 -1.425534874185738E-005
                    29 -8.992079763410340E-013
                    30  1.402240879290240E-012
                    31  1.099911971628891E-005
                    32   1.00105450644292     
                    33  9.158004703453730E-003
                    34  2.675638733333270E-003
                    35 -7.764473531310550E-003
                    36  3.003357999556550E-012
                    37 -6.811594515466060E-006
                    38 -3.904632453423730E-003
                    39  9.822724437767410E-012
                    40  1.691137797801570E-005
                    41  1.070866811131510E-003
                    42 -2.496243509855530E-011
                    43 -6.245248412171600E-005
                    44  4.633992143940160E-003
                    45  4.522297279963120E-004
                    46  2.338324506457780E-012
                    47  4.988336748138800E-006
                    48 -4.340370430245620E-004
                    49  6.120351337786150E-013
                    50  5.427126323845181E-004
                    51 -5.723163041667750E-012
                    52 -2.739148121283440E-005
                    53  9.556003002226060E-004
                    54  2.449736015480620E-012
                    55  3.676112641161977E-004
                    56  9.005020542398461E-013
                    57 -6.078006546530897E-006
                    58 -2.155734305354560E-004
                    59  8.095753480693410E-014
                    60  3.163919290515342E-012
                    61 -1.155885622342985E-006
                    62  7.248959273607300E-003
                    63 -2.059865627066270E-003
                    64 -2.793942868402050E-004
                    65  3.087627349661220E-003
                    66 -1.692420952886950E-011
                    67  1.435801190854300E-004
                    68 -7.537644717071570E-005
                    69  1.005898880784190E-011
                    70  5.914087287328310E-004
                    71  2.588953592144900E-005
                    72  3.332055354356860E-011
                    73 -2.204061347340790E-003
                    74  1.085121791044180E-004
                    75 -1.707335991993500E-005
                    76 -3.212457654167980E-012
                    77  1.328574034463210E-005
                    78  2.622009989932280E-005
                    79 -5.565656036466520E-014
                    80  7.808348890274120E-004
                    81  1.413577358600310E-011
                    82 -4.356852020745560E-004
                    83 -6.374458464572340E-006
                    84  2.340079991398910E-012
                    85  7.277149263101942E-005
                    86  7.020164743120295E-013
                    87  5.116400908333989E-005
                    88 -1.243534434153216E-004
                    89  4.144221389454610E-013
                    90 -4.693666898959492E-013
                    91  5.120589039030997E-005
                    92  7.243207065323190E-003
                    93 -2.046476522731190E-003
                    94 -2.822921213899650E-004
                    95  3.097958587106360E-003
                    96  1.992943436066430E-012
                    97 -1.419738584571740E-004
                    98 -8.052545885275570E-005
                    99 -4.513343976886710E-012
                   100 -6.073283167182560E-004
                   101  4.565418736726490E-005
                   102  8.617219200083880E-012
                   103  2.165904659919930E-003
                   104  9.953191157888531E-006
                   105 -1.865497223228251E-005
                   106 -2.904255037622560E-012
                   107 -1.359161968396670E-005
                   108  2.555574367168680E-005
                   109  2.519087501418770E-014
                   110  7.759409894337669E-004
                   111 -6.795008285909770E-012
                   112  4.338864093520730E-004
                   113 -9.882592805573460E-006
                   114 -1.579214106942100E-012
                   115  7.206791342521975E-005
                   116  8.530181086709790E-013
                   117 -4.435722785357626E-005
                   118 -1.261365463823682E-004
                   119 -1.943515766357090E-012
                   120  2.195809869028164E-013
                   121 -4.998605393740000E-005
                   122 -2.478512302983520E-004
                   123 -8.109593770949730E-004
                   124  2.241880775520820E-004
                   125 -8.721729746840080E-005
                   126  4.995378105640550E-012
                   127 -2.514701648443610E-005
                   128 -2.103976815685370E-004
                   129 -1.072907128741140E-011
                   130  3.023110456400020E-006
                   131  5.390416679331140E-004
                   132 -2.162735968941690E-011
                   133  3.472797136976610E-004
                   134  8.311211471169270E-004
                   135 -1.422700772284741E-005
                   136 -4.438974615151340E-013
                   137  5.119191023180420E-005
                   138  1.355617360587260E-005
                   139  2.609356282506250E-012
                   140 -3.034387810015555E-004
                   141  6.926620983830260E-012
                   142 -2.223257654570980E-004
                   143 -1.528360721691492E-005
                   144 -9.784077188385810E-012
                   145 -5.045202423108880E-007
                   146 -1.448633509219263E-012
                   147 -4.170548981969441E-005
                   148 -3.888000964175940E-005
                   149 -1.328652727971990E-012
                   150 -3.770269078108288E-013
                   151 -6.114700162853631E-006
                   152 -2.448375935108810E-004
                   153 -7.948955633030970E-004
                   154  2.284531020983120E-004
                   155 -1.149820386531400E-004
                   156 -2.008518505368440E-011
                   157  2.333198058720100E-005
                   158 -2.136577385920240E-004
                   159  9.545161835670680E-012
                   160  5.745281786799580E-006