[Molden Format]
[Atoms] AU
  N     1    7     0.0000000000    0.0000000000   -4.2907334100        
  C     2    6     0.0000000000    0.0000000000   -1.7772236300        
  C     3    6     0.0000000000   -2.3389203600   -0.4111016300        
  C     4    6     0.0000000000    2.3389203600   -0.4111016300        
  C     5    6     0.0000000000   -2.2998668500    2.1639215300        
  C     6    6     0.0000000000    2.2998668500    2.1639215300        
  C     7    6     0.0000000000    0.0000000000    3.4755251800        
  H     8    1     0.0000000000   -1.1258104200   -4.9852639500        
  H     9    1     0.0000000000    1.4474705400   -5.1837012500        
  H    10    1     0.0000000000   -4.0745407300   -1.4447408500        
  H    11    1     0.0000000000    4.0745407300   -1.4447408500        
  H    12    1     0.0000000000   -4.0420632100    3.1963889500        
  H    13    1     0.0000000000    4.0420632100    3.1963889500        
  H    14    1     0.0000000000    0.0000000000    5.5020335600        
[5D]
[7F]
[GTO]
  1  0
   s    12 1.00
  0.114200D+05  0.172695D-04
  0.171200D+04  0.134411D-03
  0.389300D+03  0.694561D-03
  0.110000D+03  0.278531D-02
  0.355700D+02  0.863457D-02
  0.125400D+02  0.199805D-01
  0.464400D+01  0.262908D-01
  0.129300D+01 -0.243845D-01
  0.511800D+00 -0.924934D-01
  0.178700D+00 -0.339683D+00
  0.246240D-01  0.345111D+00
  0.112530D-01  0.752750D+00
   s    10 1.00
  0.114200D+05  0.523000D-03
  0.171200D+04  0.404500D-02
  0.389300D+03  0.207750D-01
  0.110000D+03  0.807269D-01
  0.355700D+02  0.233074D+00
  0.125400D+02  0.433501D+00
  0.464400D+01  0.347472D+00
  0.129300D+01  0.412620D-01
  0.511800D+00 -0.850799D-02
  0.178700D+00  0.238400D-02
   s    10 1.00
  0.114200D+05 -0.115000D-03
  0.171200D+04 -0.895000D-03
  0.389300D+03 -0.462400D-02
  0.110000D+03 -0.185280D-01
  0.355700D+02 -0.573390D-01
  0.125400D+02 -0.132076D+00
  0.464400D+01 -0.172510D+00
  0.129300D+01  0.151814D+00
  0.511800D+00  0.599944D+00
  0.178700D+00  0.387462D+00
   s     1 1.00
  0.129300D+01  0.100000D+01
   s     1 1.00
  0.178700D+00  0.100000D+01
   p     5 1.00
  0.266300D+02  0.146700D-01
  0.594800D+01  0.917640D-01
  0.174200D+01  0.298683D+00
  0.555000D+00  0.498487D+00
  0.172500D+00  0.337023D+00
   p     1 1.00
  0.174200D+01  0.100000D+01
   p     1 1.00
  0.555000D+00  0.100000D+01
   d     1 1.00
  0.165400D+01  0.100000D+01
   d     1 1.00
  0.469000D+00  0.100000D+01
   f     1 1.00
  0.109300D+01  0.100000D+01
  
  2  0
   s    10 1.00
  0.823600D+04  0.531000D-03
  0.123500D+04  0.410800D-02
  0.280800D+03  0.210870D-01
  0.792700D+02  0.818530D-01
  0.255900D+02  0.234817D+00
  0.899700D+01  0.434401D+00
  0.331900D+01  0.346129D+00
  0.905900D+00  0.393780D-01
  0.364300D+00 -0.898300D-02
  0.128500D+00  0.238500D-02
   s    10 1.00
  0.823600D+04 -0.113000D-03
  0.123500D+04 -0.878000D-03
  0.280800D+03 -0.454000D-02
  0.792700D+02 -0.181330D-01
  0.255900D+02 -0.557600D-01
  0.899700D+01 -0.126895D+00
  0.331900D+01 -0.170352D+00
  0.905900D+00  0.140382D+00
  0.364300D+00  0.598684D+00
  0.128500D+00  0.395389D+00
   s     1 1.00
  0.905900D+00  0.100000D+01
   s     1 1.00
  0.364300D+00  0.100000D+01
   p     5 1.00
  0.187100D+02  0.140310D-01
  0.413300D+01  0.868660D-01
  0.120000D+01  0.290216D+00
  0.382700D+00  0.501008D+00
  0.120900D+00  0.343406D+00
   p     1 1.00
  0.382700D+00  0.100000D+01
   p     1 1.00
  0.120900D+00  0.100000D+01
   d     1 1.00
  0.109700D+01  0.100000D+01
   d     1 1.00
  0.318000D+00  0.100000D+01
   f     1 1.00
  0.761000D+00  0.100000D+01
  
  3  0
   s    10 1.00
  0.823600D+04  0.531000D-03
  0.123500D+04  0.410800D-02
  0.280800D+03  0.210870D-01
  0.792700D+02  0.818530D-01
  0.255900D+02  0.234817D+00
  0.899700D+01  0.434401D+00
  0.331900D+01  0.346129D+00
  0.905900D+00  0.393780D-01
  0.364300D+00 -0.898300D-02
  0.128500D+00  0.238500D-02
   s    10 1.00
  0.823600D+04 -0.113000D-03
  0.123500D+04 -0.878000D-03
  0.280800D+03 -0.454000D-02
  0.792700D+02 -0.181330D-01
  0.255900D+02 -0.557600D-01
  0.899700D+01 -0.126895D+00
  0.331900D+01 -0.170352D+00
  0.905900D+00  0.140382D+00
  0.364300D+00  0.598684D+00
  0.128500D+00  0.395389D+00
   s     1 1.00
  0.905900D+00  0.100000D+01
   s     1 1.00
  0.364300D+00  0.100000D+01
   p     5 1.00
  0.187100D+02  0.140310D-01
  0.413300D+01  0.868660D-01
  0.120000D+01  0.290216D+00
  0.382700D+00  0.501008D+00
  0.120900D+00  0.343406D+00
   p     1 1.00
  0.382700D+00  0.100000D+01
   p     1 1.00
  0.120900D+00  0.100000D+01
   d     1 1.00
  0.109700D+01  0.100000D+01
   d     1 1.00
  0.318000D+00  0.100000D+01
   f     1 1.00
  0.761000D+00  0.100000D+01
  
  4  0
   s    10 1.00
  0.823600D+04  0.531000D-03
  0.123500D+04  0.410800D-02
  0.280800D+03  0.210870D-01
  0.792700D+02  0.818530D-01
  0.255900D+02  0.234817D+00
  0.899700D+01  0.434401D+00
  0.331900D+01  0.346129D+00
  0.905900D+00  0.393780D-01
  0.364300D+00 -0.898300D-02
  0.128500D+00  0.238500D-02
   s    10 1.00
  0.823600D+04 -0.113000D-03
  0.123500D+04 -0.878000D-03
  0.280800D+03 -0.454000D-02
  0.792700D+02 -0.181330D-01
  0.255900D+02 -0.557600D-01
  0.899700D+01 -0.126895D+00
  0.331900D+01 -0.170352D+00
  0.905900D+00  0.140382D+00
  0.364300D+00  0.598684D+00
  0.128500D+00  0.395389D+00
   s     1 1.00
  0.905900D+00  0.100000D+01
   s     1 1.00
  0.364300D+00  0.100000D+01
   p     5 1.00
  0.187100D+02  0.140310D-01
  0.413300D+01  0.868660D-01
  0.120000D+01  0.290216D+00
  0.382700D+00  0.501008D+00
  0.120900D+00  0.343406D+00
   p     1 1.00
  0.382700D+00  0.100000D+01
   p     1 1.00
  0.120900D+00  0.100000D+01
   d     1 1.00
  0.109700D+01  0.100000D+01
   d     1 1.00
  0.318000D+00  0.100000D+01
   f     1 1.00
  0.761000D+00  0.100000D+01
  
  5  0
   s    10 1.00
  0.823600D+04  0.531000D-03
  0.123500D+04  0.410800D-02
  0.280800D+03  0.210870D-01
  0.792700D+02  0.818530D-01
  0.255900D+02  0.234817D+00
  0.899700D+01  0.434401D+00
  0.331900D+01  0.346129D+00
  0.905900D+00  0.393780D-01
  0.364300D+00 -0.898300D-02
  0.128500D+00  0.238500D-02
   s    10 1.00
  0.823600D+04 -0.113000D-03
  0.123500D+04 -0.878000D-03
  0.280800D+03 -0.454000D-02
  0.792700D+02 -0.181330D-01
  0.255900D+02 -0.557600D-01
  0.899700D+01 -0.126895D+00
  0.331900D+01 -0.170352D+00
  0.905900D+00  0.140382D+00
  0.364300D+00  0.598684D+00
  0.128500D+00  0.395389D+00
   s     1 1.00
  0.905900D+00  0.100000D+01
   s     1 1.00
  0.364300D+00  0.100000D+01
   p     5 1.00
  0.187100D+02  0.140310D-01
  0.413300D+01  0.868660D-01
  0.120000D+01  0.290216D+00
  0.382700D+00  0.501008D+00
  0.120900D+00  0.343406D+00
   p     1 1.00
  0.382700D+00  0.100000D+01
   p     1 1.00
  0.120900D+00  0.100000D+01
   d     1 1.00
  0.109700D+01  0.100000D+01
   d     1 1.00
  0.318000D+00  0.100000D+01
   f     1 1.00
  0.761000D+00  0.100000D+01
  
  6  0
   s    10 1.00
  0.823600D+04  0.531000D-03
  0.123500D+04  0.410800D-02
  0.280800D+03  0.210870D-01
  0.792700D+02  0.818530D-01
  0.255900D+02  0.234817D+00
  0.899700D+01  0.434401D+00
  0.331900D+01  0.346129D+00
  0.905900D+00  0.393780D-01
  0.364300D+00 -0.898300D-02
  0.128500D+00  0.238500D-02
   s    10 1.00
  0.823600D+04 -0.113000D-03
  0.123500D+04 -0.878000D-03
  0.280800D+03 -0.454000D-02
  0.792700D+02 -0.181330D-01
  0.255900D+02 -0.557600D-01
  0.899700D+01 -0.126895D+00
  0.331900D+01 -0.170352D+00
  0.905900D+00  0.140382D+00
  0.364300D+00  0.598684D+00
  0.128500D+00  0.395389D+00
   s     1 1.00
  0.905900D+00  0.100000D+01
   s     1 1.00
  0.364300D+00  0.100000D+01
   p     5 1.00
  0.187100D+02  0.140310D-01
  0.413300D+01  0.868660D-01
  0.120000D+01  0.290216D+00
  0.382700D+00  0.501008D+00
  0.120900D+00  0.343406D+00
   p     1 1.00
  0.382700D+00  0.100000D+01
   p     1 1.00
  0.120900D+00  0.100000D+01
   d     1 1.00
  0.109700D+01  0.100000D+01
   d     1 1.00
  0.318000D+00  0.100000D+01
   f     1 1.00
  0.761000D+00  0.100000D+01
  
  7  0
   s    10 1.00
  0.823600D+04  0.531000D-03
  0.123500D+04  0.410800D-02
  0.280800D+03  0.210870D-01
  0.792700D+02  0.818530D-01
  0.255900D+02  0.234817D+00
  0.899700D+01  0.434401D+00
  0.331900D+01  0.346129D+00
  0.905900D+00  0.393780D-01
  0.364300D+00 -0.898300D-02
  0.128500D+00  0.238500D-02
   s    10 1.00
  0.823600D+04 -0.113000D-03
  0.123500D+04 -0.878000D-03
  0.280800D+03 -0.454000D-02
  0.792700D+02 -0.181330D-01
  0.255900D+02 -0.557600D-01
  0.899700D+01 -0.126895D+00
  0.331900D+01 -0.170352D+00
  0.905900D+00  0.140382D+00
  0.364300D+00  0.598684D+00
  0.128500D+00  0.395389D+00
   s     1 1.00
  0.905900D+00  0.100000D+01
   s     1 1.00
  0.364300D+00  0.100000D+01
   p     5 1.00
  0.187100D+02  0.140310D-01
  0.413300D+01  0.868660D-01
  0.120000D+01  0.290216D+00
  0.382700D+00  0.501008D+00
  0.120900D+00  0.343406D+00
   p     1 1.00
  0.382700D+00  0.100000D+01
   p     1 1.00
  0.120900D+00  0.100000D+01
   d     1 1.00
  0.109700D+01  0.100000D+01
   d     1 1.00
  0.318000D+00  0.100000D+01
   f     1 1.00
  0.761000D+00  0.100000D+01
  
  8  0
   s     4 1.00
  0.130100D+02  0.196850D-01
  0.196200D+01  0.137977D+00
  0.444600D+00  0.478148D+00
  0.122000D+00  0.501240D+00
   s     1 1.00
  0.122000D+00  0.100000D+01
   p     1 1.00
  0.727000D+00  0.100000D+01
  
  9  0
   s     4 1.00
  0.130100D+02  0.196850D-01
  0.196200D+01  0.137977D+00
  0.444600D+00  0.478148D+00
  0.122000D+00  0.501240D+00
   s     1 1.00
  0.122000D+00  0.100000D+01
   p     1 1.00
  0.727000D+00  0.100000D+01
  
 10  0
   s     4 1.00
  0.130100D+02  0.196850D-01
  0.196200D+01  0.137977D+00
  0.444600D+00  0.478148D+00
  0.122000D+00  0.501240D+00
   s     1 1.00
  0.122000D+00  0.100000D+01
   p     1 1.00
  0.727000D+00  0.100000D+01
  
 11  0
   s     4 1.00
  0.130100D+02  0.196850D-01
  0.196200D+01  0.137977D+00
  0.444600D+00  0.478148D+00
  0.122000D+00  0.501240D+00
   s     1 1.00
  0.122000D+00  0.100000D+01
   p     1 1.00
  0.727000D+00  0.100000D+01
  
 12  0
   s     4 1.00
  0.130100D+02  0.196850D-01
  0.196200D+01  0.137977D+00
  0.444600D+00  0.478148D+00
  0.122000D+00  0.501240D+00
   s     1 1.00
  0.122000D+00  0.100000D+01
   p     1 1.00
  0.727000D+00  0.100000D+01
  
 13  0
   s     4 1.00
  0.130100D+02  0.196850D-01
  0.196200D+01  0.137977D+00
  0.444600D+00  0.478148D+00
  0.122000D+00  0.501240D+00
   s     1 1.00
  0.122000D+00  0.100000D+01
   p     1 1.00
  0.727000D+00  0.100000D+01
  
 14  0
   s     4 1.00
  0.130100D+02  0.196850D-01
  0.196200D+01  0.137977D+00
  0.444600D+00  0.478148D+00
  0.122000D+00  0.501240D+00
   s     1 1.00
  0.122000D+00  0.100000D+01
   p     1 1.00
  0.727000D+00  0.100000D+01
  
[MO]
 Sym= __1_A__
 Ene=   1.00000000000000     
 Spin= Alpha
 Occup=    1.00000000000000     
                     1  5.850145005975730E-005
                     2  0.997166757802579     
                     3  1.499789905578158E-002
                     4  3.108838026757921E-003
                     5 -1.645520018635678E-003
                     6 -3.141551384013539E-011
                     7 -1.033546968989343E-003
                     8  3.480014586653826E-003
                     9  8.475333473423930E-012
                    10 -5.170714151691318E-004
                    11 -5.558462523408420E-004
                    12  1.142223680629518E-011
                    13  3.274180031340839E-004
                    14  2.479418270451313E-004
                    15  1.951494886177235E-004
                    16 -1.160562381070292E-012
                    17  5.921038885084265E-004
                    18 -8.560768092441540E-004
                    19 -9.044700353601041E-013
                    20  2.360979634558798E-004
                    21 -1.003444930113917E-011
                    22 -4.156382357226064E-004
                    23  4.595393166213120E-004
                    24 -6.024828247755378E-012
                    25 -5.268649552914105E-004
                    26 -1.266568799868758E-012
                    27 -5.725905129616216E-005
                    28  5.894761857865390E-004
                    29  6.608980537573811E-013
                    30 -1.522049984444799E-012
                    31  1.377134690732245E-004
                    32 -3.858998554817438E-004
                    33  3.239071024486968E-003
                    34  1.975832110725559E-004
                    35 -3.849224585421412E-004
                    36  1.473235620452689E-011
                    37  3.708935838593941E-004
                    38 -8.311441533390371E-003
                    39 -1.496898733837061E-011
                    40 -1.381677718950651E-004
                    41  4.952740069459103E-004
                    42 -3.527170655615940E-013
                    43  3.202015122626398E-004
                    44  2.812156991062855E-003
                    45  3.581428322566578E-004
                    46  9.383333188588726E-013
                    47  3.366030765211690E-005
                    48  1.703855273785722E-004
                    49 -1.513352373579207E-013
                    50 -2.159018367057245E-004
                    51 -5.413595162438827E-012
                    52 -7.526445750565459E-004
                    53 -6.244130307058564E-004
                    54  5.643611526428760E-012
                    55 -2.028145361543209E-004
                    56 -2.925550122726153E-012
                    57  2.560717275959081E-005
                    58  1.754672428190731E-004
                    59  2.292118372208456E-012
                    60 -3.330525190824407E-012
                    61 -5.452229021878368E-006
                    62 -1.437590269899612E-004
                    63 -1.813135292567275E-003
                    64  1.120978140161612E-004
                    65  3.941065024905189E-006
                    66  1.705284712904829E-013
                    67 -1.088312659189778E-003
                    68  1.430801541725226E-003
                    69  6.592384110946221E-012
                    70 -3.105900255473318E-004
                    71  6.186560458706923E-004
                    72 -4.367214321954350E-012
                    73  1.136831614597328E-004
                    74 -6.807498589347351E-005
                    75  1.001394917918016E-004
                    76  8.660676723450775E-013
                    77 -7.732193679295893E-006
                    78  5.078642840499410E-005
                    79 -2.915786065740304E-012
                    80 -9.712756576808267E-006
                    81 -3.691347893447730E-012
                    82  3.250825129845885E-004
                    83 -1.368998479758093E-006
                    84  5.116565924175454E-012
                    85 -9.062285670575380E-005
                    86 -3.511221149640357E-014
                    87 -4.056038542101003E-005
                    88  2.291480170561788E-005
                    89  1.259011887368724E-012
                    90  2.139076865507013E-012
                    91  1.702205884704316E-006
                    92 -1.594283902376483E-004
                    93 -1.608596479608188E-003
                    94 -1.446058560386960E-005
                    95  8.572730041912159E-004
                    96  2.473819717611910E-012
                    97  8.510207201028666E-004
                    98  1.091528964750259E-003
                    99  2.501914717431803E-014
                   100 -2.820825205878154E-004
                   101  6.781105705353463E-004
                   102 -1.943435141408629E-012
                   103 -3.275099374757398E-005
                   104  5.202275748959760E-004
                   105  1.200752155204746E-004
                   106 -1.026665797064846E-012
                   107  5.129495181398697E-005
                   108  3.131438954081730E-005
                   109 -9.413046641811859E-013
                   110 -3.428576092344407E-004
                   111  4.763235568745208E-012
                   112 -3.811646931687359E-004
                   113 -2.265744721081244E-004
                   114 -1.583380250642057E-012
                   115 -1.400600006961335E-004
                   116  4.796217355809433E-013
                   117  6.696059104919029E-005
                   118  3.742322002444326E-005
                   119  1.274348375817523E-012
                   120  9.331085808943431E-013
                   121 -5.345793898015753E-006
                   122 -1.180394619152805E-004
                   123  2.463449628816502E-004
                   124  1.119075325104452E-004
                   125 -3.130511243029072E-005
                   126 -3.039233027195834E-012
                   127  7.282819909888607E-005
                   128 -1.000635968787030E-003
                   129  5.414197457839338E-012
                   130 -4.461282302578711E-005
                   131  3.221631024931630E-004
                   132  1.129493411514042E-011
                   133 -1.806909440045683E-004
                   134  1.764718841050093E-004
                   135 -1.430663783100129E-005
                   136  4.945842974730930E-013
                   137  3.965404851532625E-006
                   138  6.398587962491044E-006
                   139  3.055097488723845E-013
                   140 -1.086552511703589E-004
                   141  5.904747814670936E-012
                   142  1.516307109265322E-004
                   143  1.126485427184222E-005
                   144  2.299817820487241E-012
                   145 -2.970176044792539E-005
                   146 -1.329177211099004E-012
                   147  9.409579300559002E-006
                   148 -3.987595529994190E-006
                   149 -1.875770248354914E-012
                   150  2.432050918166500E-012
                   151 -1.241229289161240E-007
                   152 -1.198545032494756E-004
                   153  1.722539234272974E-004
                   154  1.300703893945597E-004
                   155  8.134844769780723E-005
                   156 -5.002955740729473E-013
                   157 -5.318970885776633E-005
                   158 -9.197929939687063E-004
                   159 -2.224751442496457E-012
                   160  7.053161556794335E-005
                   161  3.500081641870491E-004
                   162 -8.367833165804822E-013
                   163  2.060423755847272E-005
                   164  7.188337260121540E-004
                   165 -3.110496089783213E-005
                   166  2.708235641194131E-016
                   167  3.624755998987784E-006
                   168  4.711714338131412E-006
                   169  2.946052370279467E-012
                   170 -1.732304868212799E-004
                   171  3.121991458696213E-012
                   172 -2.540367174616468E-004
                   173  1.535884192184260E-005
                   174 -4.881748279866047E-012
                   175 -5.631651689191856E-005
                   176  7.735121340502979E-013
                   177 -1.416337575196627E-006
                   178 -9.547700175517558E-006
                   179  2.278953539341888E-012
                   180  1.087171030271553E-012
                   181  3.912065924875597E-006
                   182 -9.898721137915197E-005
                   183 -2.461188027670566E-004
                   184  1.803129223840967E-005
                   185  1.139700790217210E-004
                   186 -4.696139160845021E-012
                   187 -1.002585582526427E-005
                   188 -3.609011002135730E-005
                   189  1.064750438027385E-012
                   190 -3.550148966988106E-005
                   191 -3.162651885773734E-005
                   192 -1.264374570804202E-011
                   193 -3.076955228172783E-004
                   194  2.756131499256954E-004
                   195  2.395681622909728E-005
                   196 -1.145659560801094E-012
                   197 -1.776599042954047E-006
                   198  1.069162733785075E-005
                   199  1.207474585657345E-012
                   200  5.758868656373989E-005
                   201  9.158979652191261E-012
                   202  2.697893208053378E-005
                   203  3.342912915494542E-005
                   204  4.525496812188406E-012
                   205 -1.699843170509218E-005
                   206  2.305037560772200E-012
                   207  4.181805618318156E-007
                   208  1.170584404760107E-005
                   209  2.298381458261646E-013
                   210 -7.521826966032852E-013
                   211  4.452150169668960E-007
                   212  7.133670533568687E-003
                   213 -4.548701497775331E-003
                   214 -3.522504865355146E-012
                   215  1.598907729360829E-004
                   216  1.247071162842363E-004
                   217  5.608851765819853E-003
                   218 -3.030458537699608E-003
                   219  7.539303591654916E-014
                   220 -2.656836152035899E-004
                   221  3.653185605099279E-004
                   222 -8.308989996157765E-004
                   223  3.444456125200147E-004
                   224 -3.385667007226291E-012
                   225 -4.435389288894336E-005
                   226 -3.944115621727585E-005
                   227 -9.533197772421252E-004
                   228  4.048288899746573E-004
                   229 -8.691543685307575E-013
                   230  1.504092515596082E-005
                   231 -8.986385815559062E-005
                   232 -3.320557359323142E-004
                   233 -2.252906768195607E-004
                   234 -1.140506485666839E-012
                   235 -8.833489190223355E-006
                   236  9.427256515997911E-006
                   237 -2.243175630064930E-004
                   238 -3.109926008548979E-004
                   239 -1.650528851224554E-012
                   240  2.767762991349061E-006
                   241  1.434674015723669E-005
                   242  9.004506954220612E-005
                   243 -2.022738781130000E-004
                   244 -2.225922757657039E-012
                   245  1.551587267678645E-006
                   246  6.541009194177832E-006
 Sym= __2_A__
 Ene=   2.00000000000000     
 Spin= Alpha
 Occup=    1.00000000000000     
                     1 -3.115503970096495E-005
                     2 -2.158999937150603E-004
                     3  1.488769705446690E-003
                     4  9.130672599725833E-005
                     5  1.668934982107970E-003
                     6  1.494562703129963E-011
                     7  8.013684221434395E-005
                     8  2.922261415492252E-003
                     9 -1.091959695977296E-011
                    10  3.100007351091086E-005
                    11 -4.638343710926896E-005
                    12 -6.278942145927716E-012
                    13 -7.511062335407925E-006
                    14 -3.166864685726868E-004
                    15  1.999001339262455E-005
                    16 -2.250432102542217E-012
                    17 -1.439107441418608E-005
                    18  6.264947055957496E-005
                    19  9.558644894815385E-013
                    20 -4.226770743975940E-004
                    21  4.412147341123381E-013
                    22 -6.276104889506525E-005
                    23 -4.178338778813332E-004
                    24 -4.765766284431004E-013
                    25  1.668832933578998E-004
                    26 -9.953384643848919E-014
                    27  3.527258270028850E-005
                    28 -1.425534874185737E-005
                    29 -8.992079763410341E-013
                    30  1.402240879290240E-012
                    31  1.099911971628894E-005
                    32   1.00105450644292     
                    33  9.158004703453728E-003
                    34  2.675638733333271E-003
                    35 -7.764473531310549E-003
                    36  3.003357999556548E-012
                    37 -6.811594515466059E-006
                    38 -3.904632453423732E-003
                    39  9.822724437767408E-012
                    40  1.691137797801570E-005
                    41  1.070866811131512E-003
                    42 -2.496243509855526E-011
                    43 -6.245248412171597E-005
                    44  4.633992143940163E-003
                    45  4.522297279963120E-004
                    46  2.338324506457782E-012
                    47  4.988336748138797E-006
                    48 -4.340370430245614E-004
                    49  6.120351337786148E-013
                    50  5.427126323845192E-004
                    51 -5.723163041667746E-012
                    52 -2.739148121283436E-005
                    53  9.556003002226063E-004
                    54  2.449736015480617E-012
                    55  3.676112641161967E-004
                    56  9.005020542398467E-013
                    57 -6.078006546530899E-006
                    58 -2.155734305354552E-004
                    59  8.095753480693409E-014
                    60  3.163919290515336E-012
                    61 -1.155885622342985E-006
                    62  7.248959273607298E-003
                    63 -2.059865627066270E-003
                    64 -2.793942868402054E-004
                    65  3.087627349661219E-003
                    66 -1.692420952886948E-011
                    67  1.435801190854300E-004
                    68 -7.537644717071573E-005
                    69  1.005898880784193E-011
                    70  5.914087287328310E-004
                    71  2.588953592144896E-005
                    72  3.332055354356863E-011
                    73 -2.204061347340790E-003
                    74  1.085121791044181E-004
                    75 -1.707335991993499E-005
                    76 -3.212457654167984E-012
                    77  1.328574034463212E-005
                    78  2.622009989932286E-005
                    79 -5.565656036466518E-014
                    80  7.808348890274114E-004
                    81  1.413577358600315E-011
                    82 -4.356852020745563E-004
                    83 -6.374458464572332E-006
                    84  2.340079991398914E-012
                    85  7.277149263101939E-005
                    86  7.020164743120327E-013
                    87  5.116400908333988E-005
                    88 -1.243534434153215E-004
                    89  4.144221389454606E-013
                    90 -4.693666898959498E-013
                    91  5.120589039030983E-005
                    92  7.243207065323186E-003
                    93 -2.046476522731188E-003
                    94 -2.822921213899649E-004
                    95  3.097958587106361E-003
                    96  1.992943436066433E-012
                    97 -1.419738584571743E-004
                    98 -8.052545885275571E-005
                    99 -4.513343976886712E-012
                   100 -6.073283167182561E-004
                   101  4.565418736726486E-005
                   102  8.617219200083879E-012
                   103  2.165904659919926E-003
                   104  9.953191157888526E-006
                   105 -1.865497223228250E-005
                   106 -2.904255037622555E-012
                   107 -1.359161968396674E-005
                   108  2.555574367168684E-005
                   109  2.519087501418770E-014
                   110  7.759409894337687E-004
                   111 -6.795008285909768E-012
                   112  4.338864093520726E-004
                   113 -9.882592805573469E-006
                   114 -1.579214106942100E-012
                   115  7.206791342521975E-005
                   116  8.530181086709803E-013
                   117 -4.435722785357627E-005
                   118 -1.261365463823681E-004
                   119 -1.943515766357094E-012
                   120  2.195809869028156E-013
                   121 -4.998605393740019E-005
                   122 -2.478512302983525E-004
                   123 -8.109593770949729E-004
                   124  2.241880775520818E-004
                   125 -8.721729746840080E-005
                   126  4.995378105640555E-012
                   127 -2.514701648443615E-005
                   128 -2.103976815685369E-004
                   129 -1.072907128741141E-011
                   130  3.023110456400016E-006
                   131  5.390416679331140E-004
                   132 -2.162735968941692E-011
                   133  3.472797136976613E-004
                   134  8.311211471169267E-004
                   135 -1.422700772284741E-005
                   136 -4.438974615151340E-013
                   137  5.119191023180415E-005
                   138  1.355617360587260E-005
                   139  2.609356282506246E-012
                   140 -3.034387810015555E-004
                   141  6.926620983830264E-012
                   142 -2.223257654570976E-004
                   143 -1.528360721691492E-005
                   144 -9.784077188385811E-012
                   145 -5.045202423108880E-007
                   146 -1.448633509219264E-012
                   147 -4.170548981969438E-005
                   148 -3.888000964175942E-005
                   149 -1.328652727971986E-012
                   150 -3.770269078108282E-013
                   151 -6.114700162853631E-006
                   152 -2.448375935108808E-004
                   153 -7.948955633030967E-004
                   154  2.284531020983125E-004
                   155 -1.149820386531396E-004
                   156 -2.008518505368437E-011
                   157  2.333198058720104E-005
                   158 -2.136577385920240E-004
                   159  9.545161835670683E-012
                   160  5.745281786799577E-006