[Molden Format]
[Atoms] AU
  N     1    7    -4.5082829200   -0.1342819900   -0.4228200100        
  C     2    6    -1.7496705200   -0.0824342700   -0.1838819400        
  C     3    6    -0.3491890900    0.2202010900   -2.3813599000        
  C     4    6    -0.4819141000   -0.3194027500    2.1144844200        
  C     5    6     2.2679837200    0.2851297300   -2.2867536700        
  C     6    6     2.1285900100   -0.2535069600    2.1993448600        
  C     7    6     3.5096699900    0.0491470500   -0.0030301700        
  H     8    1    -5.0474185900   -1.7582191400    0.5329298000        
  H     9    1    -5.1331481600    1.1861733600    0.8837931500        
  H    10    1    -1.3260875200    0.4019365300   -4.1451509600        
  H    11    1    -1.5448115400   -0.5543420500    3.8263524900        
  H    12    1     3.3318141500    0.5199799700   -3.9976458500        
  H    13    1     3.0845146800   -0.4378414600    3.9798216900        
  H    14    1     5.5368142800    0.0998677000    0.0666404700        
[5D]
[7F]
[GTO]
  1  0
   s    12 1.00
  0.114200D+05  0.172695D-04
  0.171200D+04  0.134411D-03
  0.389300D+03  0.694561D-03
  0.110000D+03  0.278531D-02
  0.355700D+02  0.863457D-02
  0.125400D+02  0.199805D-01
  0.464400D+01  0.262908D-01
  0.129300D+01 -0.243845D-01
  0.511800D+00 -0.924934D-01
  0.178700D+00 -0.339683D+00
  0.246240D-01  0.345111D+00
  0.112530D-01  0.752750D+00
   s    10 1.00
  0.114200D+05  0.523000D-03
  0.171200D+04  0.404500D-02
  0.389300D+03  0.207750D-01
  0.110000D+03  0.807269D-01
  0.355700D+02  0.233074D+00
  0.125400D+02  0.433501D+00
  0.464400D+01  0.347472D+00
  0.129300D+01  0.412620D-01
  0.511800D+00 -0.850799D-02
  0.178700D+00  0.238400D-02
   s    10 1.00
  0.114200D+05 -0.115000D-03
  0.171200D+04 -0.895000D-03
  0.389300D+03 -0.462400D-02
  0.110000D+03 -0.185280D-01
  0.355700D+02 -0.573390D-01
  0.125400D+02 -0.132076D+00
  0.464400D+01 -0.172510D+00
  0.129300D+01  0.151814D+00
  0.511800D+00  0.599944D+00
  0.178700D+00  0.387462D+00
   s     1 1.00
  0.129300D+01  0.100000D+01
   s     1 1.00
  0.178700D+00  0.100000D+01
   p     5 1.00
  0.266300D+02  0.146700D-01
  0.594800D+01  0.917640D-01
  0.174200D+01  0.298683D+00
  0.555000D+00  0.498487D+00
  0.172500D+00  0.337023D+00
   p     1 1.00
  0.174200D+01  0.100000D+01
   p     1 1.00
  0.555000D+00  0.100000D+01
   d     1 1.00
  0.165400D+01  0.100000D+01
   d     1 1.00
  0.469000D+00  0.100000D+01
   f     1 1.00
  0.109300D+01  0.100000D+01
  
  2  0
   s    10 1.00
  0.823600D+04  0.531000D-03
  0.123500D+04  0.410800D-02
  0.280800D+03  0.210870D-01
  0.792700D+02  0.818530D-01
  0.255900D+02  0.234817D+00
  0.899700D+01  0.434401D+00
  0.331900D+01  0.346129D+00
  0.905900D+00  0.393780D-01
  0.364300D+00 -0.898300D-02
  0.128500D+00  0.238500D-02
   s    10 1.00
  0.823600D+04 -0.113000D-03
  0.123500D+04 -0.878000D-03
  0.280800D+03 -0.454000D-02
  0.792700D+02 -0.181330D-01
  0.255900D+02 -0.557600D-01
  0.899700D+01 -0.126895D+00
  0.331900D+01 -0.170352D+00
  0.905900D+00  0.140382D+00
  0.364300D+00  0.598684D+00
  0.128500D+00  0.395389D+00
   s     1 1.00
  0.905900D+00  0.100000D+01
   s     1 1.00
  0.364300D+00  0.100000D+01
   p     5 1.00
  0.187100D+02  0.140310D-01
  0.413300D+01  0.868660D-01
  0.120000D+01  0.290216D+00
  0.382700D+00  0.501008D+00
  0.120900D+00  0.343406D+00
   p     1 1.00
  0.382700D+00  0.100000D+01
   p     1 1.00
  0.120900D+00  0.100000D+01
   d     1 1.00
  0.109700D+01  0.100000D+01
   d     1 1.00
  0.318000D+00  0.100000D+01
   f     1 1.00
  0.761000D+00  0.100000D+01
  
  3  0
   s    10 1.00
  0.823600D+04  0.531000D-03
  0.123500D+04  0.410800D-02
  0.280800D+03  0.210870D-01
  0.792700D+02  0.818530D-01
  0.255900D+02  0.234817D+00
  0.899700D+01  0.434401D+00
  0.331900D+01  0.346129D+00
  0.905900D+00  0.393780D-01
  0.364300D+00 -0.898300D-02
  0.128500D+00  0.238500D-02
   s    10 1.00
  0.823600D+04 -0.113000D-03
  0.123500D+04 -0.878000D-03
  0.280800D+03 -0.454000D-02
  0.792700D+02 -0.181330D-01
  0.255900D+02 -0.557600D-01
  0.899700D+01 -0.126895D+00
  0.331900D+01 -0.170352D+00
  0.905900D+00  0.140382D+00
  0.364300D+00  0.598684D+00
  0.128500D+00  0.395389D+00
   s     1 1.00
  0.905900D+00  0.100000D+01
   s     1 1.00
  0.364300D+00  0.100000D+01
   p     5 1.00
  0.187100D+02  0.140310D-01
  0.413300D+01  0.868660D-01
  0.120000D+01  0.290216D+00
  0.382700D+00  0.501008D+00
  0.120900D+00  0.343406D+00
   p     1 1.00
  0.382700D+00  0.100000D+01
   p     1 1.00
  0.120900D+00  0.100000D+01
   d     1 1.00
  0.109700D+01  0.100000D+01
   d     1 1.00
  0.318000D+00  0.100000D+01
   f     1 1.00
  0.761000D+00  0.100000D+01
  
  4  0
   s    10 1.00
  0.823600D+04  0.531000D-03
  0.123500D+04  0.410800D-02
  0.280800D+03  0.210870D-01
  0.792700D+02  0.818530D-01
  0.255900D+02  0.234817D+00
  0.899700D+01  0.434401D+00
  0.331900D+01  0.346129D+00
  0.905900D+00  0.393780D-01
  0.364300D+00 -0.898300D-02
  0.128500D+00  0.238500D-02
   s    10 1.00
  0.823600D+04 -0.113000D-03
  0.123500D+04 -0.878000D-03
  0.280800D+03 -0.454000D-02
  0.792700D+02 -0.181330D-01
  0.255900D+02 -0.557600D-01
  0.899700D+01 -0.126895D+00
  0.331900D+01 -0.170352D+00
  0.905900D+00  0.140382D+00
  0.364300D+00  0.598684D+00
  0.128500D+00  0.395389D+00
   s     1 1.00
  0.905900D+00  0.100000D+01
   s     1 1.00
  0.364300D+00  0.100000D+01
   p     5 1.00
  0.187100D+02  0.140310D-01
  0.413300D+01  0.868660D-01
  0.120000D+01  0.290216D+00
  0.382700D+00  0.501008D+00
  0.120900D+00  0.343406D+00
   p     1 1.00
  0.382700D+00  0.100000D+01
   p     1 1.00
  0.120900D+00  0.100000D+01
   d     1 1.00
  0.109700D+01  0.100000D+01
   d     1 1.00
  0.318000D+00  0.100000D+01
   f     1 1.00
  0.761000D+00  0.100000D+01
  
  5  0
   s    10 1.00
  0.823600D+04  0.531000D-03
  0.123500D+04  0.410800D-02
  0.280800D+03  0.210870D-01
  0.792700D+02  0.818530D-01
  0.255900D+02  0.234817D+00
  0.899700D+01  0.434401D+00
  0.331900D+01  0.346129D+00
  0.905900D+00  0.393780D-01
  0.364300D+00 -0.898300D-02
  0.128500D+00  0.238500D-02
   s    10 1.00
  0.823600D+04 -0.113000D-03
  0.123500D+04 -0.878000D-03
  0.280800D+03 -0.454000D-02
  0.792700D+02 -0.181330D-01
  0.255900D+02 -0.557600D-01
  0.899700D+01 -0.126895D+00
  0.331900D+01 -0.170352D+00
  0.905900D+00  0.140382D+00
  0.364300D+00  0.598684D+00
  0.128500D+00  0.395389D+00
   s     1 1.00
  0.905900D+00  0.100000D+01
   s     1 1.00
  0.364300D+00  0.100000D+01
   p     5 1.00
  0.187100D+02  0.140310D-01
  0.413300D+01  0.868660D-01
  0.120000D+01  0.290216D+00
  0.382700D+00  0.501008D+00
  0.120900D+00  0.343406D+00
   p     1 1.00
  0.382700D+00  0.100000D+01
   p     1 1.00
  0.120900D+00  0.100000D+01
   d     1 1.00
  0.109700D+01  0.100000D+01
   d     1 1.00
  0.318000D+00  0.100000D+01
   f     1 1.00
  0.761000D+00  0.100000D+01
  
  6  0
   s    10 1.00
  0.823600D+04  0.531000D-03
  0.123500D+04  0.410800D-02
  0.280800D+03  0.210870D-01
  0.792700D+02  0.818530D-01
  0.255900D+02  0.234817D+00
  0.899700D+01  0.434401D+00
  0.331900D+01  0.346129D+00
  0.905900D+00  0.393780D-01
  0.364300D+00 -0.898300D-02
  0.128500D+00  0.238500D-02
   s    10 1.00
  0.823600D+04 -0.113000D-03
  0.123500D+04 -0.878000D-03
  0.280800D+03 -0.454000D-02
  0.792700D+02 -0.181330D-01
  0.255900D+02 -0.557600D-01
  0.899700D+01 -0.126895D+00
  0.331900D+01 -0.170352D+00
  0.905900D+00  0.140382D+00
  0.364300D+00  0.598684D+00
  0.128500D+00  0.395389D+00
   s     1 1.00
  0.905900D+00  0.100000D+01
   s     1 1.00
  0.364300D+00  0.100000D+01
   p     5 1.00
  0.187100D+02  0.140310D-01
  0.413300D+01  0.868660D-01
  0.120000D+01  0.290216D+00
  0.382700D+00  0.501008D+00
  0.120900D+00  0.343406D+00
   p     1 1.00
  0.382700D+00  0.100000D+01
   p     1 1.00
  0.120900D+00  0.100000D+01
   d     1 1.00
  0.109700D+01  0.100000D+01
   d     1 1.00
  0.318000D+00  0.100000D+01
   f     1 1.00
  0.761000D+00  0.100000D+01
  
  7  0
   s    10 1.00
  0.823600D+04  0.531000D-03
  0.123500D+04  0.410800D-02
  0.280800D+03  0.210870D-01
  0.792700D+02  0.818530D-01
  0.255900D+02  0.234817D+00
  0.899700D+01  0.434401D+00
  0.331900D+01  0.346129D+00
  0.905900D+00  0.393780D-01
  0.364300D+00 -0.898300D-02
  0.128500D+00  0.238500D-02
   s    10 1.00
  0.823600D+04 -0.113000D-03
  0.123500D+04 -0.878000D-03
  0.280800D+03 -0.454000D-02
  0.792700D+02 -0.181330D-01
  0.255900D+02 -0.557600D-01
  0.899700D+01 -0.126895D+00
  0.331900D+01 -0.170352D+00
  0.905900D+00  0.140382D+00
  0.364300D+00  0.598684D+00
  0.128500D+00  0.395389D+00
   s     1 1.00
  0.905900D+00  0.100000D+01
   s     1 1.00
  0.364300D+00  0.100000D+01
   p     5 1.00
  0.187100D+02  0.140310D-01
  0.413300D+01  0.868660D-01
  0.120000D+01  0.290216D+00
  0.382700D+00  0.501008D+00
  0.120900D+00  0.343406D+00
   p     1 1.00
  0.382700D+00  0.100000D+01
   p     1 1.00
  0.120900D+00  0.100000D+01
   d     1 1.00
  0.109700D+01  0.100000D+01
   d     1 1.00
  0.318000D+00  0.100000D+01
   f     1 1.00
  0.761000D+00  0.100000D+01
  
  8  0
   s     4 1.00
  0.130100D+02  0.196850D-01
  0.196200D+01  0.137977D+00
  0.444600D+00  0.478148D+00
  0.122000D+00  0.501240D+00
   s     1 1.00
  0.122000D+00  0.100000D+01
   p     1 1.00
  0.727000D+00  0.100000D+01
  
  9  0
   s     4 1.00
  0.130100D+02  0.196850D-01
  0.196200D+01  0.137977D+00
  0.444600D+00  0.478148D+00
  0.122000D+00  0.501240D+00
   s     1 1.00
  0.122000D+00  0.100000D+01
   p     1 1.00
  0.727000D+00  0.100000D+01
  
 10  0
   s     4 1.00
  0.130100D+02  0.196850D-01
  0.196200D+01  0.137977D+00
  0.444600D+00  0.478148D+00
  0.122000D+00  0.501240D+00
   s     1 1.00
  0.122000D+00  0.100000D+01
   p     1 1.00
  0.727000D+00  0.100000D+01
  
 11  0
   s     4 1.00
  0.130100D+02  0.196850D-01
  0.196200D+01  0.137977D+00
  0.444600D+00  0.478148D+00
  0.122000D+00  0.501240D+00
   s     1 1.00
  0.122000D+00  0.100000D+01
   p     1 1.00
  0.727000D+00  0.100000D+01
  
 12  0
   s     4 1.00
  0.130100D+02  0.196850D-01
  0.196200D+01  0.137977D+00
  0.444600D+00  0.478148D+00
  0.122000D+00  0.501240D+00
   s     1 1.00
  0.122000D+00  0.100000D+01
   p     1 1.00
  0.727000D+00  0.100000D+01
  
 13  0
   s     4 1.00
  0.130100D+02  0.196850D-01
  0.196200D+01  0.137977D+00
  0.444600D+00  0.478148D+00
  0.122000D+00  0.501240D+00
   s     1 1.00
  0.122000D+00  0.100000D+01
   p     1 1.00
  0.727000D+00  0.100000D+01
  
 14  0
   s     4 1.00
  0.130100D+02  0.196850D-01
  0.196200D+01  0.137977D+00
  0.444600D+00  0.478148D+00
  0.122000D+00  0.501240D+00
   s     1 1.00
  0.122000D+00  0.100000D+01
   p     1 1.00
  0.727000D+00  0.100000D+01
  
[MO]
 Sym= __1_A__
 Ene=  0.000000000000000E+000
 Spin= Alpha
 Occup=    2.00000000000000     
                     1 -7.829080139366085E-004
                     2  0.997504245491782     
                     3 -3.974910689906236E-002
                     4  2.128732540240813E-003
                     5  4.456559024827675E-003
                     6  1.452122320420656E-002
                     7 -3.121756432729632E-003
                     8  2.974540833867902E-002
                     9 -1.321419566685110E-003
                    10  2.115791726370587E-004
                    11 -2.098414172535003E-003
                    12 -3.830482198313217E-003
                    13  5.670262157315857E-004
                    14 -5.694335853223455E-003
                    15  1.987881784021678E-004
                    16  1.083884776592274E-004
                    17 -4.499652671975580E-005
                    18  5.469360296714264E-005
                    19 -9.582957756293342E-006
                    20  8.477339627054205E-004
                    21  6.838957276768445E-004
                    22 -1.595545278037906E-004
                    23  2.105092436494552E-005
                    24 -7.978377670024173E-005
                    25  2.213966904470780E-005
                    26 -5.526766137470533E-005
                    27 -1.520721117070555E-006
                    28  3.230020412622694E-005
                    29  2.338790984283671E-005
                    30  7.299075296097358E-005
                    31 -1.132246219298154E-005
                    32 -6.041622727160490E-004
                    33  4.262694668595303E-004
                    34  2.027065009380565E-004
                    35  1.702591840567769E-004
                    36  1.185595382044318E-003
                    37  1.392029762498897E-004
                    38 -8.784864440359780E-004
                    39 -8.895048136694339E-004
                    40 -1.250915464392514E-005
                    41 -1.123703180943108E-004
                    42  2.676751622786447E-003
                    43  1.046953022729748E-004
                    44 -2.245610159314962E-004
                    45  6.715214177759511E-005
                    46 -4.208327573047665E-004
                    47 -1.590991879108663E-005
                    48 -8.883124507548109E-005
                    49  4.506845286445202E-005
                    50 -2.806308176180895E-004
                    51 -5.843051434819064E-004
                    52  2.328510124519769E-005
                    53  1.483925410946654E-004
                    54  7.825333768901287E-005
                    55  1.252651648393229E-004
                    56  5.409746178109646E-006
                    57  1.289283222458730E-005
                    58  1.281064533549447E-004
                    59  1.334326667646205E-006
                    60 -3.539516085530395E-005
                    61 -1.556765478892600E-005
                    62 -7.265465226972030E-004
                    63  1.044217314098481E-003
                    64 -1.151485521903384E-004
                    65  2.503272998342839E-003
                    66 -4.186813918198644E-003
                    67 -2.181497483304087E-004
                    68  8.076768882542604E-004
                    69  5.082808394416059E-004
                    70 -2.343158578378640E-005
                    71  3.208297151710339E-004
                    72  6.843189621859551E-004
                    73  3.147176145027857E-004
                    74 -2.473853871088352E-003
                    75  1.510204016619380E-004
                    76 -6.055127629812678E-005
                    77 -3.272196832348179E-005
                    78 -5.875577203277700E-006
                    79  6.992820918675201E-006
                    80 -1.268085089417325E-004
                    81 -3.570709607529046E-004
                    82  1.514860822291187E-005
                    83  5.831113827710790E-006
                    84  4.287253982637438E-005
                    85 -2.090014265522134E-005
                    86 -1.357498888996863E-004
                    87 -7.424402356137007E-006
                    88 -1.539494028238880E-005
                    89  1.484614972196337E-005
                    90 -6.880336358995950E-005
                    91  8.120549198874580E-006
                    92  1.585024804918715E-005
                    93 -1.435233668425620E-003
                    94  2.247052343363942E-004
                    95 -6.827989876346311E-004
                    96 -6.936671202327633E-005
                    97 -1.644010137115794E-004
                    98  1.362674561280030E-003
                    99 -8.060974410673603E-005
                   100  8.440253369899170E-006
                   101 -9.052062883364559E-005
                   102 -8.010697668548656E-004
                   103  7.068154386466733E-005
                   104 -7.888720358761425E-004
                   105 -6.476427889247710E-005
                   106  5.162186319547494E-006
                   107  6.383375185804211E-006
                   108  6.054519242917818E-005
                   109  2.890808778086732E-006
                   110  1.756549881654164E-004
                   111  4.628114184391072E-004
                   112 -8.909178433705552E-006
                   113 -1.156604082360131E-004
                   114 -6.190611802448661E-005
                   115 -3.525962169048941E-005
                   116 -1.392842419007052E-005
                   117 -4.941598984132520E-006
                   118 -3.141275788862164E-005
                   119  2.979153286614819E-006
                   120  1.462830544202327E-005
                   121  3.255283322303425E-006
                   122 -2.570498506834069E-004
                   123 -2.037941677573866E-003
                   124  1.471039851256380E-004
                   125  4.017768032496257E-004
                   126  2.168131739726969E-003
                   127  8.406625378837078E-005
                   128 -1.757077398591316E-004
                   129  3.662250613053057E-004
                   130 -2.411716657911440E-005
                   131  2.918639959039632E-004
                   132 -7.188761300292115E-005
                   133 -1.210194712016582E-004
                   134  9.980111913418742E-004
                   135  7.253442413000804E-005
                   136 -2.236668809637705E-005
                   137 -7.364146260434957E-006
                   138 -7.013816926377724E-005
                   139 -1.394516532650393E-006
                   140  1.849349325305103E-004
                   141  2.543772427929785E-006
                   142 -1.105260172824150E-005
                   143 -2.278714681734268E-004
                   144 -1.354666440379382E-005
                   145  1.203001994447797E-006
                   146 -3.408643906957476E-005
                   147 -5.555873466008147E-006
                   148  2.522540372083428E-005
                   149 -2.472568788343181E-006
                   150 -7.084620660246103E-005
                   151  2.484690336594744E-006
                   152 -9.468264212605140E-005
                   153 -3.454759123334184E-005
                   154 -7.117929965436559E-005
                   155  8.007789029176572E-004
                   156  4.258389823708064E-004
                   157 -1.493395947331464E-005
                   158  2.293684867487639E-004
                   159 -3.742223917707922E-004
                   160  3.584437070197608E-006
                   161 -1.215144019553063E-004
                   162  4.058286944571009E-004
                   163 -1.098665603874298E-004
                   164  1.021143630474386E-003
                   165  8.220714139248917E-006
                   166 -1.814602457332675E-005
                   167 -4.449923818367202E-006
                   168  1.804535630042155E-005
                   169  3.231236309694550E-006
                   170 -7.457959773103056E-005
                   171  6.098293166754240E-006
                   172  3.295366223262392E-005
                   173 -1.416865583673206E-004
                   174 -9.098305387145917E-006
                   175  8.888602061143768E-006
                   176 -2.040476719310605E-005
                   177  7.863073861715230E-007
                   178  6.511152165113132E-006
                   179  2.721236104945747E-006
                   180 -1.054687103121782E-005
                   181 -4.138112050127221E-008
                   182 -9.599578943071157E-005
                   183 -2.081763786844116E-005
                   184  2.130778829842106E-005
                   185  2.188354399923735E-004
                   186 -2.963587989092903E-004
                   187  9.475314798032202E-006
                   188 -1.519283459079821E-004
                   189  1.368683675713840E-004
                   190 -3.559646942703630E-005
                   191  3.321680660210866E-004
                   192 -4.222225226671780E-004
                   193 -1.883416327605360E-005
                   194  5.488577570689209E-005
                   195  3.435773209725216E-005
                   196 -1.894891881426426E-005
                   197 -5.791438489111232E-006
                   198 -1.626661156714019E-005
                   199  1.331950910562757E-006
                   200 -1.453240590121674E-006
                   201 -1.406768512737142E-004
                   202 -5.481322024076713E-007
                   203 -2.777410533481658E-005
                   204  1.516092712331547E-005
                   205 -3.210349657447754E-006
                   206  5.407271675761980E-006
                   207 -1.895714825992581E-006
                   208  5.590786220287900E-006
                   209 -1.477263682244331E-006
                   210 -5.310834529591440E-006
                   211 -3.606893180989609E-007
                   212 -3.480100175558319E-003
                   213  2.485449232469821E-003
                   214  1.480717822489269E-004
                   215 -2.532508686089920E-004
                   216  5.209498570145807E-004
                   217 -3.480100874301055E-003
                   218  2.485449395627149E-003
                   219  1.368569007361487E-004
                   220  1.319214326192790E-004
                   221  5.668482647471088E-004
                   222  2.290512721683243E-003
                   223 -2.424731648475137E-003
                   224  3.731064254783241E-005
                   225 -1.702716527683546E-005
                   226  1.520063041857719E-004
                   227  3.584328327673620E-004
                   228  5.709489673416263E-004
                   229 -6.175204128584742E-005
                   230  1.119065208812989E-005
                   231 -1.089974588423004E-004
                   232  9.101144586358042E-004
                   233  3.936664407481432E-004
                   234  6.045364735107220E-006
                   235 -5.629293311679695E-006
                   236  4.871749861059242E-005
                   237  3.129803634160525E-004
                   238 -9.050673293963291E-004
                   239 -5.308123856419672E-005
                   240  2.825172408192832E-006
                   241 -3.667892577313786E-005
                   242 -4.034284486233117E-004
                   243  2.644255460174736E-004
                   244  3.120259417055749E-005
                   245  1.586093633796873E-006
                   246 -5.686603367181271E-006
 Sym= __2_A__
 Ene=  0.000000000000000E+000
 Spin= Alpha
 Occup=    2.00000000000000     
                     1 -6.598350064538770E-005
                     2  2.369459375018754E-004
                     3 -1.831239921236073E-003
                     4 -7.358169429575135E-006
                     5  9.845148407172401E-004
                     6  1.604306830053301E-003
                     7 -1.506316532468263E-004
                     8  1.656074499045309E-003
                     9 -1.615884188373742E-004
                    10  1.571895674356403E-005
                    11 -1.713937538431481E-004
                    12  1.353922496915714E-004
                    13  2.543739012371469E-005
                    14 -1.803847783057631E-004
                    15 -3.962932460021384E-005
                    16  3.512707897435537E-005
                    17  3.245044927895553E-006
                    18  5.041427090196364E-005
                    19 -1.262418978379362E-006
                    20  9.107615548920321E-005
                    21 -5.928360294639079E-005
                    22 -3.126078211049652E-005
                    23  8.602347200943258E-005
                    24  1.219238099534409E-005
                    25 -3.312263874137408E-005
                    26  1.275276165197786E-004
                    27  6.281673615472847E-006
                    28 -6.350372455388644E-005
                    29 -1.040191677791722E-005
                    30  1.199617201284132E-004
                    31 -1.083907702438311E-006
                    32   1.00083719541160     
                    33  8.408950296210844E-003
                    34  2.858877111025982E-003
                    35 -8.438125110905238E-003
                    36 -1.037802218529951E-003
                    37 -4.490810647310039E-005
                    38  1.232857022588200E-004
                    39  7.814585882049693E-004
                    40  8.371119994640295E-005
                    41 -5.115501974197841E-004
                    42  2.324614013189181E-003
                    43  4.905308459112027E-006
                    44  5.268292859733571E-004
                    45  3.307731573781105E-004
                    46 -2.982584794401702E-005
                    47 -1.056952757736870E-004
                    48  2.935683585022166E-004
                    49  2.103390278427964E-005
                    50 -1.034094726525482E-003
                    51 -4.500519080759106E-004
                    52  2.172885414183615E-004
                    53 -1.177692866034787E-004
                    54  4.605664111564810E-005
                    55 -2.176557583852064E-005
                    56  2.511637594021277E-004
                    57  7.236320525954950E-006
                    58 -3.078957536080696E-005
                    59 -4.044629217537248E-005
                    60  6.381637662565558E-005
                    61 -7.301739716811013E-007
                    62  1.621011181656692E-002
                    63 -1.203808144529152E-003
                    64 -2.885687576172364E-004
                    65  2.703560956964850E-003
                    66 -5.670993009553383E-004
                    67 -7.766695819459012E-005
                    68  5.132054463916719E-004
                    69  2.284715788416563E-005
                    70 -2.876199026446701E-005
                    71  2.469486989794065E-004
                    72  1.270509115834678E-004
                    73  2.167924628377771E-004
                    74 -1.788248030842028E-003
                    75  2.393294117851658E-005
                    76  2.576583437357196E-005
                    77  2.251811235590411E-006
                    78 -5.360495923537636E-005
                    79 -6.204987720578517E-006
                    80 -5.886024481638002E-004
                    81 -3.984217680731161E-004
                    82  1.229727936915654E-005
                    83  8.176339070891394E-004
                    84  9.512868200391539E-005
                    85  3.360235651297564E-005
                    86  1.061254624961373E-004
                    87  1.979191751170654E-005
                    88 -3.171483353732510E-005
                    89 -2.619521477333753E-005
                    90 -2.601622993597000E-005
                    91  7.303487173403303E-006
                    92  1.898539623521980E-002
                    93 -1.751171994039633E-003
                    94 -3.496477972690979E-004
                    95  3.447299929206899E-003
                    96 -3.068021881469266E-004
                    97  2.816363111591655E-005
                    98 -3.113089762033496E-004
                    99 -1.420435488553740E-004
                   100  9.618395192115660E-005
                   101 -8.418682185014342E-004
                   102  4.596652323921729E-004
                   103 -1.602513202029181E-004
                   104  1.457121282907387E-003
                   105  1.104496258386460E-005
                   106 -8.778567023596314E-007
                   107  2.541755509552334E-007
                   108 -2.141376189648374E-005
                   109 -1.144214665049297E-006
                   110 -1.279471625678493E-004
                   111  5.591407264232121E-004
                   112 -3.066162548159857E-005
                   113  6.127779417433376E-004
                   114 -3.086581732962876E-005
                   115 -4.418217990365085E-005
                   116  7.717052980731821E-005
                   117 -1.397290243126336E-005
                   118  1.552453390603086E-005
                   119 -1.781881740142402E-005
                   120 -2.734654795073912E-005
                   121  1.211442977690283E-007
                   122 -2.839848838078258E-005
                   123 -7.916301025050757E-004
                   124  2.469259125185933E-004
                   125 -4.603248591637091E-004
                   126  7.057313984383449E-005
                   127  9.614963198912180E-006
                   128 -6.344587598308637E-005
                   129  6.183715139582055E-004
                   130  1.088962884148655E-005
                   131  5.971450805583010E-005
                   132  1.244697204073993E-004
                   133 -4.777612675515633E-005
                   134  4.313472690243454E-004
                   135  3.956579663962960E-006
                   136  3.396968124181363E-005
                   137  5.405196327941246E-006
                   138 -4.307689574203786E-005
                   139 -6.580769350540135E-006
                   140  1.829688711069805E-004
                   141 -3.201179600459841E-004
                   142 -2.214118422685201E-005
                   143 -2.127065246188428E-004
                   144  2.585952956166358E-005
                   145 -5.014390701859119E-006
                   146  1.033032492895682E-005
                   147 -1.567227782660827E-006
                   148  2.048481825839554E-006
                   149 -4.545798176441337E-006
                   150 -1.815633412933429E-005
                   151  1.310866525367242E-006
                   152  8.241145369490855E-005
                   153 -7.761854528639558E-004
                   154  2.278273043433459E-004
                   155 -1.175021267932848E-004
                   156 -3.802747315329925E-005
                   157 -7.919842488841543E-006
                   158  5.717147035058548E-005
                   159  4.671344468128452E-004
                   160  1.691186968936088E-005