[Molden Format]
[Atoms] AU
  N     1    7    -4.5082829200   -0.1342819900   -0.4228200100        
  C     2    6    -1.7496705200   -0.0824342700   -0.1838819400        
  C     3    6    -0.3491890900    0.2202010900   -2.3813599000        
  C     4    6    -0.4819141000   -0.3194027500    2.1144844200        
  C     5    6     2.2679837200    0.2851297300   -2.2867536700        
  C     6    6     2.1285900100   -0.2535069600    2.1993448600        
  C     7    6     3.5096699900    0.0491470500   -0.0030301700        
  H     8    1    -5.0474185900   -1.7582191400    0.5329298000        
  H     9    1    -5.1331481600    1.1861733600    0.8837931500        
  H    10    1    -1.3260875200    0.4019365300   -4.1451509600        
  H    11    1    -1.5448115400   -0.5543420500    3.8263524900        
  H    12    1     3.3318141500    0.5199799700   -3.9976458500        
  H    13    1     3.0845146800   -0.4378414600    3.9798216900        
  H    14    1     5.5368142800    0.0998677000    0.0666404700        
[5D]
[7F]
[GTO]
  1  0
   s    12 1.00
  0.114200D+05  0.172695D-04
  0.171200D+04  0.134411D-03
  0.389300D+03  0.694561D-03
  0.110000D+03  0.278531D-02
  0.355700D+02  0.863457D-02
  0.125400D+02  0.199805D-01
  0.464400D+01  0.262908D-01
  0.129300D+01 -0.243845D-01
  0.511800D+00 -0.924934D-01
  0.178700D+00 -0.339683D+00
  0.246240D-01  0.345111D+00
  0.112530D-01  0.752750D+00
   s    10 1.00
  0.114200D+05  0.523000D-03
  0.171200D+04  0.404500D-02
  0.389300D+03  0.207750D-01
  0.110000D+03  0.807269D-01
  0.355700D+02  0.233074D+00
  0.125400D+02  0.433501D+00
  0.464400D+01  0.347472D+00
  0.129300D+01  0.412620D-01
  0.511800D+00 -0.850799D-02
  0.178700D+00  0.238400D-02
   s    10 1.00
  0.114200D+05 -0.115000D-03
  0.171200D+04 -0.895000D-03
  0.389300D+03 -0.462400D-02
  0.110000D+03 -0.185280D-01
  0.355700D+02 -0.573390D-01
  0.125400D+02 -0.132076D+00
  0.464400D+01 -0.172510D+00
  0.129300D+01  0.151814D+00
  0.511800D+00  0.599944D+00
  0.178700D+00  0.387462D+00
   s     1 1.00
  0.129300D+01  0.100000D+01
   s     1 1.00
  0.178700D+00  0.100000D+01
   p     5 1.00
  0.266300D+02  0.146700D-01
  0.594800D+01  0.917640D-01
  0.174200D+01  0.298683D+00
  0.555000D+00  0.498487D+00
  0.172500D+00  0.337023D+00
   p     1 1.00
  0.174200D+01  0.100000D+01
   p     1 1.00
  0.555000D+00  0.100000D+01
   d     1 1.00
  0.165400D+01  0.100000D+01
   d     1 1.00
  0.469000D+00  0.100000D+01
   f     1 1.00
  0.109300D+01  0.100000D+01
  
  2  0
   s    10 1.00
  0.823600D+04  0.531000D-03
  0.123500D+04  0.410800D-02
  0.280800D+03  0.210870D-01
  0.792700D+02  0.818530D-01
  0.255900D+02  0.234817D+00
  0.899700D+01  0.434401D+00
  0.331900D+01  0.346129D+00
  0.905900D+00  0.393780D-01
  0.364300D+00 -0.898300D-02
  0.128500D+00  0.238500D-02
   s    10 1.00
  0.823600D+04 -0.113000D-03
  0.123500D+04 -0.878000D-03
  0.280800D+03 -0.454000D-02
  0.792700D+02 -0.181330D-01
  0.255900D+02 -0.557600D-01
  0.899700D+01 -0.126895D+00
  0.331900D+01 -0.170352D+00
  0.905900D+00  0.140382D+00
  0.364300D+00  0.598684D+00
  0.128500D+00  0.395389D+00
   s     1 1.00
  0.905900D+00  0.100000D+01
   s     1 1.00
  0.364300D+00  0.100000D+01
   p     5 1.00
  0.187100D+02  0.140310D-01
  0.413300D+01  0.868660D-01
  0.120000D+01  0.290216D+00
  0.382700D+00  0.501008D+00
  0.120900D+00  0.343406D+00
   p     1 1.00
  0.382700D+00  0.100000D+01
   p     1 1.00
  0.120900D+00  0.100000D+01
   d     1 1.00
  0.109700D+01  0.100000D+01
   d     1 1.00
  0.318000D+00  0.100000D+01
   f     1 1.00
  0.761000D+00  0.100000D+01
  
  3  0
   s    10 1.00
  0.823600D+04  0.531000D-03
  0.123500D+04  0.410800D-02
  0.280800D+03  0.210870D-01
  0.792700D+02  0.818530D-01
  0.255900D+02  0.234817D+00
  0.899700D+01  0.434401D+00
  0.331900D+01  0.346129D+00
  0.905900D+00  0.393780D-01
  0.364300D+00 -0.898300D-02
  0.128500D+00  0.238500D-02
   s    10 1.00
  0.823600D+04 -0.113000D-03
  0.123500D+04 -0.878000D-03
  0.280800D+03 -0.454000D-02
  0.792700D+02 -0.181330D-01
  0.255900D+02 -0.557600D-01
  0.899700D+01 -0.126895D+00
  0.331900D+01 -0.170352D+00
  0.905900D+00  0.140382D+00
  0.364300D+00  0.598684D+00
  0.128500D+00  0.395389D+00
   s     1 1.00
  0.905900D+00  0.100000D+01
   s     1 1.00
  0.364300D+00  0.100000D+01
   p     5 1.00
  0.187100D+02  0.140310D-01
  0.413300D+01  0.868660D-01
  0.120000D+01  0.290216D+00
  0.382700D+00  0.501008D+00
  0.120900D+00  0.343406D+00
   p     1 1.00
  0.382700D+00  0.100000D+01
   p     1 1.00
  0.120900D+00  0.100000D+01
   d     1 1.00
  0.109700D+01  0.100000D+01
   d     1 1.00
  0.318000D+00  0.100000D+01
   f     1 1.00
  0.761000D+00  0.100000D+01
  
  4  0
   s    10 1.00
  0.823600D+04  0.531000D-03
  0.123500D+04  0.410800D-02
  0.280800D+03  0.210870D-01
  0.792700D+02  0.818530D-01
  0.255900D+02  0.234817D+00
  0.899700D+01  0.434401D+00
  0.331900D+01  0.346129D+00
  0.905900D+00  0.393780D-01
  0.364300D+00 -0.898300D-02
  0.128500D+00  0.238500D-02
   s    10 1.00
  0.823600D+04 -0.113000D-03
  0.123500D+04 -0.878000D-03
  0.280800D+03 -0.454000D-02
  0.792700D+02 -0.181330D-01
  0.255900D+02 -0.557600D-01
  0.899700D+01 -0.126895D+00
  0.331900D+01 -0.170352D+00
  0.905900D+00  0.140382D+00
  0.364300D+00  0.598684D+00
  0.128500D+00  0.395389D+00
   s     1 1.00
  0.905900D+00  0.100000D+01
   s     1 1.00
  0.364300D+00  0.100000D+01
   p     5 1.00
  0.187100D+02  0.140310D-01
  0.413300D+01  0.868660D-01
  0.120000D+01  0.290216D+00
  0.382700D+00  0.501008D+00
  0.120900D+00  0.343406D+00
   p     1 1.00
  0.382700D+00  0.100000D+01
   p     1 1.00
  0.120900D+00  0.100000D+01
   d     1 1.00
  0.109700D+01  0.100000D+01
   d     1 1.00
  0.318000D+00  0.100000D+01
   f     1 1.00
  0.761000D+00  0.100000D+01
  
  5  0
   s    10 1.00
  0.823600D+04  0.531000D-03
  0.123500D+04  0.410800D-02
  0.280800D+03  0.210870D-01
  0.792700D+02  0.818530D-01
  0.255900D+02  0.234817D+00
  0.899700D+01  0.434401D+00
  0.331900D+01  0.346129D+00
  0.905900D+00  0.393780D-01
  0.364300D+00 -0.898300D-02
  0.128500D+00  0.238500D-02
   s    10 1.00
  0.823600D+04 -0.113000D-03
  0.123500D+04 -0.878000D-03
  0.280800D+03 -0.454000D-02
  0.792700D+02 -0.181330D-01
  0.255900D+02 -0.557600D-01
  0.899700D+01 -0.126895D+00
  0.331900D+01 -0.170352D+00
  0.905900D+00  0.140382D+00
  0.364300D+00  0.598684D+00
  0.128500D+00  0.395389D+00
   s     1 1.00
  0.905900D+00  0.100000D+01
   s     1 1.00
  0.364300D+00  0.100000D+01
   p     5 1.00
  0.187100D+02  0.140310D-01
  0.413300D+01  0.868660D-01
  0.120000D+01  0.290216D+00
  0.382700D+00  0.501008D+00
  0.120900D+00  0.343406D+00
   p     1 1.00
  0.382700D+00  0.100000D+01
   p     1 1.00
  0.120900D+00  0.100000D+01
   d     1 1.00
  0.109700D+01  0.100000D+01
   d     1 1.00
  0.318000D+00  0.100000D+01
   f     1 1.00
  0.761000D+00  0.100000D+01
  
  6  0
   s    10 1.00
  0.823600D+04  0.531000D-03
  0.123500D+04  0.410800D-02
  0.280800D+03  0.210870D-01
  0.792700D+02  0.818530D-01
  0.255900D+02  0.234817D+00
  0.899700D+01  0.434401D+00
  0.331900D+01  0.346129D+00
  0.905900D+00  0.393780D-01
  0.364300D+00 -0.898300D-02
  0.128500D+00  0.238500D-02
   s    10 1.00
  0.823600D+04 -0.113000D-03
  0.123500D+04 -0.878000D-03
  0.280800D+03 -0.454000D-02
  0.792700D+02 -0.181330D-01
  0.255900D+02 -0.557600D-01
  0.899700D+01 -0.126895D+00
  0.331900D+01 -0.170352D+00
  0.905900D+00  0.140382D+00
  0.364300D+00  0.598684D+00
  0.128500D+00  0.395389D+00
   s     1 1.00
  0.905900D+00  0.100000D+01
   s     1 1.00
  0.364300D+00  0.100000D+01
   p     5 1.00
  0.187100D+02  0.140310D-01
  0.413300D+01  0.868660D-01
  0.120000D+01  0.290216D+00
  0.382700D+00  0.501008D+00
  0.120900D+00  0.343406D+00
   p     1 1.00
  0.382700D+00  0.100000D+01
   p     1 1.00
  0.120900D+00  0.100000D+01
   d     1 1.00
  0.109700D+01  0.100000D+01
   d     1 1.00
  0.318000D+00  0.100000D+01
   f     1 1.00
  0.761000D+00  0.100000D+01
  
  7  0
   s    10 1.00
  0.823600D+04  0.531000D-03
  0.123500D+04  0.410800D-02
  0.280800D+03  0.210870D-01
  0.792700D+02  0.818530D-01
  0.255900D+02  0.234817D+00
  0.899700D+01  0.434401D+00
  0.331900D+01  0.346129D+00
  0.905900D+00  0.393780D-01
  0.364300D+00 -0.898300D-02
  0.128500D+00  0.238500D-02
   s    10 1.00
  0.823600D+04 -0.113000D-03
  0.123500D+04 -0.878000D-03
  0.280800D+03 -0.454000D-02
  0.792700D+02 -0.181330D-01
  0.255900D+02 -0.557600D-01
  0.899700D+01 -0.126895D+00
  0.331900D+01 -0.170352D+00
  0.905900D+00  0.140382D+00
  0.364300D+00  0.598684D+00
  0.128500D+00  0.395389D+00
   s     1 1.00
  0.905900D+00  0.100000D+01
   s     1 1.00
  0.364300D+00  0.100000D+01
   p     5 1.00
  0.187100D+02  0.140310D-01
  0.413300D+01  0.868660D-01
  0.120000D+01  0.290216D+00
  0.382700D+00  0.501008D+00
  0.120900D+00  0.343406D+00
   p     1 1.00
  0.382700D+00  0.100000D+01
   p     1 1.00
  0.120900D+00  0.100000D+01
   d     1 1.00
  0.109700D+01  0.100000D+01
   d     1 1.00
  0.318000D+00  0.100000D+01
   f     1 1.00
  0.761000D+00  0.100000D+01
  
  8  0
   s     4 1.00
  0.130100D+02  0.196850D-01
  0.196200D+01  0.137977D+00
  0.444600D+00  0.478148D+00
  0.122000D+00  0.501240D+00
   s     1 1.00
  0.122000D+00  0.100000D+01
   p     1 1.00
  0.727000D+00  0.100000D+01
  
  9  0
   s     4 1.00
  0.130100D+02  0.196850D-01
  0.196200D+01  0.137977D+00
  0.444600D+00  0.478148D+00
  0.122000D+00  0.501240D+00
   s     1 1.00
  0.122000D+00  0.100000D+01
   p     1 1.00
  0.727000D+00  0.100000D+01
  
 10  0
   s     4 1.00
  0.130100D+02  0.196850D-01
  0.196200D+01  0.137977D+00
  0.444600D+00  0.478148D+00
  0.122000D+00  0.501240D+00
   s     1 1.00
  0.122000D+00  0.100000D+01
   p     1 1.00
  0.727000D+00  0.100000D+01
  
 11  0
   s     4 1.00
  0.130100D+02  0.196850D-01
  0.196200D+01  0.137977D+00
  0.444600D+00  0.478148D+00
  0.122000D+00  0.501240D+00
   s     1 1.00
  0.122000D+00  0.100000D+01
   p     1 1.00
  0.727000D+00  0.100000D+01
  
 12  0
   s     4 1.00
  0.130100D+02  0.196850D-01
  0.196200D+01  0.137977D+00
  0.444600D+00  0.478148D+00
  0.122000D+00  0.501240D+00
   s     1 1.00
  0.122000D+00  0.100000D+01
   p     1 1.00
  0.727000D+00  0.100000D+01
  
 13  0
   s     4 1.00
  0.130100D+02  0.196850D-01
  0.196200D+01  0.137977D+00
  0.444600D+00  0.478148D+00
  0.122000D+00  0.501240D+00
   s     1 1.00
  0.122000D+00  0.100000D+01
   p     1 1.00
  0.727000D+00  0.100000D+01
  
 14  0
   s     4 1.00
  0.130100D+02  0.196850D-01
  0.196200D+01  0.137977D+00
  0.444600D+00  0.478148D+00
  0.122000D+00  0.501240D+00
   s     1 1.00
  0.122000D+00  0.100000D+01
   p     1 1.00
  0.727000D+00  0.100000D+01
  
[MO]
 Sym= __1_A__
 Ene=   1.00000000000000     
 Spin= Alpha
 Occup=    1.00000000000000     
                     1 -7.829080097364537E-004
                     2  0.997504245489117     
                     3 -3.974910690416215E-002
                     4  2.128732540748701E-003
                     5  4.456559036984471E-003
                     6  1.452122319728532E-002
                     7 -3.121756433227363E-003
                     8  2.974540834116477E-002
                     9 -1.321419563860461E-003
                    10  2.115791724786895E-004
                    11 -2.098414170515821E-003
                    12 -3.830482195132415E-003
                    13  5.670262155379922E-004
                    14 -5.694335850821667E-003
                    15  1.987881784545567E-004
                    16  1.083884788519652E-004
                    17 -4.499652673016742E-005
                    18  5.469360325761544E-005
                    19 -9.582957881578917E-006
                    20  8.477339622106112E-004
                    21  6.838957340300409E-004
                    22 -1.595545277457379E-004
                    23  2.105092631281486E-005
                    24 -7.978377734462762E-005
                    25  2.213966969919563E-005
                    26 -5.526766088732501E-005
                    27 -1.520721075009224E-006
                    28  3.230020499460496E-005
                    29  2.338790981189551E-005
                    30  7.299075303001457E-005
                    31 -1.132246232575316E-005
                    32 -6.041621151126945E-004
                    33  4.262698073203201E-004
                    34  2.027064970952571E-004
                    35  1.702591739093006E-004
                    36  1.185595510584750E-003
                    37  1.392029444830434E-004
                    38 -8.784861460458666E-004
                    39 -8.895048161240320E-004
                    40 -1.250915229272772E-005
                    41 -1.123703384249711E-004
                    42  2.676751626445332E-003
                    43  1.046953135190591E-004
                    44 -2.245611094130171E-004
                    45  6.715214910463688E-005
                    46 -4.208327490709350E-004
                    47 -1.590992033264277E-005
                    48 -8.883124297675723E-005
                    49  4.506845201012084E-005
                    50 -2.806308037982871E-004
                    51 -5.843051330719704E-004
                    52  2.328509839730847E-005
                    53  1.483925432936033E-004
                    54  7.825333658552143E-005
                    55  1.252651622903361E-004
                    56  5.409752613718310E-006
                    57  1.289283147924811E-005
                    58  1.281064542422573E-004
                    59  1.334325516231615E-006
                    60 -3.539516070676748E-005
                    61 -1.556765493075727E-005
                    62 -7.265465286319968E-004
                    63  1.044217209348048E-003
                    64 -1.151485502795029E-004
                    65  2.503273011921517E-003
                    66 -4.186813873977617E-003
                    67 -2.181497532132506E-004
                    68  8.076769400352767E-004
                    69  5.082808471279386E-004
                    70 -2.343158444866007E-005
                    71  3.208297058450014E-004
                    72  6.843189713850520E-004
                    73  3.147176207118449E-004
                    74 -2.473853920946133E-003
                    75  1.510204024871764E-004
                    76 -6.055127613245508E-005
                    77 -3.272196826981806E-005
                    78 -5.875579032415420E-006
                    79  6.992820792125400E-006
                    80 -1.268085039097132E-004
                    81 -3.570709526807869E-004
                    82  1.514860747791847E-005
                    83  5.831113276403466E-006
                    84  4.287253883410416E-005
                    85 -2.090014360930442E-005
                    86 -1.357498884287276E-004
                    87 -7.424402462884648E-006
                    88 -1.539494112792976E-005
                    89  1.484614952725789E-005
                    90 -6.880336395501453E-005
                    91  8.120549355289108E-006
                    92  1.585023337049820E-005
                    93 -1.435233481849463E-003
                    94  2.247052325843163E-004
                    95 -6.827989965448840E-004
                    96 -6.936695105579521E-005
                    97 -1.644009846686495E-004
                    98  1.362674259151180E-003
                    99 -8.060971488470544E-005
                   100  8.440251557182341E-006
                   101 -9.052060648156089E-005
                   102 -8.010697079009587E-004
                   103  7.068153569162731E-005
                   104 -7.888719528844738E-004
                   105 -6.476427006569808E-005
                   106  5.162195910467317E-006
                   107  6.383373755649011E-006
                   108  6.054519135039682E-005
                   109  2.890807576323883E-006
                   110  1.756549938790368E-004
                   111  4.628114261982943E-004
                   112 -8.909179800911165E-006
                   113 -1.156604049047345E-004
                   114 -6.190611875097180E-005
                   115 -3.525962002935800E-005
                   116 -1.392842793968608E-005
                   117 -4.941598266413877E-006
                   118 -3.141275957899646E-005
                   119  2.979153986988187E-006
                   120  1.462830603919611E-005
                   121  3.255283519403469E-006
                   122 -2.570498538931772E-004
                   123 -2.037941690302789E-003
                   124  1.471039865261121E-004
                   125  4.017768116516679E-004
                   126  2.168131749363474E-003
                   127  8.406625290115442E-005
                   128 -1.757077300592067E-004
                   129  3.662250650398295E-004
                   130 -2.411716639516608E-005
                   131  2.918639952728572E-004
                   132 -7.188758595216057E-005
                   133 -1.210194703200330E-004
                   134  9.980111905530805E-004
                   135  7.253442417253052E-005
                   136 -2.236668879817885E-005
                   137 -7.364146286662717E-006
                   138 -7.013816929433128E-005
                   139 -1.394516450640204E-006
                   140  1.849349345653601E-004
                   141  2.543774681890286E-006
                   142 -1.105260174205705E-005
                   143 -2.278714710201024E-004
                   144 -1.354666483847182E-005
                   145  1.203002427814813E-006
                   146 -3.408643872981176E-005
                   147 -5.555873433496488E-006
                   148  2.522540428015348E-005
                   149 -2.472568903401062E-006
                   150 -7.084620716380738E-005
                   151  2.484690304967598E-006
                   152 -9.468264930112498E-005
                   153 -3.454768254605877E-005
                   154 -7.117929568490082E-005
                   155  8.007789082939379E-004
                   156  4.258390975101357E-004
                   157 -1.493396017601920E-005
                   158  2.293685207786737E-004
                   159 -3.742223922630659E-004
                   160  3.584437738770625E-006
                   161 -1.215144076861493E-004
                   162  4.058287047132601E-004
                   163 -1.098665612429645E-004
                   164  1.021143640160037E-003
                   165  8.220716809169092E-006
                   166 -1.814601995046805E-005
                   167 -4.449923859298916E-006
                   168  1.804535316553189E-005
                   169  3.231235575788272E-006
                   170 -7.457959543734523E-005
                   171  6.098296254412844E-006
                   172  3.295366247842771E-005
                   173 -1.416865635996472E-004
                   174 -9.098306061194075E-006
                   175  8.888600887348600E-006
                   176 -2.040476883332102E-005
                   177  7.863071644220355E-007
                   178  6.511151242021254E-006
                   179  2.721236107621278E-006
                   180 -1.054687275690685E-005
                   181 -4.138083578596989E-008
                   182 -9.599579398510960E-005
                   183 -2.081766828495271E-005
                   184  2.130778924339894E-005
                   185  2.188354469763476E-004
                   186 -2.963587918598567E-004
                   187  9.475316669499052E-006
                   188 -1.519283598905816E-004
                   189  1.368683672961553E-004
                   190 -3.559646962389271E-005
                   191  3.321680676057365E-004
                   192 -4.222225317621979E-004
                   193 -1.883416396308988E-005
                   194  5.488577924996654E-005
                   195  3.435773296815195E-005
                   196 -1.894891782902992E-005
                   197 -5.791438559402951E-006
                   198 -1.626661224877404E-005
                   199  1.331950753574873E-006
                   200 -1.453242833220390E-006
                   201 -1.406768490617438E-004
                   202 -5.481319810959476E-007
                   203 -2.777410273675216E-005
                   204  1.516092701017566E-005
                   205 -3.210349999686546E-006
                   206  5.407271606048700E-006
                   207 -1.895714878238111E-006
                   208  5.590785948202878E-006
                   209 -1.477263676196665E-006
                   210 -5.310834470533636E-006
                   211 -3.606892839150927E-007
                   212 -3.480100177856160E-003
                   213  2.485449230508106E-003
                   214  1.480717825705328E-004
                   215 -2.532508682817680E-004
                   216  5.209498567146235E-004
                   217 -3.480100876598895E-003
                   218  2.485449393665434E-003
                   219  1.368569010739401E-004
                   220  1.319214323906350E-004
                   221  5.668482643809120E-004
                   222  2.290512636694793E-003
                   223 -2.424731622627936E-003
                   224  3.731063984907861E-005
                   225 -1.702716465166316E-005
                   226  1.520062982800095E-004
                   227  3.584327814498913E-004
                   228  5.709489527015056E-004
                   229 -6.175204574296913E-005
                   230  1.119065215112025E-005
                   231 -1.089974604599594E-004
                   232  9.101144585587729E-004
                   233  3.936664243090595E-004
                   234  6.045365240258137E-006
                   235 -5.629293256191247E-006
                   236  4.871749826838510E-005
                   237  3.129804369631560E-004
                   238 -9.050673567438700E-004
                   239 -5.308123815427448E-005
                   240  2.825172777422439E-006
                   241 -3.667892877146406E-005
                   242 -4.034284601807685E-004
                   243  2.644255428219266E-004
                   244  3.120259512495382E-005
                   245  1.586093658217189E-006
                   246 -5.686603338942862E-006
 Sym= __2_A__
 Ene=   2.00000000000000     
 Spin= Alpha
 Occup=    1.00000000000000     
                     1 -6.598350022509950E-005
                     2  2.369457711177131E-004
                     3 -1.831239914737243E-003
                     4 -7.358169755484284E-006
                     5  9.845148407203904E-004
                     6  1.604306827154993E-003
                     7 -1.506316527378359E-004
                     8  1.656074494065769E-003
                     9 -1.615884184621597E-004
                    10  1.571895669758143E-005
                    11 -1.713937533655906E-004
                    12  1.353922504575539E-004
                    13  2.543739001340816E-005
                    14 -1.803847771929258E-004
                    15 -3.962932463641512E-005
                    16  3.512707901372863E-005
                    17  3.245044935660969E-006
                    18  5.041427091016932E-005
                    19 -1.262418982623863E-006
                    20  9.107615534404381E-005
                    21 -5.928360269829342E-005
                    22 -3.126078208954668E-005
                    23  8.602347214879369E-005
                    24  1.219238097380399E-005
                    25 -3.312263871133359E-005
                    26  1.275276165698957E-004
                    27  6.281673616938028E-006
                    28 -6.350372450706849E-005
                    29 -1.040191678755053E-005
                    30  1.199617201092305E-004
                    31 -1.083907707537622E-006
                    32   1.00083719541938     
                    33  8.408950319171002E-003
                    34  2.858877110927320E-003
                    35 -8.438125113050123E-003
                    36 -1.037802210409243E-003
                    37 -4.490810816054233E-005
                    38  1.232857184037887E-004
                    39  7.814585879446684E-004
                    40  8.371120007736407E-005
                    41 -5.115501985823898E-004
                    42  2.324614013559646E-003
                    43  4.905309062274178E-006
                    44  5.268292810022265E-004
                    45  3.307731578908600E-004
                    46 -2.982584743784118E-005
                    47 -1.056952758833379E-004
                    48  2.935683586463968E-004
                    49  2.103390273269477E-005
                    50 -1.034094726043164E-003
                    51 -4.500519073446526E-004
                    52  2.172885413208359E-004
                    53 -1.177692864511233E-004
                    54  4.605664103765284E-005
                    55 -2.176557601181220E-005
                    56  2.511637598618123E-004
                    57  7.236320480976351E-006
                    58 -3.078957532595860E-005
                    59 -4.044629225739600E-005
                    60  6.381637664959818E-005
                    61 -7.301739787233809E-007
                    62  1.621011170535598E-002
                    63 -1.203808150562387E-003
                    64 -2.885687579198627E-004
                    65  2.703560958436025E-003
                    66 -5.670993007525204E-004
                    67 -7.766695861842333E-005
                    68  5.132054499979743E-004
                    69  2.284715849987397E-005
                    70 -2.876199020491553E-005
                    71  2.469486986301041E-004
                    72  1.270509125902492E-004
                    73  2.167924632277135E-004
                    74 -1.788248033868319E-003
                    75  2.393294128583099E-005
                    76  2.576583435633198E-005
                    77  2.251811234686597E-006
                    78 -5.360495941773674E-005
                    79 -6.204987729147526E-006
                    80 -5.886024479032703E-004
                    81 -3.984217678752221E-004
                    82  1.229727930565146E-005
                    83  8.176339072120770E-004
                    84  9.512868198769852E-005
                    85  3.360235644411914E-005
                    86  1.061254625619530E-004
                    87  1.979191749778915E-005
                    88 -3.171483356213650E-005
                    89 -2.619521478511727E-005
                    90 -2.601622992101630E-005
                    91  7.303487175684126E-006
                    92  1.898539592150060E-002
                    93 -1.751171985164653E-003
                    94 -3.496477984278058E-004
                    95  3.447299931566214E-003
                    96 -3.068022035070938E-004
                    97  2.816363276572782E-005
                    98 -3.113089938014048E-004
                    99 -1.420435468749896E-004
                   100  9.618395185832690E-005
                   101 -8.418682174902927E-004
                   102  4.596652360294630E-004
                   103 -1.602513207582742E-004
                   104  1.457121288456584E-003
                   105  1.104496311641662E-005
                   106 -8.778561864734197E-007
                   107  2.541754821616722E-007
                   108 -2.141376212156618E-005
                   109 -1.144214739455532E-006
                   110 -1.279471623701404E-004
                   111  5.591407272212101E-004
                   112 -3.066162555735632E-005
                   113  6.127779422245504E-004
                   114 -3.086581739649171E-005
                   115 -4.418217978974835E-005
                   116  7.717052966892960E-005
                   117 -1.397290237811015E-005
                   118  1.552453378896567E-005
                   119 -1.781881737573704E-005
                   120 -2.734654790665565E-005
                   121  1.211443113743913E-007
                   122 -2.839848978705466E-005
                   123 -7.916301034337254E-004
                   124  2.469259126578756E-004
                   125 -4.603248593046010E-004
                   126  7.057314219187632E-005
                   127  9.614963206955689E-006
                   128 -6.344587547686920E-005
                   129  6.183715141150765E-004
                   130  1.088962884636569E-005
                   131  5.971450805321389E-005
                   132  1.244697217577280E-004
                   133 -4.777612670461768E-005
                   134  4.313472689301766E-004
                   135  3.956579707168894E-006
                   136  3.396968118731945E-005
                   137  5.405196321597268E-006
                   138 -4.307689577783562E-005
                   139 -6.580769346105214E-006
                   140  1.829688712351044E-004
                   141 -3.201179600158742E-004
                   142 -2.214118422127376E-005
                   143 -2.127065248790006E-004
                   144  2.585952954289012E-005
                   145 -5.014390672944885E-006
                   146  1.033032494347283E-005
                   147 -1.567227779563753E-006
                   148  2.048481857094850E-006
                   149 -4.545798181885762E-006
                   150 -1.815633415977981E-005
                   151  1.310866523523713E-006
                   152  8.241141906015717E-005
                   153 -7.761854583237179E-004
                   154  2.278273046437901E-004
                   155 -1.175021274463008E-004
                   156 -3.802746528702936E-005
                   157 -7.919842495781960E-006
                   158  5.717147233085794E-005
                   159  4.671344470626974E-004
                   160  1.691186973302625E-005