[Molden Format]
[Atoms] AU
  N     1    7     0.0000000000    0.0000000000   -4.4452372400        
  C     2    6     0.0000000000    0.0000000000   -1.9043157000        
  C     3    6     0.0000000000   -2.2449006100   -0.4761623300        
  C     4    6     0.0000000000    2.2449006100   -0.4761623300        
  C     5    6     0.0000000000   -2.2137158200    2.2301167700        
  C     6    6     0.0000000000    2.2137158200    2.2301167700        
  C     7    6     0.0000000000    0.0000000000    3.5924715500        
  H     8    1     0.0000000000   -1.6392592900   -5.4429351700        
  H     9    1     0.0000000000    1.6392592900   -5.4429351700        
  H    10    1     0.0000000000   -4.0321558700   -1.4196127800        
  H    11    1     0.0000000000    4.0321558700   -1.4196127800        
  H    12    1     0.0000000000   -4.0044493400    3.1794858800        
  H    13    1     0.0000000000    4.0044493400    3.1794858800        
  H    14    1     0.0000000000    0.0000000000    5.6140935900        
[5D]
[7F]
[GTO]
  1  0
   s    12 1.00
  0.114200D+05  0.172695D-04
  0.171200D+04  0.134411D-03
  0.389300D+03  0.694561D-03
  0.110000D+03  0.278531D-02
  0.355700D+02  0.863457D-02
  0.125400D+02  0.199805D-01
  0.464400D+01  0.262908D-01
  0.129300D+01 -0.243845D-01
  0.511800D+00 -0.924934D-01
  0.178700D+00 -0.339683D+00
  0.246240D-01  0.345111D+00
  0.112530D-01  0.752750D+00
   s    10 1.00
  0.114200D+05  0.523000D-03
  0.171200D+04  0.404500D-02
  0.389300D+03  0.207750D-01
  0.110000D+03  0.807269D-01
  0.355700D+02  0.233074D+00
  0.125400D+02  0.433501D+00
  0.464400D+01  0.347472D+00
  0.129300D+01  0.412620D-01
  0.511800D+00 -0.850799D-02
  0.178700D+00  0.238400D-02
   s    10 1.00
  0.114200D+05 -0.115000D-03
  0.171200D+04 -0.895000D-03
  0.389300D+03 -0.462400D-02
  0.110000D+03 -0.185280D-01
  0.355700D+02 -0.573390D-01
  0.125400D+02 -0.132076D+00
  0.464400D+01 -0.172510D+00
  0.129300D+01  0.151814D+00
  0.511800D+00  0.599944D+00
  0.178700D+00  0.387462D+00
   s     1 1.00
  0.129300D+01  0.100000D+01
   s     1 1.00
  0.178700D+00  0.100000D+01
   p     5 1.00
  0.266300D+02  0.146700D-01
  0.594800D+01  0.917640D-01
  0.174200D+01  0.298683D+00
  0.555000D+00  0.498487D+00
  0.172500D+00  0.337023D+00
   p     1 1.00
  0.174200D+01  0.100000D+01
   p     1 1.00
  0.555000D+00  0.100000D+01
   d     1 1.00
  0.165400D+01  0.100000D+01
   d     1 1.00
  0.469000D+00  0.100000D+01
   f     1 1.00
  0.109300D+01  0.100000D+01
  
  2  0
   s    10 1.00
  0.823600D+04  0.531000D-03
  0.123500D+04  0.410800D-02
  0.280800D+03  0.210870D-01
  0.792700D+02  0.818530D-01
  0.255900D+02  0.234817D+00
  0.899700D+01  0.434401D+00
  0.331900D+01  0.346129D+00
  0.905900D+00  0.393780D-01
  0.364300D+00 -0.898300D-02
  0.128500D+00  0.238500D-02
   s    10 1.00
  0.823600D+04 -0.113000D-03
  0.123500D+04 -0.878000D-03
  0.280800D+03 -0.454000D-02
  0.792700D+02 -0.181330D-01
  0.255900D+02 -0.557600D-01
  0.899700D+01 -0.126895D+00
  0.331900D+01 -0.170352D+00
  0.905900D+00  0.140382D+00
  0.364300D+00  0.598684D+00
  0.128500D+00  0.395389D+00
   s     1 1.00
  0.905900D+00  0.100000D+01
   s     1 1.00
  0.364300D+00  0.100000D+01
   p     5 1.00
  0.187100D+02  0.140310D-01
  0.413300D+01  0.868660D-01
  0.120000D+01  0.290216D+00
  0.382700D+00  0.501008D+00
  0.120900D+00  0.343406D+00
   p     1 1.00
  0.382700D+00  0.100000D+01
   p     1 1.00
  0.120900D+00  0.100000D+01
   d     1 1.00
  0.109700D+01  0.100000D+01
   d     1 1.00
  0.318000D+00  0.100000D+01
   f     1 1.00
  0.761000D+00  0.100000D+01
  
  3  0
   s    10 1.00
  0.823600D+04  0.531000D-03
  0.123500D+04  0.410800D-02
  0.280800D+03  0.210870D-01
  0.792700D+02  0.818530D-01
  0.255900D+02  0.234817D+00
  0.899700D+01  0.434401D+00
  0.331900D+01  0.346129D+00
  0.905900D+00  0.393780D-01
  0.364300D+00 -0.898300D-02
  0.128500D+00  0.238500D-02
   s    10 1.00
  0.823600D+04 -0.113000D-03
  0.123500D+04 -0.878000D-03
  0.280800D+03 -0.454000D-02
  0.792700D+02 -0.181330D-01
  0.255900D+02 -0.557600D-01
  0.899700D+01 -0.126895D+00
  0.331900D+01 -0.170352D+00
  0.905900D+00  0.140382D+00
  0.364300D+00  0.598684D+00
  0.128500D+00  0.395389D+00
   s     1 1.00
  0.905900D+00  0.100000D+01
   s     1 1.00
  0.364300D+00  0.100000D+01
   p     5 1.00
  0.187100D+02  0.140310D-01
  0.413300D+01  0.868660D-01
  0.120000D+01  0.290216D+00
  0.382700D+00  0.501008D+00
  0.120900D+00  0.343406D+00
   p     1 1.00
  0.382700D+00  0.100000D+01
   p     1 1.00
  0.120900D+00  0.100000D+01
   d     1 1.00
  0.109700D+01  0.100000D+01
   d     1 1.00
  0.318000D+00  0.100000D+01
   f     1 1.00
  0.761000D+00  0.100000D+01
  
  4  0
   s    10 1.00
  0.823600D+04  0.531000D-03
  0.123500D+04  0.410800D-02
  0.280800D+03  0.210870D-01
  0.792700D+02  0.818530D-01
  0.255900D+02  0.234817D+00
  0.899700D+01  0.434401D+00
  0.331900D+01  0.346129D+00
  0.905900D+00  0.393780D-01
  0.364300D+00 -0.898300D-02
  0.128500D+00  0.238500D-02
   s    10 1.00
  0.823600D+04 -0.113000D-03
  0.123500D+04 -0.878000D-03
  0.280800D+03 -0.454000D-02
  0.792700D+02 -0.181330D-01
  0.255900D+02 -0.557600D-01
  0.899700D+01 -0.126895D+00
  0.331900D+01 -0.170352D+00
  0.905900D+00  0.140382D+00
  0.364300D+00  0.598684D+00
  0.128500D+00  0.395389D+00
   s     1 1.00
  0.905900D+00  0.100000D+01
   s     1 1.00
  0.364300D+00  0.100000D+01
   p     5 1.00
  0.187100D+02  0.140310D-01
  0.413300D+01  0.868660D-01
  0.120000D+01  0.290216D+00
  0.382700D+00  0.501008D+00
  0.120900D+00  0.343406D+00
   p     1 1.00
  0.382700D+00  0.100000D+01
   p     1 1.00
  0.120900D+00  0.100000D+01
   d     1 1.00
  0.109700D+01  0.100000D+01
   d     1 1.00
  0.318000D+00  0.100000D+01
   f     1 1.00
  0.761000D+00  0.100000D+01
  
  5  0
   s    10 1.00
  0.823600D+04  0.531000D-03
  0.123500D+04  0.410800D-02
  0.280800D+03  0.210870D-01
  0.792700D+02  0.818530D-01
  0.255900D+02  0.234817D+00
  0.899700D+01  0.434401D+00
  0.331900D+01  0.346129D+00
  0.905900D+00  0.393780D-01
  0.364300D+00 -0.898300D-02
  0.128500D+00  0.238500D-02
   s    10 1.00
  0.823600D+04 -0.113000D-03
  0.123500D+04 -0.878000D-03
  0.280800D+03 -0.454000D-02
  0.792700D+02 -0.181330D-01
  0.255900D+02 -0.557600D-01
  0.899700D+01 -0.126895D+00
  0.331900D+01 -0.170352D+00
  0.905900D+00  0.140382D+00
  0.364300D+00  0.598684D+00
  0.128500D+00  0.395389D+00
   s     1 1.00
  0.905900D+00  0.100000D+01
   s     1 1.00
  0.364300D+00  0.100000D+01
   p     5 1.00
  0.187100D+02  0.140310D-01
  0.413300D+01  0.868660D-01
  0.120000D+01  0.290216D+00
  0.382700D+00  0.501008D+00
  0.120900D+00  0.343406D+00
   p     1 1.00
  0.382700D+00  0.100000D+01
   p     1 1.00
  0.120900D+00  0.100000D+01
   d     1 1.00
  0.109700D+01  0.100000D+01
   d     1 1.00
  0.318000D+00  0.100000D+01
   f     1 1.00
  0.761000D+00  0.100000D+01
  
  6  0
   s    10 1.00
  0.823600D+04  0.531000D-03
  0.123500D+04  0.410800D-02
  0.280800D+03  0.210870D-01
  0.792700D+02  0.818530D-01
  0.255900D+02  0.234817D+00
  0.899700D+01  0.434401D+00
  0.331900D+01  0.346129D+00
  0.905900D+00  0.393780D-01
  0.364300D+00 -0.898300D-02
  0.128500D+00  0.238500D-02
   s    10 1.00
  0.823600D+04 -0.113000D-03
  0.123500D+04 -0.878000D-03
  0.280800D+03 -0.454000D-02
  0.792700D+02 -0.181330D-01
  0.255900D+02 -0.557600D-01
  0.899700D+01 -0.126895D+00
  0.331900D+01 -0.170352D+00
  0.905900D+00  0.140382D+00
  0.364300D+00  0.598684D+00
  0.128500D+00  0.395389D+00
   s     1 1.00
  0.905900D+00  0.100000D+01
   s     1 1.00
  0.364300D+00  0.100000D+01
   p     5 1.00
  0.187100D+02  0.140310D-01
  0.413300D+01  0.868660D-01
  0.120000D+01  0.290216D+00
  0.382700D+00  0.501008D+00
  0.120900D+00  0.343406D+00
   p     1 1.00
  0.382700D+00  0.100000D+01
   p     1 1.00
  0.120900D+00  0.100000D+01
   d     1 1.00
  0.109700D+01  0.100000D+01
   d     1 1.00
  0.318000D+00  0.100000D+01
   f     1 1.00
  0.761000D+00  0.100000D+01
  
  7  0
   s    10 1.00
  0.823600D+04  0.531000D-03
  0.123500D+04  0.410800D-02
  0.280800D+03  0.210870D-01
  0.792700D+02  0.818530D-01
  0.255900D+02  0.234817D+00
  0.899700D+01  0.434401D+00
  0.331900D+01  0.346129D+00
  0.905900D+00  0.393780D-01
  0.364300D+00 -0.898300D-02
  0.128500D+00  0.238500D-02
   s    10 1.00
  0.823600D+04 -0.113000D-03
  0.123500D+04 -0.878000D-03
  0.280800D+03 -0.454000D-02
  0.792700D+02 -0.181330D-01
  0.255900D+02 -0.557600D-01
  0.899700D+01 -0.126895D+00
  0.331900D+01 -0.170352D+00
  0.905900D+00  0.140382D+00
  0.364300D+00  0.598684D+00
  0.128500D+00  0.395389D+00
   s     1 1.00
  0.905900D+00  0.100000D+01
   s     1 1.00
  0.364300D+00  0.100000D+01
   p     5 1.00
  0.187100D+02  0.140310D-01
  0.413300D+01  0.868660D-01
  0.120000D+01  0.290216D+00
  0.382700D+00  0.501008D+00
  0.120900D+00  0.343406D+00
   p     1 1.00
  0.382700D+00  0.100000D+01
   p     1 1.00
  0.120900D+00  0.100000D+01
   d     1 1.00
  0.109700D+01  0.100000D+01
   d     1 1.00
  0.318000D+00  0.100000D+01
   f     1 1.00
  0.761000D+00  0.100000D+01
  
  8  0
   s     4 1.00
  0.130100D+02  0.196850D-01
  0.196200D+01  0.137977D+00
  0.444600D+00  0.478148D+00
  0.122000D+00  0.501240D+00
   s     1 1.00
  0.122000D+00  0.100000D+01
   p     1 1.00
  0.727000D+00  0.100000D+01
  
  9  0
   s     4 1.00
  0.130100D+02  0.196850D-01
  0.196200D+01  0.137977D+00
  0.444600D+00  0.478148D+00
  0.122000D+00  0.501240D+00
   s     1 1.00
  0.122000D+00  0.100000D+01
   p     1 1.00
  0.727000D+00  0.100000D+01
  
 10  0
   s     4 1.00
  0.130100D+02  0.196850D-01
  0.196200D+01  0.137977D+00
  0.444600D+00  0.478148D+00
  0.122000D+00  0.501240D+00
   s     1 1.00
  0.122000D+00  0.100000D+01
   p     1 1.00
  0.727000D+00  0.100000D+01
  
 11  0
   s     4 1.00
  0.130100D+02  0.196850D-01
  0.196200D+01  0.137977D+00
  0.444600D+00  0.478148D+00
  0.122000D+00  0.501240D+00
   s     1 1.00
  0.122000D+00  0.100000D+01
   p     1 1.00
  0.727000D+00  0.100000D+01
  
 12  0
   s     4 1.00
  0.130100D+02  0.196850D-01
  0.196200D+01  0.137977D+00
  0.444600D+00  0.478148D+00
  0.122000D+00  0.501240D+00
   s     1 1.00
  0.122000D+00  0.100000D+01
   p     1 1.00
  0.727000D+00  0.100000D+01
  
 13  0
   s     4 1.00
  0.130100D+02  0.196850D-01
  0.196200D+01  0.137977D+00
  0.444600D+00  0.478148D+00
  0.122000D+00  0.501240D+00
   s     1 1.00
  0.122000D+00  0.100000D+01
   p     1 1.00
  0.727000D+00  0.100000D+01
  
 14  0
   s     4 1.00
  0.130100D+02  0.196850D-01
  0.196200D+01  0.137977D+00
  0.444600D+00  0.478148D+00
  0.122000D+00  0.501240D+00
   s     1 1.00
  0.122000D+00  0.100000D+01
   p     1 1.00
  0.727000D+00  0.100000D+01
  
[MO]
 Sym= __1_A__
 Ene=  0.000000000000000E+000
 Spin= Alpha
 Occup=    2.00000000000000     
                     1  3.971672421660019E-005
                     2  0.998042548214036     
                     3  8.288077457691133E-003
                     4  2.090647150590509E-003
                     5  1.745415472608569E-003
                     6 -6.738207172637607E-013
                     7 -8.015841860873690E-010
                     8  4.424013457954131E-003
                     9  3.193846094785802E-012
                    10  8.990218296540486E-009
                    11 -1.961877655519203E-004
                    12 -2.444040211172731E-012
                    13 -3.861499906318549E-008
                    14 -2.806316513292449E-004
                    15  2.287076362403116E-004
                    16  2.055941923063294E-012
                    17 -1.452192380867006E-010
                    18 -1.227681786102847E-004
                    19  5.737106504488988E-013
                    20  1.387556552052327E-004
                    21 -3.329968564863493E-012
                    22 -2.977733279853734E-009
                    23  5.417721390200336E-004
                    24 -1.580345643806672E-012
                    25 -1.864791376296076E-004
                    26 -2.704414874081127E-012
                    27  2.568775324646914E-009
                    28  9.515076315575485E-005
                    29  1.446614133938944E-012
                    30  1.619944144387283E-012
                    31  2.122620775693363E-010
                    32 -3.376608890751581E-004
                    33  2.574262609774228E-003
                    34  1.466704046821106E-004
                    35 -2.802071817603306E-004
                    36  7.577840796086787E-012
                    37  1.502111475697806E-008
                    38 -6.520056097633164E-003
                    39 -5.497752380587950E-012
                    40 -3.487438102058478E-008
                    41  1.973567733131131E-004
                    42  1.551317060557234E-013
                    43  4.684238005040915E-008
                    44  4.231994927686809E-003
                    45  3.203822144498679E-004
                    46  2.448036440706661E-012
                    47  6.518095680268345E-009
                    48  1.256737101727419E-004
                    49  1.141845264946529E-012
                    50  1.889178175385786E-004
                    51 -5.908585015499336E-012
                    52 -8.907427731701739E-008
                    53 -3.314758570320984E-004
                    54 -2.042110216273721E-012
                    55 -1.032480018219985E-004
                    56  2.289673156269990E-012
                    57 -3.532465590023547E-009
                    58  7.935076630335944E-005
                    59 -2.483143232219397E-013
                    60  5.009841655269938E-012
                    61  1.200338855106085E-010
                    62 -2.301167082976723E-004
                    63 -1.706092106296698E-003
                    64  5.150649966970090E-005
                    65  6.109434626498447E-004
                    66  6.264879619948950E-012
                    67 -7.504296667180876E-004
                    68  9.446282546509271E-004
                    69 -2.609772986155454E-012
                    70  2.860849916105258E-005
                    71  4.347803360690097E-004
                    72 -8.178372935209745E-012
                    73 -5.773256444513841E-004
                    74 -1.172363664129716E-004
                    75  8.078465458467146E-005
                    76  3.828855888097587E-012
                    77 -6.079555059337942E-006
                    78  3.666766424261576E-005
                    79 -1.448674565239993E-012
                    80 -4.342791387652989E-005
                    81 -3.787167579870855E-012
                    82  8.830792405015948E-005
                    83 -3.995896037734116E-005
                    84  2.821735297665261E-012
                    85 -9.237080870968758E-005
                    86 -2.318998001670793E-013
                    87 -1.076596302278004E-005
                    88  2.567824335614782E-005
                    89  7.622956266837146E-013
                    90  1.460090467487903E-012
                    91  2.041996224224059E-005
                    92 -2.300995932767754E-004
                    93 -1.706016939270834E-003
                    94  5.160724559782452E-005
                    95  6.106780442446212E-004
                    96  1.224495205269727E-011
                    97  7.504442663107992E-004
                    98  9.447117684247532E-004
                    99 -1.123285529189225E-011
                   100 -2.870473443236637E-005
                   101  4.344008663574162E-004
                   102  9.980345301864349E-013
                   103  5.769931846286539E-004
                   104 -1.171150140172318E-004
                   105  8.077090329162408E-005
                   106 -2.847643055753097E-013
                   107  6.091964685218655E-006
                   108  3.666940711011182E-005
                   109  3.289428771572668E-012
                   110 -4.371013099076216E-005
                   111  1.494083381772447E-012
                   112 -8.838298470485343E-005
                   113 -4.001717982034898E-005
                   114 -6.429343892996275E-012
                   115 -9.232380917971713E-005
                   116 -2.870305283723364E-013
                   117  1.076261867502334E-005
                   118  2.567641619403364E-005
                   119  3.447626812792272E-012
                   120  6.872472831363906E-013
                   121 -2.041936992433669E-005
                   122 -1.458590572731374E-004
                   123 -5.395997274693146E-005
                   124  7.668822958874902E-005
                   125  2.742187835623678E-004
                   126 -1.099135436562955E-011
                   127  1.873570567893026E-005
                   128 -7.709243194358838E-004
                   129  1.004015168865347E-011
                   130  5.171793082886939E-005
                   131  2.394985834280370E-004
                   132  4.994538610506431E-012
                   133 -1.168896217993594E-004
                   134  6.449021090634338E-004
                   135 -5.124307223533859E-006
                   136  2.133185512419690E-012
                   137  7.243021169420000E-007
                   138 -7.531507114135710E-008
                   139 -3.956286292529074E-013
                   140 -1.454671997130755E-004
                   141 -3.705017488786344E-012
                   142  1.224633958730262E-004
                   143  2.125312378518596E-005
                   144 -3.465248341510608E-012
                   145 -3.694434249062524E-005
                   146  1.012081969418275E-012
                   147 -4.913562036796022E-008
                   148 -9.618650122154514E-006
                   149  1.593947572081485E-012
                   150 -3.093379490171764E-012
                   151 -2.850264631115121E-006
                   152 -1.462073724187808E-004
                   153 -5.519309661930532E-005
                   154  7.636654367921567E-005
                   155  2.762584960941976E-004
                   156  2.141927360055109E-012
                   157 -1.874281345195006E-005
                   158 -7.708865034485914E-004
                   159  6.491520509446462E-013
                   160 -5.185775398388173E-005
                   161  2.392984247653853E-004
                   162 -1.184281823982076E-012
                   163  1.172428990176009E-004
                   164  6.450220702276167E-004
                   165 -5.095811919845126E-006
                   166  4.304177623229964E-013
                   167 -7.235763647881027E-007
                   168 -1.085104191100257E-007
                   169 -2.687384895429682E-012
                   170 -1.453705941070198E-004
                   171  2.721823352266431E-013
                   172 -1.226151293997556E-004
                   173  2.123141903910904E-005
                   174  1.029996104422511E-012
                   175 -3.688405203788989E-005
                   176  7.224730244294976E-013
                   177  5.547360097617533E-008
                   178 -9.653360185106586E-006
                   179  2.089745123650547E-012
                   180  3.817282855098422E-012
                   181  2.847840070500327E-006
                   182 -1.176985057774521E-004
                   183 -3.995562631261240E-004
                   184  3.124372785770765E-005
                   185  1.410937660371645E-004
                   186 -4.788711284063253E-012
                   187  3.589720953434363E-008
                   188  3.746969931674854E-005
                   189  8.003203890303792E-012
                   190 -2.397604557256938E-007
                   191  3.420037504800622E-005
                   192 -4.328428155932115E-013
                   193 -3.439811471001132E-008
                   194 -8.155166045257336E-005
                   195  1.705141839876856E-005
                   196  1.039441629941362E-012
                   197  1.392532753159100E-008
                   198  1.228708015664679E-005
                   199  2.646115612718212E-012
                   200  8.685991378884230E-005
                   201 -6.358239752555168E-013
                   202  1.290758402392719E-007
                   203  4.844579725616560E-005
                   204 -4.032863134583308E-012
                   205 -4.475131635997585E-006
                   206  2.603835449019091E-012
                   207 -7.523681601746972E-009
                   208 -1.536842590655639E-006
                   209  3.594643586656896E-012
                   210 -1.352077087997904E-012
                   211  1.203766472271614E-008
                   212  3.716721061640948E-003
                   213 -2.261911985874882E-003
                   214 -1.943847298752839E-012
                   215  4.412232116006655E-004
                   216  3.536043591486393E-004
                   217  3.716756059772397E-003
                   218 -2.261929690720315E-003
                   219  5.871024926399820E-013
                   220 -4.412395719907546E-004
                   221  3.536134733656518E-004
                   222 -6.132949634879975E-004
                   223 -1.401022131902212E-004
                   224  1.370600399802524E-012
                   225 -1.566353593513004E-005
                   226 -5.284578916688063E-005
                   227 -6.133500008180899E-004
                   228 -1.398713296049673E-004
                   229  4.426510481638456E-012
                   230  1.565249828025981E-005
                   231 -5.286120022401949E-005
                   232 -1.926611747141647E-004
                   233 -3.361374158013433E-004
                   234 -6.831778529505841E-013
                   235 -7.051584379204069E-006
                   236 -9.246328356904665E-007
                   237 -1.927503954089004E-004
                   238 -3.361972394479979E-004
                   239 -2.157282296904606E-012
                   240  7.100897902466146E-006
                   241 -8.880938394717421E-007
                   242  1.092268649234544E-004
                   243 -3.371651335511681E-005
                   244 -2.570517776943607E-012
                   245 -1.159895732005887E-008
                   246  1.431589510877467E-005
 Sym= __2_A__
 Ene=  0.000000000000000E+000
 Spin= Alpha
 Occup=    2.00000000000000     
                     1 -4.826556814955879E-005
                     2 -1.207711980922289E-004
                     3  2.392761609311424E-003
                     4  6.124891852235611E-005
                     5  1.228760655298371E-003
                     6 -1.841349685107153E-011
                     7  1.039790073515515E-008
                     8  2.955417092504142E-003
                     9  5.030302246861935E-012
                    10 -5.802182441995769E-009
                    11 -8.527848297761232E-005
                    12  8.617171153142652E-012
                    13  2.838948677121092E-009
                    14 -4.052937793589779E-004
                    15  4.977610966972821E-005
                    16 -2.429339480085698E-012
                    17  3.212696649510518E-011
                    18  6.497745599462198E-005
                    19 -9.531734498491146E-014
                    20 -2.825472283005040E-004
                    21  1.028662607002376E-013
                    22  2.296430134691090E-009
                    23 -3.207286792651146E-004
                    24 -2.446889995471874E-012
                    25  2.078954944049152E-004
                    26  3.610360319262507E-012
                    27  5.297962769870678E-010
                    28 -2.060781392701366E-006
                    29 -5.455949195512933E-013
                    30  9.753277527359677E-013
                    31  6.590321995554414E-010
                    32   1.00093326944511     
                    33  9.197746505708830E-003
                    34  2.689990592213234E-003
                    35 -7.523033007011751E-003
                    36 -7.790044914196959E-012
                    37 -2.496555768700619E-009
                    38 -4.000776498798927E-003
                    39 -8.501896561658571E-013
                    40 -1.173182331250886E-008
                    41  1.122233603444737E-003
                    42  6.961774971422192E-012
                    43 -6.354146991185415E-008
                    44  4.214723922401505E-003
                    45  4.744470992291069E-004
                    46  2.929344944885740E-012
                    47 -3.037982050497318E-009
                    48 -4.487086812481408E-004
                    49  1.459018993507858E-012
                    50  1.471224910795085E-004
                    51 -1.558606576825713E-011
                    52  9.044765081063366E-009
                    53  6.800677521417212E-004
                    54  5.514578256720264E-013
                    55  3.970944876958025E-004
                    56 -3.113760596753543E-012
                    57 -6.306397473177316E-010
                    58 -2.396490430478282E-004
                    59  8.029929320032489E-013
                    60 -3.132727490925292E-012
                    61  1.848045013371074E-009
                    62  9.948231799954639E-003
                    63 -2.176783485187139E-003
                    64 -2.061910760307697E-004
                    65  2.836345988180245E-003
                    66 -3.154073831493557E-011
                    67  8.982069132455226E-005
                    68 -8.063819300445722E-005
                    69  2.358626893076304E-011
                    70  5.734629936359411E-004
                    71  1.397759661703117E-004
                    72  2.683937416866668E-011
                    73 -1.826559578838919E-003
                    74  3.755519222878438E-004
                    75 -2.244899624885552E-005
                    76 -2.631844196529659E-012
                    77  2.223602539977688E-005
                    78  4.899423714929590E-005
                    79 -9.748192536090593E-013
                    80  6.768461625383221E-004
                    81  4.787751259467377E-012
                    82 -1.635726861082411E-004
                    83 -7.650490882118966E-005
                    84  5.309240864706465E-012
                    85  7.092075409990910E-005
                    86  5.016663122812448E-014
                    87 -4.460035925360714E-006
                    88 -1.312581399687014E-004
                    89 -2.220672321333024E-012
                    90  5.849522144365758E-013
                    91  3.214425968874381E-005
                    92  9.948203738161491E-003
                    93 -2.176870472901704E-003
                    94 -2.062297073010801E-004
                    95  2.836514473335455E-003
                    96 -1.290255132567695E-011
                    97 -8.981905688565199E-005
                    98 -8.065972396431619E-005
                    99  1.461254176299638E-011
                   100 -5.734694690309129E-004
                   101  1.398662956454635E-004
                   102 -1.991133000862978E-012
                   103  1.826691678082822E-003
                   104  3.754086849250012E-004
                   105 -2.244009279853232E-005
                   106 -1.628747839325505E-012
                   107 -2.224215639542780E-005
                   108  4.899218850492458E-005
                   109 -4.076333615183202E-012
                   110  6.769036061390933E-004
                   111  5.251117668515087E-013
                   112  1.636236452913166E-004
                   113 -7.648977346540234E-005
                   114 -1.856792171669902E-012
                   115  7.090708737136918E-005
                   116 -1.096896466993914E-012
                   117  4.460173880293872E-006
                   118 -1.312550959844892E-004
                   119  5.185567634145803E-013
                   120  1.295955009957263E-012
                   121 -3.214263465250850E-005
                   122 -2.357202188676907E-004
                   123 -7.699682499942388E-004
                   124  2.430913747382523E-004
                   125 -4.524168264430804E-005
                   126 -2.421172716583336E-012
                   127  5.007279810781443E-006
                   128 -2.948199111618743E-004
                   129  1.072945094406723E-011
                   130 -8.796649565663537E-005
                   131  5.251400721026408E-004
                   132 -1.523976675500978E-011
                   133  2.480092510533073E-004
                   134  7.524484915559551E-004
                   135 -1.731572682857767E-005
                   136 -3.702516277302188E-012
                   137  2.559703807023963E-005
                   138  1.202446347374289E-005
                   139  1.484742641247669E-012
                   140 -2.887565708046597E-004
                   141  1.132053696629130E-011
                   142 -8.664429250222273E-005
                   143 -1.186790405565324E-005
                   144  2.114363801455669E-012
                   145 -8.214734780092883E-006
                   146 -2.902064239374400E-012
                   147 -3.933038919133683E-005
                   148 -4.237156187343754E-005
                   149  2.953228254495850E-012
                   150 -7.065969459704276E-013
                   151 -8.620783129150629E-007
                   152 -2.354498639826774E-004
                   153 -7.690717681656687E-004
                   154  2.431640930641787E-004
                   155 -4.622240420971587E-005
                   156  1.929121408259391E-011
                   157 -5.019431870450178E-006
                   158 -2.948182641748484E-004
                   159 -2.107428660400846E-011
                   160  8.803712070714775E-005