[Molden Format]
[Atoms] AU
  N     1    7     0.0000000000    0.0000000000   -4.4452372400        
  C     2    6     0.0000000000    0.0000000000   -1.9043157000        
  C     3    6     0.0000000000   -2.2449006100   -0.4761623300        
  C     4    6     0.0000000000    2.2449006100   -0.4761623300        
  C     5    6     0.0000000000   -2.2137158200    2.2301167700        
  C     6    6     0.0000000000    2.2137158200    2.2301167700        
  C     7    6     0.0000000000    0.0000000000    3.5924715500        
  H     8    1     0.0000000000   -1.6392592900   -5.4429351700        
  H     9    1     0.0000000000    1.6392592900   -5.4429351700        
  H    10    1     0.0000000000   -4.0321558700   -1.4196127800        
  H    11    1     0.0000000000    4.0321558700   -1.4196127800        
  H    12    1     0.0000000000   -4.0044493400    3.1794858800        
  H    13    1     0.0000000000    4.0044493400    3.1794858800        
  H    14    1     0.0000000000    0.0000000000    5.6140935900        
[5D]
[7F]
[GTO]
  1  0
   s    12 1.00
  0.114200D+05  0.172695D-04
  0.171200D+04  0.134411D-03
  0.389300D+03  0.694561D-03
  0.110000D+03  0.278531D-02
  0.355700D+02  0.863457D-02
  0.125400D+02  0.199805D-01
  0.464400D+01  0.262908D-01
  0.129300D+01 -0.243845D-01
  0.511800D+00 -0.924934D-01
  0.178700D+00 -0.339683D+00
  0.246240D-01  0.345111D+00
  0.112530D-01  0.752750D+00
   s    10 1.00
  0.114200D+05  0.523000D-03
  0.171200D+04  0.404500D-02
  0.389300D+03  0.207750D-01
  0.110000D+03  0.807269D-01
  0.355700D+02  0.233074D+00
  0.125400D+02  0.433501D+00
  0.464400D+01  0.347472D+00
  0.129300D+01  0.412620D-01
  0.511800D+00 -0.850799D-02
  0.178700D+00  0.238400D-02
   s    10 1.00
  0.114200D+05 -0.115000D-03
  0.171200D+04 -0.895000D-03
  0.389300D+03 -0.462400D-02
  0.110000D+03 -0.185280D-01
  0.355700D+02 -0.573390D-01
  0.125400D+02 -0.132076D+00
  0.464400D+01 -0.172510D+00
  0.129300D+01  0.151814D+00
  0.511800D+00  0.599944D+00
  0.178700D+00  0.387462D+00
   s     1 1.00
  0.129300D+01  0.100000D+01
   s     1 1.00
  0.178700D+00  0.100000D+01
   p     5 1.00
  0.266300D+02  0.146700D-01
  0.594800D+01  0.917640D-01
  0.174200D+01  0.298683D+00
  0.555000D+00  0.498487D+00
  0.172500D+00  0.337023D+00
   p     1 1.00
  0.174200D+01  0.100000D+01
   p     1 1.00
  0.555000D+00  0.100000D+01
   d     1 1.00
  0.165400D+01  0.100000D+01
   d     1 1.00
  0.469000D+00  0.100000D+01
   f     1 1.00
  0.109300D+01  0.100000D+01
  
  2  0
   s    10 1.00
  0.823600D+04  0.531000D-03
  0.123500D+04  0.410800D-02
  0.280800D+03  0.210870D-01
  0.792700D+02  0.818530D-01
  0.255900D+02  0.234817D+00
  0.899700D+01  0.434401D+00
  0.331900D+01  0.346129D+00
  0.905900D+00  0.393780D-01
  0.364300D+00 -0.898300D-02
  0.128500D+00  0.238500D-02
   s    10 1.00
  0.823600D+04 -0.113000D-03
  0.123500D+04 -0.878000D-03
  0.280800D+03 -0.454000D-02
  0.792700D+02 -0.181330D-01
  0.255900D+02 -0.557600D-01
  0.899700D+01 -0.126895D+00
  0.331900D+01 -0.170352D+00
  0.905900D+00  0.140382D+00
  0.364300D+00  0.598684D+00
  0.128500D+00  0.395389D+00
   s     1 1.00
  0.905900D+00  0.100000D+01
   s     1 1.00
  0.364300D+00  0.100000D+01
   p     5 1.00
  0.187100D+02  0.140310D-01
  0.413300D+01  0.868660D-01
  0.120000D+01  0.290216D+00
  0.382700D+00  0.501008D+00
  0.120900D+00  0.343406D+00
   p     1 1.00
  0.382700D+00  0.100000D+01
   p     1 1.00
  0.120900D+00  0.100000D+01
   d     1 1.00
  0.109700D+01  0.100000D+01
   d     1 1.00
  0.318000D+00  0.100000D+01
   f     1 1.00
  0.761000D+00  0.100000D+01
  
  3  0
   s    10 1.00
  0.823600D+04  0.531000D-03
  0.123500D+04  0.410800D-02
  0.280800D+03  0.210870D-01
  0.792700D+02  0.818530D-01
  0.255900D+02  0.234817D+00
  0.899700D+01  0.434401D+00
  0.331900D+01  0.346129D+00
  0.905900D+00  0.393780D-01
  0.364300D+00 -0.898300D-02
  0.128500D+00  0.238500D-02
   s    10 1.00
  0.823600D+04 -0.113000D-03
  0.123500D+04 -0.878000D-03
  0.280800D+03 -0.454000D-02
  0.792700D+02 -0.181330D-01
  0.255900D+02 -0.557600D-01
  0.899700D+01 -0.126895D+00
  0.331900D+01 -0.170352D+00
  0.905900D+00  0.140382D+00
  0.364300D+00  0.598684D+00
  0.128500D+00  0.395389D+00
   s     1 1.00
  0.905900D+00  0.100000D+01
   s     1 1.00
  0.364300D+00  0.100000D+01
   p     5 1.00
  0.187100D+02  0.140310D-01
  0.413300D+01  0.868660D-01
  0.120000D+01  0.290216D+00
  0.382700D+00  0.501008D+00
  0.120900D+00  0.343406D+00
   p     1 1.00
  0.382700D+00  0.100000D+01
   p     1 1.00
  0.120900D+00  0.100000D+01
   d     1 1.00
  0.109700D+01  0.100000D+01
   d     1 1.00
  0.318000D+00  0.100000D+01
   f     1 1.00
  0.761000D+00  0.100000D+01
  
  4  0
   s    10 1.00
  0.823600D+04  0.531000D-03
  0.123500D+04  0.410800D-02
  0.280800D+03  0.210870D-01
  0.792700D+02  0.818530D-01
  0.255900D+02  0.234817D+00
  0.899700D+01  0.434401D+00
  0.331900D+01  0.346129D+00
  0.905900D+00  0.393780D-01
  0.364300D+00 -0.898300D-02
  0.128500D+00  0.238500D-02
   s    10 1.00
  0.823600D+04 -0.113000D-03
  0.123500D+04 -0.878000D-03
  0.280800D+03 -0.454000D-02
  0.792700D+02 -0.181330D-01
  0.255900D+02 -0.557600D-01
  0.899700D+01 -0.126895D+00
  0.331900D+01 -0.170352D+00
  0.905900D+00  0.140382D+00
  0.364300D+00  0.598684D+00
  0.128500D+00  0.395389D+00
   s     1 1.00
  0.905900D+00  0.100000D+01
   s     1 1.00
  0.364300D+00  0.100000D+01
   p     5 1.00
  0.187100D+02  0.140310D-01
  0.413300D+01  0.868660D-01
  0.120000D+01  0.290216D+00
  0.382700D+00  0.501008D+00
  0.120900D+00  0.343406D+00
   p     1 1.00
  0.382700D+00  0.100000D+01
   p     1 1.00
  0.120900D+00  0.100000D+01
   d     1 1.00
  0.109700D+01  0.100000D+01
   d     1 1.00
  0.318000D+00  0.100000D+01
   f     1 1.00
  0.761000D+00  0.100000D+01
  
  5  0
   s    10 1.00
  0.823600D+04  0.531000D-03
  0.123500D+04  0.410800D-02
  0.280800D+03  0.210870D-01
  0.792700D+02  0.818530D-01
  0.255900D+02  0.234817D+00
  0.899700D+01  0.434401D+00
  0.331900D+01  0.346129D+00
  0.905900D+00  0.393780D-01
  0.364300D+00 -0.898300D-02
  0.128500D+00  0.238500D-02
   s    10 1.00
  0.823600D+04 -0.113000D-03
  0.123500D+04 -0.878000D-03
  0.280800D+03 -0.454000D-02
  0.792700D+02 -0.181330D-01
  0.255900D+02 -0.557600D-01
  0.899700D+01 -0.126895D+00
  0.331900D+01 -0.170352D+00
  0.905900D+00  0.140382D+00
  0.364300D+00  0.598684D+00
  0.128500D+00  0.395389D+00
   s     1 1.00
  0.905900D+00  0.100000D+01
   s     1 1.00
  0.364300D+00  0.100000D+01
   p     5 1.00
  0.187100D+02  0.140310D-01
  0.413300D+01  0.868660D-01
  0.120000D+01  0.290216D+00
  0.382700D+00  0.501008D+00
  0.120900D+00  0.343406D+00
   p     1 1.00
  0.382700D+00  0.100000D+01
   p     1 1.00
  0.120900D+00  0.100000D+01
   d     1 1.00
  0.109700D+01  0.100000D+01
   d     1 1.00
  0.318000D+00  0.100000D+01
   f     1 1.00
  0.761000D+00  0.100000D+01
  
  6  0
   s    10 1.00
  0.823600D+04  0.531000D-03
  0.123500D+04  0.410800D-02
  0.280800D+03  0.210870D-01
  0.792700D+02  0.818530D-01
  0.255900D+02  0.234817D+00
  0.899700D+01  0.434401D+00
  0.331900D+01  0.346129D+00
  0.905900D+00  0.393780D-01
  0.364300D+00 -0.898300D-02
  0.128500D+00  0.238500D-02
   s    10 1.00
  0.823600D+04 -0.113000D-03
  0.123500D+04 -0.878000D-03
  0.280800D+03 -0.454000D-02
  0.792700D+02 -0.181330D-01
  0.255900D+02 -0.557600D-01
  0.899700D+01 -0.126895D+00
  0.331900D+01 -0.170352D+00
  0.905900D+00  0.140382D+00
  0.364300D+00  0.598684D+00
  0.128500D+00  0.395389D+00
   s     1 1.00
  0.905900D+00  0.100000D+01
   s     1 1.00
  0.364300D+00  0.100000D+01
   p     5 1.00
  0.187100D+02  0.140310D-01
  0.413300D+01  0.868660D-01
  0.120000D+01  0.290216D+00
  0.382700D+00  0.501008D+00
  0.120900D+00  0.343406D+00
   p     1 1.00
  0.382700D+00  0.100000D+01
   p     1 1.00
  0.120900D+00  0.100000D+01
   d     1 1.00
  0.109700D+01  0.100000D+01
   d     1 1.00
  0.318000D+00  0.100000D+01
   f     1 1.00
  0.761000D+00  0.100000D+01
  
  7  0
   s    10 1.00
  0.823600D+04  0.531000D-03
  0.123500D+04  0.410800D-02
  0.280800D+03  0.210870D-01
  0.792700D+02  0.818530D-01
  0.255900D+02  0.234817D+00
  0.899700D+01  0.434401D+00
  0.331900D+01  0.346129D+00
  0.905900D+00  0.393780D-01
  0.364300D+00 -0.898300D-02
  0.128500D+00  0.238500D-02
   s    10 1.00
  0.823600D+04 -0.113000D-03
  0.123500D+04 -0.878000D-03
  0.280800D+03 -0.454000D-02
  0.792700D+02 -0.181330D-01
  0.255900D+02 -0.557600D-01
  0.899700D+01 -0.126895D+00
  0.331900D+01 -0.170352D+00
  0.905900D+00  0.140382D+00
  0.364300D+00  0.598684D+00
  0.128500D+00  0.395389D+00
   s     1 1.00
  0.905900D+00  0.100000D+01
   s     1 1.00
  0.364300D+00  0.100000D+01
   p     5 1.00
  0.187100D+02  0.140310D-01
  0.413300D+01  0.868660D-01
  0.120000D+01  0.290216D+00
  0.382700D+00  0.501008D+00
  0.120900D+00  0.343406D+00
   p     1 1.00
  0.382700D+00  0.100000D+01
   p     1 1.00
  0.120900D+00  0.100000D+01
   d     1 1.00
  0.109700D+01  0.100000D+01
   d     1 1.00
  0.318000D+00  0.100000D+01
   f     1 1.00
  0.761000D+00  0.100000D+01
  
  8  0
   s     4 1.00
  0.130100D+02  0.196850D-01
  0.196200D+01  0.137977D+00
  0.444600D+00  0.478148D+00
  0.122000D+00  0.501240D+00
   s     1 1.00
  0.122000D+00  0.100000D+01
   p     1 1.00
  0.727000D+00  0.100000D+01
  
  9  0
   s     4 1.00
  0.130100D+02  0.196850D-01
  0.196200D+01  0.137977D+00
  0.444600D+00  0.478148D+00
  0.122000D+00  0.501240D+00
   s     1 1.00
  0.122000D+00  0.100000D+01
   p     1 1.00
  0.727000D+00  0.100000D+01
  
 10  0
   s     4 1.00
  0.130100D+02  0.196850D-01
  0.196200D+01  0.137977D+00
  0.444600D+00  0.478148D+00
  0.122000D+00  0.501240D+00
   s     1 1.00
  0.122000D+00  0.100000D+01
   p     1 1.00
  0.727000D+00  0.100000D+01
  
 11  0
   s     4 1.00
  0.130100D+02  0.196850D-01
  0.196200D+01  0.137977D+00
  0.444600D+00  0.478148D+00
  0.122000D+00  0.501240D+00
   s     1 1.00
  0.122000D+00  0.100000D+01
   p     1 1.00
  0.727000D+00  0.100000D+01
  
 12  0
   s     4 1.00
  0.130100D+02  0.196850D-01
  0.196200D+01  0.137977D+00
  0.444600D+00  0.478148D+00
  0.122000D+00  0.501240D+00
   s     1 1.00
  0.122000D+00  0.100000D+01
   p     1 1.00
  0.727000D+00  0.100000D+01
  
 13  0
   s     4 1.00
  0.130100D+02  0.196850D-01
  0.196200D+01  0.137977D+00
  0.444600D+00  0.478148D+00
  0.122000D+00  0.501240D+00
   s     1 1.00
  0.122000D+00  0.100000D+01
   p     1 1.00
  0.727000D+00  0.100000D+01
  
 14  0
   s     4 1.00
  0.130100D+02  0.196850D-01
  0.196200D+01  0.137977D+00
  0.444600D+00  0.478148D+00
  0.122000D+00  0.501240D+00
   s     1 1.00
  0.122000D+00  0.100000D+01
   p     1 1.00
  0.727000D+00  0.100000D+01
  
[MO]
 Sym= __1_A__
 Ene=  0.000000000000000E+000
 Spin= Alpha
 Occup=    2.00000000000000     
                     1  3.971672421660166E-005
                     2  0.998042548214036     
                     3  8.288077457691161E-003
                     4  2.090647150590507E-003
                     5  1.745415472608501E-003
                     6 -6.738207172638129E-013
                     7 -8.015841863187751E-010
                     8  4.424013457954133E-003
                     9  3.193846094785837E-012
                    10  8.990218296977376E-009
                    11 -1.961877655519145E-004
                    12 -2.444040211172734E-012
                    13 -3.861499906248779E-008
                    14 -2.806316513292510E-004
                    15  2.287076362403126E-004
                    16  2.055941923063300E-012
                    17 -1.452192380736998E-010
                    18 -1.227681786102855E-004
                    19  5.737106504489004E-013
                    20  1.387556552052402E-004
                    21 -3.329968564863484E-012
                    22 -2.977733276237381E-009
                    23  5.417721390200352E-004
                    24 -1.580345643806655E-012
                    25 -1.864791376296087E-004
                    26 -2.704414874081139E-012
                    27  2.568775324967120E-009
                    28  9.515076315575363E-005
                    29  1.446614133938937E-012
                    30  1.619944144387278E-012
                    31  2.122620775249337E-010
                    32 -3.376608890749918E-004
                    33  2.574262609775011E-003
                    34  1.466704046821038E-004
                    35 -2.802071817603781E-004
                    36  7.577840796086793E-012
                    37  1.502111475744942E-008
                    38 -6.520056097632869E-003
                    39 -5.497752380587981E-012
                    40 -3.487438101471019E-008
                    41  1.973567733131027E-004
                    42  1.551317060557028E-013
                    43  4.684238009540370E-008
                    44  4.231994927686807E-003
                    45  3.203822144498595E-004
                    46  2.448036440706660E-012
                    47  6.518095678401304E-009
                    48  1.256737101727226E-004
                    49  1.141845264946520E-012
                    50  1.889178175386010E-004
                    51 -5.908585015499335E-012
                    52 -8.907427731033856E-008
                    53 -3.314758570321158E-004
                    54 -2.042110216273805E-012
                    55 -1.032480018219895E-004
                    56  2.289673156269997E-012
                    57 -3.532465590951852E-009
                    58  7.935076630334914E-005
                    59 -2.483143232219386E-013
                    60  5.009841655269931E-012
                    61  1.200338848733942E-010
                    62 -2.301167082976563E-004
                    63 -1.706092106296280E-003
                    64  5.150649966969926E-005
                    65  6.109434626498287E-004
                    66  6.264879619948955E-012
                    67 -7.504296667178968E-004
                    68  9.446282546506483E-004
                    69 -2.609772986155425E-012
                    70  2.860849916105449E-005
                    71  4.347803360690428E-004
                    72 -8.178372935209665E-012
                    73 -5.773256444514973E-004
                    74 -1.172363664129070E-004
                    75  8.078465458466659E-005
                    76  3.828855888097574E-012
                    77 -6.079555059346266E-006
                    78  3.666766424260410E-005
                    79 -1.448674565239983E-012
                    80 -4.342791387651242E-005
                    81 -3.787167579870809E-012
                    82  8.830792405012958E-005
                    83 -3.995896037734484E-005
                    84  2.821735297665265E-012
                    85 -9.237080870969266E-005
                    86 -2.318998001670846E-013
                    87 -1.076596302277919E-005
                    88  2.567824335615352E-005
                    89  7.622956266837159E-013
                    90  1.460090467487914E-012
                    91  2.041996224223861E-005
                    92 -2.300995932768800E-004
                    93 -1.706016939270729E-003
                    94  5.160724559782453E-005
                    95  6.106780442446342E-004
                    96  1.224495205269712E-011
                    97  7.504442663106315E-004
                    98  9.447117684241846E-004
                    99 -1.123285529189209E-011
                   100 -2.870473443234780E-005
                   101  4.344008663574799E-004
                   102  9.980345301864632E-013
                   103  5.769931846287968E-004
                   104 -1.171150140170581E-004
                   105  8.077090329160831E-005
                   106 -2.847643055753025E-013
                   107  6.091964685225163E-006
                   108  3.666940711009954E-005
                   109  3.289428771572679E-012
                   110 -4.371013099074872E-005
                   111  1.494083381772411E-012
                   112 -8.838298470482531E-005
                   113 -4.001717982034900E-005
                   114 -6.429343892996308E-012
                   115 -9.232380917971752E-005
                   116 -2.870305283723376E-013
                   117  1.076261867502232E-005
                   118  2.567641619403916E-005
                   119  3.447626812792275E-012
                   120  6.872472831364146E-013
                   121 -2.041936992433495E-005
                   122 -1.458590572731693E-004
                   123 -5.395997274684612E-005
                   124  7.668822958875627E-005
                   125  2.742187835623535E-004
                   126 -1.099135436562959E-011
                   127  1.873570567886180E-005
                   128 -7.709243194357457E-004
                   129  1.004015168865348E-011
                   130  5.171793082889857E-005
                   131  2.394985834280392E-004
                   132  4.994538610506461E-012
                   133 -1.168896217993302E-004
                   134  6.449021090634846E-004
                   135 -5.124307223535245E-006
                   136  2.133185512419694E-012
                   137  7.243021169394403E-007
                   138 -7.531507114375937E-008
                   139 -3.956286292529338E-013
                   140 -1.454671997130848E-004
                   141 -3.705017488786310E-012
                   142  1.224633958730252E-004
                   143  2.125312378518138E-005
                   144 -3.465248341510599E-012
                   145 -3.694434249062565E-005
                   146  1.012081969418267E-012
                   147 -4.913562036603695E-008
                   148 -9.618650122155878E-006
                   149  1.593947572081485E-012
                   150 -3.093379490171764E-012
                   151 -2.850264631115116E-006
                   152 -1.462073724187615E-004
                   153 -5.519309661981233E-005
                   154  7.636654367923182E-005
                   155  2.762584960942089E-004
                   156  2.141927360055193E-012
                   157 -1.874281345198583E-005
                   158 -7.708865034482935E-004
                   159  6.491520509446136E-013
                   160 -5.185775398386953E-005
                   161  2.392984247653898E-004
                   162 -1.184281823982090E-012
                   163  1.172428990175996E-004
                   164  6.450220702276093E-004
                   165 -5.095811919856246E-006
                   166  4.304177623229934E-013
                   167 -7.235763647873862E-007
                   168 -1.085104191066690E-007
                   169 -2.687384895429663E-012
                   170 -1.453705941070506E-004
                   171  2.721823352266099E-013
                   172 -1.226151293997286E-004
                   173  2.123141903910516E-005
                   174  1.029996104422523E-012
                   175 -3.688405203789860E-005
                   176  7.224730244294918E-013
                   177  5.547360097496767E-008
                   178 -9.653360185104384E-006
                   179  2.089745123650556E-012
                   180  3.817282855098424E-012
                   181  2.847840070499245E-006
                   182 -1.176985057774648E-004
                   183 -3.995562631261000E-004
                   184  3.124372785770798E-005
                   185  1.410937660371893E-004
                   186 -4.788711284063246E-012
                   187  3.589720947479152E-008
                   188  3.746969931680869E-005
                   189  8.003203890303748E-012
                   190 -2.397604556990491E-007
                   191  3.420037504800329E-005
                   192 -4.328428155932266E-013
                   193 -3.439811465068573E-008
                   194 -8.155166045259198E-005
                   195  1.705141839876584E-005
                   196  1.039441629941372E-012
                   197  1.392532753418875E-008
                   198  1.228708015664453E-005
                   199  2.646115612718212E-012
                   200  8.685991378883195E-005
                   201 -6.358239752555425E-013
                   202  1.290758402372727E-007
                   203  4.844579725615476E-005
                   204 -4.032863134583248E-012
                   205 -4.475131636000224E-006
                   206  2.603835449019105E-012
                   207 -7.523681602045200E-009
                   208 -1.536842590654312E-006
                   209  3.594643586656899E-012
                   210 -1.352077087997900E-012
                   211  1.203766472301807E-008
                   212  3.716721061640968E-003
                   213 -2.261911985874864E-003
                   214 -1.943847298752828E-012
                   215  4.412232116006658E-004
                   216  3.536043591486400E-004
                   217  3.716756059772418E-003
                   218 -2.261929690720307E-003
                   219  5.871024926399960E-013
                   220 -4.412395719907560E-004
                   221  3.536134733656523E-004
                   222 -6.132949634878260E-004
                   223 -1.401022131903491E-004
                   224  1.370600399802550E-012
                   225 -1.566353593511715E-005
                   226 -5.284578916687790E-005
                   227 -6.133500008178846E-004
                   228 -1.398713296050853E-004
                   229  4.426510481638480E-012
                   230  1.565249828024753E-005
                   231 -5.286120022402124E-005
                   232 -1.926611747139866E-004
                   233 -3.361374158014250E-004
                   234 -6.831778529505913E-013
                   235 -7.051584379193365E-006
                   236 -9.246328356942035E-007
                   237 -1.927503954089963E-004
                   238 -3.361972394479506E-004
                   239 -2.157282296904580E-012
                   240  7.100897902473760E-006
                   241 -8.880938394630375E-007
                   242  1.092268649235016E-004
                   243 -3.371651335517193E-005
                   244 -2.570517776943593E-012
                   245 -1.159895732068665E-008
                   246  1.431589510877245E-005
 Sym= __2_A__
 Ene=  0.000000000000000E+000
 Spin= Alpha
 Occup=    2.00000000000000     
                     1 -4.826556814951992E-005
                     2 -1.207711980924205E-004
                     3  2.392761609311054E-003
                     4  6.124891852236516E-005
                     5  1.228760655299173E-003
                     6 -1.841349685107499E-011
                     7  1.039790076148836E-008
                     8  2.955417092504111E-003
                     9  5.030302246864744E-012
                    10 -5.802182476848928E-009
                    11 -8.527848297767725E-005
                    12  8.617171153142657E-012
                    13  2.838948757980572E-009
                    14 -4.052937793589686E-004
                    15  4.977610966972197E-005
                    16 -2.429339480085553E-012
                    17  3.212694727917641E-011
                    18  6.497745599463296E-005
                    19 -9.531734498412390E-014
                    20 -2.825472283005601E-004
                    21  1.028662606992019E-013
                    22  2.296430226750238E-009
                    23 -3.207286792652002E-004
                    24 -2.446889995473310E-012
                    25  2.078954944049221E-004
                    26  3.610360319262026E-012
                    27  5.297962884843161E-010
                    28 -2.060781392711724E-006
                    29 -5.455949195513107E-013
                    30  9.753277527363898E-013
                    31  6.590322057994632E-010
                    32   1.00093326944512     
                    33  9.197746505703909E-003
                    34  2.689990592213551E-003
                    35 -7.523033007013300E-003
                    36 -7.790044914190543E-012
                    37 -2.496557214642980E-009
                    38 -4.000776498801448E-003
                    39 -8.501896561738432E-013
                    40 -1.173182354191111E-008
                    41  1.122233603444557E-003
                    42  6.961774971422514E-012
                    43 -6.354146909282708E-008
                    44  4.214723922402108E-003
                    45  4.744470992291300E-004
                    46  2.929344944886489E-012
                    47 -3.037982114562234E-009
                    48 -4.487086812480412E-004
                    49  1.459018993506174E-012
                    50  1.471224910796546E-004
                    51 -1.558606576826124E-011
                    52  9.044765235101602E-009
                    53  6.800677521423222E-004
                    54  5.514578256733241E-013
                    55  3.970944876957774E-004
                    56 -3.113760596753107E-012
                    57 -6.306397469674282E-010
                    58 -2.396490430478000E-004
                    59  8.029929320047315E-013
                    60 -3.132727490925944E-012
                    61  1.848044991712447E-009
                    62  9.948231799909477E-003
                    63 -2.176783485188214E-003
                    64 -2.061910760310234E-004
                    65  2.836345988180780E-003
                    66 -3.154073831493784E-011
                    67  8.982069132277484E-005
                    68 -8.063819300318926E-005
                    69  2.358626893076681E-011
                    70  5.734629936363602E-004
                    71  1.397759661699123E-004
                    72  2.683937416866633E-011
                    73 -1.826559578837819E-003
                    74  3.755519222869998E-004
                    75 -2.244899624883319E-005
                    76 -2.631844196529931E-012
                    77  2.223602539983302E-005
                    78  4.899423714934172E-005
                    79 -9.748192536102205E-013
                    80  6.768461625383783E-004
                    81  4.787751259467270E-012
                    82 -1.635726861083720E-004
                    83 -7.650490882115128E-005
                    84  5.309240864708186E-012
                    85  7.092075409994993E-005
                    86  5.016663122742235E-014
                    87 -4.460035925361925E-006
                    88 -1.312581399687342E-004
                    89 -2.220672321333363E-012
                    90  5.849522144379208E-013
                    91  3.214425968874972E-005
                    92  9.948203737664403E-003
                    93 -2.176870472907876E-003
                    94 -2.062297073025734E-004
                    95  2.836514473339760E-003
                    96 -1.290255132567288E-011
                    97 -8.981905688230703E-005
                    98 -8.065972396216744E-005
                    99  1.461254176299316E-011
                   100 -5.734694690316433E-004
                   101  1.398662956452601E-004
                   102 -1.991133000862876E-012
                   103  1.826691678082081E-003
                   104  3.754086849240617E-004
                   105 -2.244009279859797E-005
                   106 -1.628747839325195E-012
                   107 -2.224215639557706E-005
                   108  4.899218850516064E-005
                   109 -4.076333615183154E-012
                   110  6.769036061394591E-004
                   111  5.251117668535241E-013
                   112  1.636236452917297E-004
                   113 -7.648977346540063E-005
                   114 -1.856792171672915E-012
                   115  7.090708737148492E-005
                   116 -1.096896466993607E-012
                   117  4.460173880297840E-006
                   118 -1.312550959846255E-004
                   119  5.185567634136177E-013
                   120  1.295955009958752E-012
                   121 -3.214263465247925E-005
                   122 -2.357202188708705E-004
                   123 -7.699682499930436E-004
                   124  2.430913747382183E-004
                   125 -4.524168264491219E-005
                   126 -2.421172716571784E-012
                   127  5.007279810892872E-006
                   128 -2.948199111623854E-004
                   129  1.072945094405779E-011
                   130 -8.796649565668497E-005
                   131  5.251400721025822E-004
                   132 -1.523976675501696E-011
                   133  2.480092510533656E-004
                   134  7.524484915553648E-004
                   135 -1.731572682856304E-005
                   136 -3.702516277301286E-012
                   137  2.559703807026272E-005
                   138  1.202446347374039E-005
                   139  1.484742641248164E-012
                   140 -2.887565708045987E-004
                   141  1.132053696629018E-011
                   142 -8.664429250222918E-005
                   143 -1.186790405560769E-005
                   144  2.114363801453161E-012
                   145 -8.214734780077619E-006
                   146 -2.902064239375520E-012
                   147 -3.933038919134222E-005
                   148 -4.237156187342564E-005
                   149  2.953228254495584E-012
                   150 -7.065969459709263E-013
                   151 -8.620783129178278E-007
                   152 -2.354498639855969E-004
                   153 -7.690717681640896E-004
                   154  2.431640930643174E-004
                   155 -4.622240421125942E-005
                   156  1.929121408259720E-011
                   157 -5.019431870655883E-006
                   158 -2.948182641753338E-004
                   159 -2.107428660401192E-011
                   160  8.803712070730943E-005