[Molden Format]
[Atoms] AU
  N     1    7     0.0000000000    0.0000000000   -4.4452372400        
  C     2    6     0.0000000000    0.0000000000   -1.9043157000        
  C     3    6     0.0000000000   -2.2449006100   -0.4761623300        
  C     4    6     0.0000000000    2.2449006100   -0.4761623300        
  C     5    6     0.0000000000   -2.2137158200    2.2301167700        
  C     6    6     0.0000000000    2.2137158200    2.2301167700        
  C     7    6     0.0000000000    0.0000000000    3.5924715500        
  H     8    1     0.0000000000   -1.6392592900   -5.4429351700        
  H     9    1     0.0000000000    1.6392592900   -5.4429351700        
  H    10    1     0.0000000000   -4.0321558700   -1.4196127800        
  H    11    1     0.0000000000    4.0321558700   -1.4196127800        
  H    12    1     0.0000000000   -4.0044493400    3.1794858800        
  H    13    1     0.0000000000    4.0044493400    3.1794858800        
  H    14    1     0.0000000000    0.0000000000    5.6140935900        
[5D]
[7F]
[GTO]
  1  0
   s    12 1.00
  0.114200D+05  0.172695D-04
  0.171200D+04  0.134411D-03
  0.389300D+03  0.694561D-03
  0.110000D+03  0.278531D-02
  0.355700D+02  0.863457D-02
  0.125400D+02  0.199805D-01
  0.464400D+01  0.262908D-01
  0.129300D+01 -0.243845D-01
  0.511800D+00 -0.924934D-01
  0.178700D+00 -0.339683D+00
  0.246240D-01  0.345111D+00
  0.112530D-01  0.752750D+00
   s    10 1.00
  0.114200D+05  0.523000D-03
  0.171200D+04  0.404500D-02
  0.389300D+03  0.207750D-01
  0.110000D+03  0.807269D-01
  0.355700D+02  0.233074D+00
  0.125400D+02  0.433501D+00
  0.464400D+01  0.347472D+00
  0.129300D+01  0.412620D-01
  0.511800D+00 -0.850799D-02
  0.178700D+00  0.238400D-02
   s    10 1.00
  0.114200D+05 -0.115000D-03
  0.171200D+04 -0.895000D-03
  0.389300D+03 -0.462400D-02
  0.110000D+03 -0.185280D-01
  0.355700D+02 -0.573390D-01
  0.125400D+02 -0.132076D+00
  0.464400D+01 -0.172510D+00
  0.129300D+01  0.151814D+00
  0.511800D+00  0.599944D+00
  0.178700D+00  0.387462D+00
   s     1 1.00
  0.129300D+01  0.100000D+01
   s     1 1.00
  0.178700D+00  0.100000D+01
   p     5 1.00
  0.266300D+02  0.146700D-01
  0.594800D+01  0.917640D-01
  0.174200D+01  0.298683D+00
  0.555000D+00  0.498487D+00
  0.172500D+00  0.337023D+00
   p     1 1.00
  0.174200D+01  0.100000D+01
   p     1 1.00
  0.555000D+00  0.100000D+01
   d     1 1.00
  0.165400D+01  0.100000D+01
   d     1 1.00
  0.469000D+00  0.100000D+01
   f     1 1.00
  0.109300D+01  0.100000D+01
  
  2  0
   s    10 1.00
  0.823600D+04  0.531000D-03
  0.123500D+04  0.410800D-02
  0.280800D+03  0.210870D-01
  0.792700D+02  0.818530D-01
  0.255900D+02  0.234817D+00
  0.899700D+01  0.434401D+00
  0.331900D+01  0.346129D+00
  0.905900D+00  0.393780D-01
  0.364300D+00 -0.898300D-02
  0.128500D+00  0.238500D-02
   s    10 1.00
  0.823600D+04 -0.113000D-03
  0.123500D+04 -0.878000D-03
  0.280800D+03 -0.454000D-02
  0.792700D+02 -0.181330D-01
  0.255900D+02 -0.557600D-01
  0.899700D+01 -0.126895D+00
  0.331900D+01 -0.170352D+00
  0.905900D+00  0.140382D+00
  0.364300D+00  0.598684D+00
  0.128500D+00  0.395389D+00
   s     1 1.00
  0.905900D+00  0.100000D+01
   s     1 1.00
  0.364300D+00  0.100000D+01
   p     5 1.00
  0.187100D+02  0.140310D-01
  0.413300D+01  0.868660D-01
  0.120000D+01  0.290216D+00
  0.382700D+00  0.501008D+00
  0.120900D+00  0.343406D+00
   p     1 1.00
  0.382700D+00  0.100000D+01
   p     1 1.00
  0.120900D+00  0.100000D+01
   d     1 1.00
  0.109700D+01  0.100000D+01
   d     1 1.00
  0.318000D+00  0.100000D+01
   f     1 1.00
  0.761000D+00  0.100000D+01
  
  3  0
   s    10 1.00
  0.823600D+04  0.531000D-03
  0.123500D+04  0.410800D-02
  0.280800D+03  0.210870D-01
  0.792700D+02  0.818530D-01
  0.255900D+02  0.234817D+00
  0.899700D+01  0.434401D+00
  0.331900D+01  0.346129D+00
  0.905900D+00  0.393780D-01
  0.364300D+00 -0.898300D-02
  0.128500D+00  0.238500D-02
   s    10 1.00
  0.823600D+04 -0.113000D-03
  0.123500D+04 -0.878000D-03
  0.280800D+03 -0.454000D-02
  0.792700D+02 -0.181330D-01
  0.255900D+02 -0.557600D-01
  0.899700D+01 -0.126895D+00
  0.331900D+01 -0.170352D+00
  0.905900D+00  0.140382D+00
  0.364300D+00  0.598684D+00
  0.128500D+00  0.395389D+00
   s     1 1.00
  0.905900D+00  0.100000D+01
   s     1 1.00
  0.364300D+00  0.100000D+01
   p     5 1.00
  0.187100D+02  0.140310D-01
  0.413300D+01  0.868660D-01
  0.120000D+01  0.290216D+00
  0.382700D+00  0.501008D+00
  0.120900D+00  0.343406D+00
   p     1 1.00
  0.382700D+00  0.100000D+01
   p     1 1.00
  0.120900D+00  0.100000D+01
   d     1 1.00
  0.109700D+01  0.100000D+01
   d     1 1.00
  0.318000D+00  0.100000D+01
   f     1 1.00
  0.761000D+00  0.100000D+01
  
  4  0
   s    10 1.00
  0.823600D+04  0.531000D-03
  0.123500D+04  0.410800D-02
  0.280800D+03  0.210870D-01
  0.792700D+02  0.818530D-01
  0.255900D+02  0.234817D+00
  0.899700D+01  0.434401D+00
  0.331900D+01  0.346129D+00
  0.905900D+00  0.393780D-01
  0.364300D+00 -0.898300D-02
  0.128500D+00  0.238500D-02
   s    10 1.00
  0.823600D+04 -0.113000D-03
  0.123500D+04 -0.878000D-03
  0.280800D+03 -0.454000D-02
  0.792700D+02 -0.181330D-01
  0.255900D+02 -0.557600D-01
  0.899700D+01 -0.126895D+00
  0.331900D+01 -0.170352D+00
  0.905900D+00  0.140382D+00
  0.364300D+00  0.598684D+00
  0.128500D+00  0.395389D+00
   s     1 1.00
  0.905900D+00  0.100000D+01
   s     1 1.00
  0.364300D+00  0.100000D+01
   p     5 1.00
  0.187100D+02  0.140310D-01
  0.413300D+01  0.868660D-01
  0.120000D+01  0.290216D+00
  0.382700D+00  0.501008D+00
  0.120900D+00  0.343406D+00
   p     1 1.00
  0.382700D+00  0.100000D+01
   p     1 1.00
  0.120900D+00  0.100000D+01
   d     1 1.00
  0.109700D+01  0.100000D+01
   d     1 1.00
  0.318000D+00  0.100000D+01
   f     1 1.00
  0.761000D+00  0.100000D+01
  
  5  0
   s    10 1.00
  0.823600D+04  0.531000D-03
  0.123500D+04  0.410800D-02
  0.280800D+03  0.210870D-01
  0.792700D+02  0.818530D-01
  0.255900D+02  0.234817D+00
  0.899700D+01  0.434401D+00
  0.331900D+01  0.346129D+00
  0.905900D+00  0.393780D-01
  0.364300D+00 -0.898300D-02
  0.128500D+00  0.238500D-02
   s    10 1.00
  0.823600D+04 -0.113000D-03
  0.123500D+04 -0.878000D-03
  0.280800D+03 -0.454000D-02
  0.792700D+02 -0.181330D-01
  0.255900D+02 -0.557600D-01
  0.899700D+01 -0.126895D+00
  0.331900D+01 -0.170352D+00
  0.905900D+00  0.140382D+00
  0.364300D+00  0.598684D+00
  0.128500D+00  0.395389D+00
   s     1 1.00
  0.905900D+00  0.100000D+01
   s     1 1.00
  0.364300D+00  0.100000D+01
   p     5 1.00
  0.187100D+02  0.140310D-01
  0.413300D+01  0.868660D-01
  0.120000D+01  0.290216D+00
  0.382700D+00  0.501008D+00
  0.120900D+00  0.343406D+00
   p     1 1.00
  0.382700D+00  0.100000D+01
   p     1 1.00
  0.120900D+00  0.100000D+01
   d     1 1.00
  0.109700D+01  0.100000D+01
   d     1 1.00
  0.318000D+00  0.100000D+01
   f     1 1.00
  0.761000D+00  0.100000D+01
  
  6  0
   s    10 1.00
  0.823600D+04  0.531000D-03
  0.123500D+04  0.410800D-02
  0.280800D+03  0.210870D-01
  0.792700D+02  0.818530D-01
  0.255900D+02  0.234817D+00
  0.899700D+01  0.434401D+00
  0.331900D+01  0.346129D+00
  0.905900D+00  0.393780D-01
  0.364300D+00 -0.898300D-02
  0.128500D+00  0.238500D-02
   s    10 1.00
  0.823600D+04 -0.113000D-03
  0.123500D+04 -0.878000D-03
  0.280800D+03 -0.454000D-02
  0.792700D+02 -0.181330D-01
  0.255900D+02 -0.557600D-01
  0.899700D+01 -0.126895D+00
  0.331900D+01 -0.170352D+00
  0.905900D+00  0.140382D+00
  0.364300D+00  0.598684D+00
  0.128500D+00  0.395389D+00
   s     1 1.00
  0.905900D+00  0.100000D+01
   s     1 1.00
  0.364300D+00  0.100000D+01
   p     5 1.00
  0.187100D+02  0.140310D-01
  0.413300D+01  0.868660D-01
  0.120000D+01  0.290216D+00
  0.382700D+00  0.501008D+00
  0.120900D+00  0.343406D+00
   p     1 1.00
  0.382700D+00  0.100000D+01
   p     1 1.00
  0.120900D+00  0.100000D+01
   d     1 1.00
  0.109700D+01  0.100000D+01
   d     1 1.00
  0.318000D+00  0.100000D+01
   f     1 1.00
  0.761000D+00  0.100000D+01
  
  7  0
   s    10 1.00
  0.823600D+04  0.531000D-03
  0.123500D+04  0.410800D-02
  0.280800D+03  0.210870D-01
  0.792700D+02  0.818530D-01
  0.255900D+02  0.234817D+00
  0.899700D+01  0.434401D+00
  0.331900D+01  0.346129D+00
  0.905900D+00  0.393780D-01
  0.364300D+00 -0.898300D-02
  0.128500D+00  0.238500D-02
   s    10 1.00
  0.823600D+04 -0.113000D-03
  0.123500D+04 -0.878000D-03
  0.280800D+03 -0.454000D-02
  0.792700D+02 -0.181330D-01
  0.255900D+02 -0.557600D-01
  0.899700D+01 -0.126895D+00
  0.331900D+01 -0.170352D+00
  0.905900D+00  0.140382D+00
  0.364300D+00  0.598684D+00
  0.128500D+00  0.395389D+00
   s     1 1.00
  0.905900D+00  0.100000D+01
   s     1 1.00
  0.364300D+00  0.100000D+01
   p     5 1.00
  0.187100D+02  0.140310D-01
  0.413300D+01  0.868660D-01
  0.120000D+01  0.290216D+00
  0.382700D+00  0.501008D+00
  0.120900D+00  0.343406D+00
   p     1 1.00
  0.382700D+00  0.100000D+01
   p     1 1.00
  0.120900D+00  0.100000D+01
   d     1 1.00
  0.109700D+01  0.100000D+01
   d     1 1.00
  0.318000D+00  0.100000D+01
   f     1 1.00
  0.761000D+00  0.100000D+01
  
  8  0
   s     4 1.00
  0.130100D+02  0.196850D-01
  0.196200D+01  0.137977D+00
  0.444600D+00  0.478148D+00
  0.122000D+00  0.501240D+00
   s     1 1.00
  0.122000D+00  0.100000D+01
   p     1 1.00
  0.727000D+00  0.100000D+01
  
  9  0
   s     4 1.00
  0.130100D+02  0.196850D-01
  0.196200D+01  0.137977D+00
  0.444600D+00  0.478148D+00
  0.122000D+00  0.501240D+00
   s     1 1.00
  0.122000D+00  0.100000D+01
   p     1 1.00
  0.727000D+00  0.100000D+01
  
 10  0
   s     4 1.00
  0.130100D+02  0.196850D-01
  0.196200D+01  0.137977D+00
  0.444600D+00  0.478148D+00
  0.122000D+00  0.501240D+00
   s     1 1.00
  0.122000D+00  0.100000D+01
   p     1 1.00
  0.727000D+00  0.100000D+01
  
 11  0
   s     4 1.00
  0.130100D+02  0.196850D-01
  0.196200D+01  0.137977D+00
  0.444600D+00  0.478148D+00
  0.122000D+00  0.501240D+00
   s     1 1.00
  0.122000D+00  0.100000D+01
   p     1 1.00
  0.727000D+00  0.100000D+01
  
 12  0
   s     4 1.00
  0.130100D+02  0.196850D-01
  0.196200D+01  0.137977D+00
  0.444600D+00  0.478148D+00
  0.122000D+00  0.501240D+00
   s     1 1.00
  0.122000D+00  0.100000D+01
   p     1 1.00
  0.727000D+00  0.100000D+01
  
 13  0
   s     4 1.00
  0.130100D+02  0.196850D-01
  0.196200D+01  0.137977D+00
  0.444600D+00  0.478148D+00
  0.122000D+00  0.501240D+00
   s     1 1.00
  0.122000D+00  0.100000D+01
   p     1 1.00
  0.727000D+00  0.100000D+01
  
 14  0
   s     4 1.00
  0.130100D+02  0.196850D-01
  0.196200D+01  0.137977D+00
  0.444600D+00  0.478148D+00
  0.122000D+00  0.501240D+00
   s     1 1.00
  0.122000D+00  0.100000D+01
   p     1 1.00
  0.727000D+00  0.100000D+01
  
[MO]
 Sym= __1_A__
 Ene=   1.00000000000000     
 Spin= Alpha
 Occup=    1.00000000000000     
                     1  3.971672420718838E-005
                     2  0.998042548221797     
                     3  8.288077399235717E-003
                     4  2.090647152976485E-003
                     5  1.745415581206520E-003
                     6 -6.738207192399537E-013
                     7 -8.015790238380507E-010
                     8  4.424013444672247E-003
                     9  3.193846053965656E-012
                    10  8.990218336239041E-009
                    11 -1.961877765566711E-004
                    12 -2.444040116904649E-012
                    13 -3.861499984382197E-008
                    14 -2.806316487518792E-004
                    15  2.287076347574230E-004
                    16  2.055941906901937E-012
                    17 -1.452170073895203E-010
                    18 -1.227681776838514E-004
                    19  5.737106684990280E-013
                    20  1.387556440692889E-004
                    21 -3.329968576407190E-012
                    22 -2.977724620255317E-009
                    23  5.417721313941766E-004
                    24 -1.580345703308606E-012
                    25 -1.864791369950921E-004
                    26 -2.704414859971708E-012
                    27  2.568775688086134E-009
                    28  9.515076530572263E-005
                    29  1.446614139395717E-012
                    30  1.619944139122657E-012
                    31  2.122621464687134E-010
                    32 -3.376606828056107E-004
                    33  2.574261217682804E-003
                    34  1.466704216270915E-004
                    35 -2.802071451869342E-004
                    36  7.577840565146028E-012
                    37  1.502137148196281E-008
                    38 -6.520056726022802E-003
                    39 -5.497752352799165E-012
                    40 -3.487439538420897E-008
                    41  1.973568045229015E-004
                    42  1.551318355690422E-013
                    43  4.684232030671192E-008
                    44  4.231994998683822E-003
                    45  3.203822151290198E-004
                    46  2.448036444744165E-012
                    47  6.518101271000999E-009
                    48  1.256737379328982E-004
                    49  1.141845281349288E-012
                    50  1.889177944850412E-004
                    51 -5.908585059197657E-012
                    52 -8.907426559926558E-008
                    53 -3.314758242745886E-004
                    54 -2.042110123209587E-012
                    55 -1.032480176476978E-004
                    56  2.289673155009553E-012
                    57 -3.532465730157941E-009
                    58  7.935078587338466E-005
                    59 -2.483143307243001E-013
                    60  5.009841644100292E-012
                    61  1.200311123488950E-010
                    62 -2.301166749120977E-004
                    63 -1.706092395513875E-003
                    64  5.150650296126377E-005
                    65  6.109434439974875E-004
                    66  6.264879622268017E-012
                    67 -7.504304140934833E-004
                    68  9.446284951137822E-004
                    69 -2.609772932978368E-012
                    70  2.860856564715593E-005
                    71  4.347802921539319E-004
                    72 -8.178373013182305E-012
                    73 -5.773253556154641E-004
                    74 -1.172364986783339E-004
                    75  8.078466215967878E-005
                    76  3.828855927917281E-012
                    77 -6.079532985141918E-006
                    78  3.666767823863848E-005
                    79 -1.448674554605362E-012
                    80 -4.342792307163030E-005
                    81 -3.787167587130704E-012
                    82  8.830793866895465E-005
                    83 -3.995894138816804E-005
                    84  2.821735263780620E-012
                    85 -9.237080110939758E-005
                    86 -2.318998008686182E-013
                    87 -1.076596295469121E-005
                    88  2.567823556692372E-005
                    89  7.622956225727613E-013
                    90  1.460090475182225E-012
                    91  2.041996768035619E-005
                    92 -2.300995599163699E-004
                    93 -1.706017228382115E-003
                    94  5.160724888900130E-005
                    95  6.106780255760203E-004
                    96  1.224495249188390E-011
                    97  7.504450135388539E-004
                    98  9.447120084678688E-004
                    99 -1.123285550655208E-011
                   100 -2.870480090868814E-005
                   101  4.344008224737207E-004
                   102  9.980344503052639E-013
                   103  5.769928958179913E-004
                   104 -1.171151461979120E-004
                   105  8.077091085958924E-005
                   106 -2.847643164361198E-013
                   107  6.091942619467222E-006
                   108  3.666942110000166E-005
                   109  3.289428756319390E-012
                   110 -4.371014018411480E-005
                   111  1.494083408419591E-012
                   112 -8.838299930975473E-005
                   113 -4.001716083232848E-005
                   114 -6.429343846899297E-012
                   115 -9.232380157781509E-005
                   116 -2.870305465853259E-013
                   117  1.076261860477003E-005
                   118  2.567640840810308E-005
                   119  3.447626799990092E-012
                   120  6.872472645514810E-013
                   121 -2.041937536096356E-005
                   122 -1.458590370145365E-004
                   123 -5.395977282346544E-005
                   124  7.668821844770281E-005
                   125  2.742187516131802E-004
                   126 -1.099135430389236E-011
                   127  1.873569587548943E-005
                   128 -7.709243520765542E-004
                   129  1.004015160453196E-011
                   130  5.171792337548425E-005
                   131  2.394985630553061E-004
                   132  4.994538477919862E-012
                   133 -1.168896163150120E-004
                   134  6.449020044278755E-004
                   135 -5.124306223693446E-006
                   136  2.133185500111925E-012
                   137  7.243110259802222E-007
                   138 -7.531669197944358E-008
                   139 -3.956286046565675E-013
                   140 -1.454671854004934E-004
                   141 -3.705017513479295E-012
                   142  1.224634155996273E-004
                   143  2.125312456463800E-005
                   144 -3.465248309800496E-012
                   145 -3.694433943582579E-005
                   146  1.012081962972063E-012
                   147 -4.914066378480303E-008
                   148 -9.618650004281423E-006
                   149  1.593947583122684E-012
                   150 -3.093379489520553E-012
                   151 -2.850265482626166E-006
                   152 -1.462073521556232E-004
                   153 -5.519289681930101E-005
                   154  7.636653254272659E-005
                   155  2.762584641378052E-004
                   156  2.141927224441294E-012
                   157 -1.874280359767626E-005
                   158 -7.708865357951991E-004
                   159  6.491521290249610E-013
                   160 -5.185774653898281E-005
                   161  2.392984043768834E-004
                   162 -1.184282009126633E-012
                   163  1.172428935445569E-004
                   164  6.450219655464535E-004
                   165 -5.095810928911853E-006
                   166  4.304177704664945E-013
                   167 -7.235852714745443E-007
                   168 -1.085120425643351E-007
                   169 -2.687384908715854E-012
                   170 -1.453705798032289E-004
                   171  2.721823448146194E-013
                   172 -1.226151491244328E-004
                   173  2.123141981946516E-005
                   174  1.029996101577513E-012
                   175 -3.688404898716549E-005
                   176  7.224730385996409E-013
                   177  5.547864405975542E-008
                   178 -9.653360066792045E-006
                   179  2.089745136541896E-012
                   180  3.817282841905673E-012
                   181  2.847840921946497E-006
                   182 -1.176984831129183E-004
                   183 -3.995561053022834E-004
                   184  3.124372358291276E-005
                   185  1.410937119507682E-004
                   186 -4.788711367008805E-012
                   187  3.589724662237881E-008
                   188  3.746961949574187E-005
                   189  8.003203941964961E-012
                   190 -2.397604565166413E-007
                   191  3.420038376568955E-005
                   192 -4.328425016233854E-013
                   193 -3.439812309680386E-008
                   194 -8.155167300244023E-005
                   195  1.705141698317902E-005
                   196  1.039441611165298E-012
                   197  1.392532805570181E-008
                   198  1.228707836535148E-005
                   199  2.646115635807069E-012
                   200  8.685990604684720E-005
                   201 -6.358239443394504E-013
                   202  1.290758432210690E-007
                   203  4.844579554718864E-005
                   204 -4.032863276578289E-012
                   205 -4.475131545233797E-006
                   206  2.603835423159554E-012
                   207 -7.523682996096037E-009
                   208 -1.536842529995655E-006
                   209  3.594643572203406E-012
                   210 -1.352077101200383E-012
                   211  1.203766377400149E-008
                   212  3.716721040689429E-003
                   213 -2.261912007098460E-003
                   214 -1.943847312623163E-012
                   215  4.412232089820868E-004
                   216  3.536043582403872E-004
                   217  3.716756038793199E-003
                   218 -2.261929711958684E-003
                   219  5.871024711616072E-013
                   220 -4.412395693738701E-004
                   221  3.536134724578945E-004
                   222 -6.132946135595949E-004
                   223 -1.401022356148833E-004
                   224  1.370600378508521E-012
                   225 -1.566352031030682E-005
                   226 -5.284577471939489E-005
                   227 -6.133496507998584E-004
                   228 -1.398713520730963E-004
                   229  4.426510467951207E-012
                   230  1.565248264619543E-005
                   231 -5.286118577876003E-005
                   232 -1.926611669555187E-004
                   233 -3.361373877664220E-004
                   234 -6.831778293269732E-013
                   235 -7.051580793899929E-006
                   236 -9.246364353504971E-007
                   237 -1.927503875097958E-004
                   238 -3.361972114497527E-004
                   239 -2.157282289416638E-012
                   240  7.100894309185568E-006
                   241 -8.880974390349720E-007
                   242  1.092268318825507E-004
                   243 -3.371645571839085E-005
                   244 -2.570517802995788E-012
                   245 -1.159895632526592E-008
                   246  1.431589417457250E-005
 Sym= __2_A__
 Ene=   2.00000000000000     
 Spin= Alpha
 Occup=    1.00000000000000     
                     1 -4.826556883900268E-005
                     2 -1.207713636810378E-004
                     3  2.392761621684590E-003
                     4  6.124891760379963E-005
                     5  1.228760621247980E-003
                     6 -1.841349668704564E-011
                     7  1.039790222137920E-008
                     8  2.955417089029763E-003
                     9  5.030302135826253E-012
                    10 -5.802182583614099E-009
                    11 -8.527848070390399E-005
                    12  8.617171121096996E-012
                    13  2.838948777352096E-009
                    14 -4.052937817283795E-004
                    15  4.977611000569088E-005
                    16 -2.429339476210191E-012
                    17  3.212752760187273E-011
                    18  6.497745535868580E-005
                    19 -9.531735866376238E-014
                    20 -2.825472253368578E-004
                    21  1.028663178439506E-013
                    22  2.296432463487494E-009
                    23 -3.207286772886592E-004
                    24 -2.446889979818494E-012
                    25  2.078954937264184E-004
                    26  3.610360316769855E-012
                    27  5.297971472600972E-010
                    28 -2.060780932189642E-006
                    29 -5.455949203526157E-013
                    30  9.753277234838005E-013
                    31  6.590321998147876E-010
                    32   1.00093326918468     
                    33  9.197746700409801E-003
                    34  2.689990579835513E-003
                    35 -7.523032952485366E-003
                    36 -7.790045220244194E-012
                    37 -2.496488565510253E-009
                    38 -4.000776430679647E-003
                    39 -8.501894030869387E-013
                    40 -1.173182770676511E-008
                    41  1.122233614409725E-003
                    42  6.961775165314707E-012
                    43 -6.354148621584028E-008
                    44  4.214723922192808E-003
                    45  4.744470937570135E-004
                    46  2.929344921411269E-012
                    47 -3.037980428811205E-009
                    48 -4.487086871299106E-004
                    49  1.459019040286952E-012
                    50  1.471224859419737E-004
                    51 -1.558606559353855E-011
                    52  9.044768039310205E-009
                    53  6.800677259498964E-004
                    54  5.514578059773935E-013
                    55  3.970944888643283E-004
                    56 -3.113760608625731E-012
                    57 -6.306403202869636E-010
                    58 -2.396490437402248E-004
                    59  8.029929044466153E-013
                    60 -3.132727481781914E-012
                    61  1.848044307601724E-009
                    62  9.948243121827870E-003
                    63 -2.176783325391160E-003
                    64 -2.061910380472532E-004
                    65  2.836345879988654E-003
                    66 -3.154073827565620E-011
                    67  8.982067368727155E-005
                    68 -8.063843586891221E-005
                    69  2.358626888919633E-011
                    70  5.734629845696381E-004
                    71  1.397759909072818E-004
                    72  2.683937407821649E-011
                    73 -1.826559595355438E-003
                    74  3.755519828656943E-004
                    75 -2.244899922229034E-005
                    76 -2.631844195051316E-012
                    77  2.223602353633662E-005
                    78  4.899422955223482E-005
                    79 -9.748191923990097E-013
                    80  6.768461557908887E-004
                    81  4.787751206429679E-012
                    82 -1.635726827149484E-004
                    83 -7.650490578361077E-005
                    84  5.309240777332544E-012
                    85  7.092075244547667E-005
                    86  5.016666705154715E-014
                    87 -4.460035334699599E-006
                    88 -1.312581361182656E-004
                    89 -2.220672324092956E-012
                    90  5.849521987094751E-013
                    91  3.214426082513691E-005
                    92  9.948215060643533E-003
                    93 -2.176870313059007E-003
                    94 -2.062296693159228E-004
                    95  2.836514365132897E-003
                    96 -1.290255142092426E-011
                    97 -8.981903928523619E-005
                    98 -8.065996693003015E-005
                    99  1.461254185608896E-011
                   100 -5.734694599629323E-004
                   101  1.398663203891545E-004
                   102 -1.991133203012543E-012
                   103  1.826691694603512E-003
                   104  3.754087455246139E-004
                   105 -2.244009577356312E-005
                   106 -1.628747820636078E-012
                   107 -2.224215452974847E-005
                   108  4.899218090590854E-005
                   109 -4.076333649583066E-012
                   110  6.769035993915690E-004
                   111  5.251116734646939E-013
                   112  1.636236419013273E-004
                   113 -7.648977042829374E-005
                   114 -1.856792037753385E-012
                   115  7.090708571720031E-005
                   116 -1.096896481237688E-012
                   117  4.460173289320322E-006
                   118 -1.312550921330392E-004
                   119  5.185567786020143E-013
                   120  1.295954952277388E-012
                   121 -3.214263578839438E-005
                   122 -2.357198913442690E-004
                   123 -7.699683352514469E-004
                   124  2.430913751877720E-004
                   125 -4.524164809214200E-005
                   126 -2.421173137864771E-012
                   127  5.007255338649233E-006
                   128 -2.948197401137331E-004
                   129  1.072945127812980E-011
                   130 -8.796648775603740E-005
                   131  5.251400595567675E-004
                   132 -1.523976643264060E-011
                   133  2.480092485251094E-004
                   134  7.524484951819765E-004
                   135 -1.731573191984938E-005
                   136 -3.702516287356122E-012
                   137  2.559703774803623E-005
                   138  1.202446230562470E-005
                   139  1.484742639583380E-012
                   140 -2.887565748381219E-004
                   141  1.132053701199090E-011
                   142 -8.664428359400965E-005
                   143 -1.186790931672679E-005
                   144  2.114363848436507E-012
                   145 -8.214738254455047E-006
                   146 -2.902064187509010E-012
                   147 -3.933038929702910E-005
                   148 -4.237156222539386E-005
                   149  2.953228227435545E-012
                   150 -7.065969154216626E-013
                   151 -8.620785010432525E-007
                   152 -2.354495363908578E-004
                   153 -7.690718534621322E-004
                   154  2.431640935135512E-004
                   155 -4.622236964934554E-005
                   156  1.929121395387091E-011
                   157 -5.019407385191587E-006
                   158 -2.948180930646946E-004
                   159 -2.107428648309208E-011
                   160  8.803711280289642E-005