[Molden Format]
[Atoms] AU
  N     1    7     0.0000000000    0.0000000000   -4.3896059400        
  C     2    6     0.0000000000    0.0000000000   -1.7787405200        
  C     3    6     0.0000000000   -2.3347474200   -0.3922060100        
  C     4    6     0.0000000000    2.3347474200   -0.3922060100        
  C     5    6     0.0000000000   -2.3242454000    2.1775818300        
  C     6    6     0.0000000000    2.3242454000    2.1775818300        
  C     7    6     0.0000000000    0.0000000000    3.4748475600        
  H     8    1    -1.6486042200    0.0000000000   -5.3790611100        
  H     9    1     1.6486042200    0.0000000000   -5.3790611200        
  H    10    1     0.0000000000   -4.0457988600   -1.4652898000        
  H    11    1     0.0000000000    4.0457988600   -1.4652898000        
  H    12    1     0.0000000000   -4.0519040200    3.2320081000        
  H    13    1     0.0000000000    4.0519040200    3.2320081000        
  H    14    1     0.0000000000    0.0000000000    5.5038241200        
[5D]
[7F]
[GTO]
  1  0
   s    12 1.00
  0.114200D+05  0.172695D-04
  0.171200D+04  0.134411D-03
  0.389300D+03  0.694561D-03
  0.110000D+03  0.278531D-02
  0.355700D+02  0.863457D-02
  0.125400D+02  0.199805D-01
  0.464400D+01  0.262908D-01
  0.129300D+01 -0.243845D-01
  0.511800D+00 -0.924934D-01
  0.178700D+00 -0.339683D+00
  0.246240D-01  0.345111D+00
  0.112530D-01  0.752750D+00
   s    10 1.00
  0.114200D+05  0.523000D-03
  0.171200D+04  0.404500D-02
  0.389300D+03  0.207750D-01
  0.110000D+03  0.807269D-01
  0.355700D+02  0.233074D+00
  0.125400D+02  0.433501D+00
  0.464400D+01  0.347472D+00
  0.129300D+01  0.412620D-01
  0.511800D+00 -0.850799D-02
  0.178700D+00  0.238400D-02
   s    10 1.00
  0.114200D+05 -0.115000D-03
  0.171200D+04 -0.895000D-03
  0.389300D+03 -0.462400D-02
  0.110000D+03 -0.185280D-01
  0.355700D+02 -0.573390D-01
  0.125400D+02 -0.132076D+00
  0.464400D+01 -0.172510D+00
  0.129300D+01  0.151814D+00
  0.511800D+00  0.599944D+00
  0.178700D+00  0.387462D+00
   s     1 1.00
  0.129300D+01  0.100000D+01
   s     1 1.00
  0.178700D+00  0.100000D+01
   p     5 1.00
  0.266300D+02  0.146700D-01
  0.594800D+01  0.917640D-01
  0.174200D+01  0.298683D+00
  0.555000D+00  0.498487D+00
  0.172500D+00  0.337023D+00
   p     1 1.00
  0.174200D+01  0.100000D+01
   p     1 1.00
  0.555000D+00  0.100000D+01
   d     1 1.00
  0.165400D+01  0.100000D+01
   d     1 1.00
  0.469000D+00  0.100000D+01
   f     1 1.00
  0.109300D+01  0.100000D+01
  
  2  0
   s    10 1.00
  0.823600D+04  0.531000D-03
  0.123500D+04  0.410800D-02
  0.280800D+03  0.210870D-01
  0.792700D+02  0.818530D-01
  0.255900D+02  0.234817D+00
  0.899700D+01  0.434401D+00
  0.331900D+01  0.346129D+00
  0.905900D+00  0.393780D-01
  0.364300D+00 -0.898300D-02
  0.128500D+00  0.238500D-02
   s    10 1.00
  0.823600D+04 -0.113000D-03
  0.123500D+04 -0.878000D-03
  0.280800D+03 -0.454000D-02
  0.792700D+02 -0.181330D-01
  0.255900D+02 -0.557600D-01
  0.899700D+01 -0.126895D+00
  0.331900D+01 -0.170352D+00
  0.905900D+00  0.140382D+00
  0.364300D+00  0.598684D+00
  0.128500D+00  0.395389D+00
   s     1 1.00
  0.905900D+00  0.100000D+01
   s     1 1.00
  0.364300D+00  0.100000D+01
   p     5 1.00
  0.187100D+02  0.140310D-01
  0.413300D+01  0.868660D-01
  0.120000D+01  0.290216D+00
  0.382700D+00  0.501008D+00
  0.120900D+00  0.343406D+00
   p     1 1.00
  0.382700D+00  0.100000D+01
   p     1 1.00
  0.120900D+00  0.100000D+01
   d     1 1.00
  0.109700D+01  0.100000D+01
   d     1 1.00
  0.318000D+00  0.100000D+01
   f     1 1.00
  0.761000D+00  0.100000D+01
  
  3  0
   s    10 1.00
  0.823600D+04  0.531000D-03
  0.123500D+04  0.410800D-02
  0.280800D+03  0.210870D-01
  0.792700D+02  0.818530D-01
  0.255900D+02  0.234817D+00
  0.899700D+01  0.434401D+00
  0.331900D+01  0.346129D+00
  0.905900D+00  0.393780D-01
  0.364300D+00 -0.898300D-02
  0.128500D+00  0.238500D-02
   s    10 1.00
  0.823600D+04 -0.113000D-03
  0.123500D+04 -0.878000D-03
  0.280800D+03 -0.454000D-02
  0.792700D+02 -0.181330D-01
  0.255900D+02 -0.557600D-01
  0.899700D+01 -0.126895D+00
  0.331900D+01 -0.170352D+00
  0.905900D+00  0.140382D+00
  0.364300D+00  0.598684D+00
  0.128500D+00  0.395389D+00
   s     1 1.00
  0.905900D+00  0.100000D+01
   s     1 1.00
  0.364300D+00  0.100000D+01
   p     5 1.00
  0.187100D+02  0.140310D-01
  0.413300D+01  0.868660D-01
  0.120000D+01  0.290216D+00
  0.382700D+00  0.501008D+00
  0.120900D+00  0.343406D+00
   p     1 1.00
  0.382700D+00  0.100000D+01
   p     1 1.00
  0.120900D+00  0.100000D+01
   d     1 1.00
  0.109700D+01  0.100000D+01
   d     1 1.00
  0.318000D+00  0.100000D+01
   f     1 1.00
  0.761000D+00  0.100000D+01
  
  4  0
   s    10 1.00
  0.823600D+04  0.531000D-03
  0.123500D+04  0.410800D-02
  0.280800D+03  0.210870D-01
  0.792700D+02  0.818530D-01
  0.255900D+02  0.234817D+00
  0.899700D+01  0.434401D+00
  0.331900D+01  0.346129D+00
  0.905900D+00  0.393780D-01
  0.364300D+00 -0.898300D-02
  0.128500D+00  0.238500D-02
   s    10 1.00
  0.823600D+04 -0.113000D-03
  0.123500D+04 -0.878000D-03
  0.280800D+03 -0.454000D-02
  0.792700D+02 -0.181330D-01
  0.255900D+02 -0.557600D-01
  0.899700D+01 -0.126895D+00
  0.331900D+01 -0.170352D+00
  0.905900D+00  0.140382D+00
  0.364300D+00  0.598684D+00
  0.128500D+00  0.395389D+00
   s     1 1.00
  0.905900D+00  0.100000D+01
   s     1 1.00
  0.364300D+00  0.100000D+01
   p     5 1.00
  0.187100D+02  0.140310D-01
  0.413300D+01  0.868660D-01
  0.120000D+01  0.290216D+00
  0.382700D+00  0.501008D+00
  0.120900D+00  0.343406D+00
   p     1 1.00
  0.382700D+00  0.100000D+01
   p     1 1.00
  0.120900D+00  0.100000D+01
   d     1 1.00
  0.109700D+01  0.100000D+01
   d     1 1.00
  0.318000D+00  0.100000D+01
   f     1 1.00
  0.761000D+00  0.100000D+01
  
  5  0
   s    10 1.00
  0.823600D+04  0.531000D-03
  0.123500D+04  0.410800D-02
  0.280800D+03  0.210870D-01
  0.792700D+02  0.818530D-01
  0.255900D+02  0.234817D+00
  0.899700D+01  0.434401D+00
  0.331900D+01  0.346129D+00
  0.905900D+00  0.393780D-01
  0.364300D+00 -0.898300D-02
  0.128500D+00  0.238500D-02
   s    10 1.00
  0.823600D+04 -0.113000D-03
  0.123500D+04 -0.878000D-03
  0.280800D+03 -0.454000D-02
  0.792700D+02 -0.181330D-01
  0.255900D+02 -0.557600D-01
  0.899700D+01 -0.126895D+00
  0.331900D+01 -0.170352D+00
  0.905900D+00  0.140382D+00
  0.364300D+00  0.598684D+00
  0.128500D+00  0.395389D+00
   s     1 1.00
  0.905900D+00  0.100000D+01
   s     1 1.00
  0.364300D+00  0.100000D+01
   p     5 1.00
  0.187100D+02  0.140310D-01
  0.413300D+01  0.868660D-01
  0.120000D+01  0.290216D+00
  0.382700D+00  0.501008D+00
  0.120900D+00  0.343406D+00
   p     1 1.00
  0.382700D+00  0.100000D+01
   p     1 1.00
  0.120900D+00  0.100000D+01
   d     1 1.00
  0.109700D+01  0.100000D+01
   d     1 1.00
  0.318000D+00  0.100000D+01
   f     1 1.00
  0.761000D+00  0.100000D+01
  
  6  0
   s    10 1.00
  0.823600D+04  0.531000D-03
  0.123500D+04  0.410800D-02
  0.280800D+03  0.210870D-01
  0.792700D+02  0.818530D-01
  0.255900D+02  0.234817D+00
  0.899700D+01  0.434401D+00
  0.331900D+01  0.346129D+00
  0.905900D+00  0.393780D-01
  0.364300D+00 -0.898300D-02
  0.128500D+00  0.238500D-02
   s    10 1.00
  0.823600D+04 -0.113000D-03
  0.123500D+04 -0.878000D-03
  0.280800D+03 -0.454000D-02
  0.792700D+02 -0.181330D-01
  0.255900D+02 -0.557600D-01
  0.899700D+01 -0.126895D+00
  0.331900D+01 -0.170352D+00
  0.905900D+00  0.140382D+00
  0.364300D+00  0.598684D+00
  0.128500D+00  0.395389D+00
   s     1 1.00
  0.905900D+00  0.100000D+01
   s     1 1.00
  0.364300D+00  0.100000D+01
   p     5 1.00
  0.187100D+02  0.140310D-01
  0.413300D+01  0.868660D-01
  0.120000D+01  0.290216D+00
  0.382700D+00  0.501008D+00
  0.120900D+00  0.343406D+00
   p     1 1.00
  0.382700D+00  0.100000D+01
   p     1 1.00
  0.120900D+00  0.100000D+01
   d     1 1.00
  0.109700D+01  0.100000D+01
   d     1 1.00
  0.318000D+00  0.100000D+01
   f     1 1.00
  0.761000D+00  0.100000D+01
  
  7  0
   s    10 1.00
  0.823600D+04  0.531000D-03
  0.123500D+04  0.410800D-02
  0.280800D+03  0.210870D-01
  0.792700D+02  0.818530D-01
  0.255900D+02  0.234817D+00
  0.899700D+01  0.434401D+00
  0.331900D+01  0.346129D+00
  0.905900D+00  0.393780D-01
  0.364300D+00 -0.898300D-02
  0.128500D+00  0.238500D-02
   s    10 1.00
  0.823600D+04 -0.113000D-03
  0.123500D+04 -0.878000D-03
  0.280800D+03 -0.454000D-02
  0.792700D+02 -0.181330D-01
  0.255900D+02 -0.557600D-01
  0.899700D+01 -0.126895D+00
  0.331900D+01 -0.170352D+00
  0.905900D+00  0.140382D+00
  0.364300D+00  0.598684D+00
  0.128500D+00  0.395389D+00
   s     1 1.00
  0.905900D+00  0.100000D+01
   s     1 1.00
  0.364300D+00  0.100000D+01
   p     5 1.00
  0.187100D+02  0.140310D-01
  0.413300D+01  0.868660D-01
  0.120000D+01  0.290216D+00
  0.382700D+00  0.501008D+00
  0.120900D+00  0.343406D+00
   p     1 1.00
  0.382700D+00  0.100000D+01
   p     1 1.00
  0.120900D+00  0.100000D+01
   d     1 1.00
  0.109700D+01  0.100000D+01
   d     1 1.00
  0.318000D+00  0.100000D+01
   f     1 1.00
  0.761000D+00  0.100000D+01
  
  8  0
   s     4 1.00
  0.130100D+02  0.196850D-01
  0.196200D+01  0.137977D+00
  0.444600D+00  0.478148D+00
  0.122000D+00  0.501240D+00
   s     1 1.00
  0.122000D+00  0.100000D+01
   p     1 1.00
  0.727000D+00  0.100000D+01
  
  9  0
   s     4 1.00
  0.130100D+02  0.196850D-01
  0.196200D+01  0.137977D+00
  0.444600D+00  0.478148D+00
  0.122000D+00  0.501240D+00
   s     1 1.00
  0.122000D+00  0.100000D+01
   p     1 1.00
  0.727000D+00  0.100000D+01
  
 10  0
   s     4 1.00
  0.130100D+02  0.196850D-01
  0.196200D+01  0.137977D+00
  0.444600D+00  0.478148D+00
  0.122000D+00  0.501240D+00
   s     1 1.00
  0.122000D+00  0.100000D+01
   p     1 1.00
  0.727000D+00  0.100000D+01
  
 11  0
   s     4 1.00
  0.130100D+02  0.196850D-01
  0.196200D+01  0.137977D+00
  0.444600D+00  0.478148D+00
  0.122000D+00  0.501240D+00
   s     1 1.00
  0.122000D+00  0.100000D+01
   p     1 1.00
  0.727000D+00  0.100000D+01
  
 12  0
   s     4 1.00
  0.130100D+02  0.196850D-01
  0.196200D+01  0.137977D+00
  0.444600D+00  0.478148D+00
  0.122000D+00  0.501240D+00
   s     1 1.00
  0.122000D+00  0.100000D+01
   p     1 1.00
  0.727000D+00  0.100000D+01
  
 13  0
   s     4 1.00
  0.130100D+02  0.196850D-01
  0.196200D+01  0.137977D+00
  0.444600D+00  0.478148D+00
  0.122000D+00  0.501240D+00
   s     1 1.00
  0.122000D+00  0.100000D+01
   p     1 1.00
  0.727000D+00  0.100000D+01
  
 14  0
   s     4 1.00
  0.130100D+02  0.196850D-01
  0.196200D+01  0.137977D+00
  0.444600D+00  0.478148D+00
  0.122000D+00  0.501240D+00
   s     1 1.00
  0.122000D+00  0.100000D+01
   p     1 1.00
  0.727000D+00  0.100000D+01
  
[MO]
 Sym= __1_A__
 Ene=  0.000000000000000E+000
 Spin= Alpha
 Occup=    2.00000000000000     
                     1  1.267950757928081E-004
                     2  0.997335724106654     
                     3  1.782438464599823E-002
                     4  2.259732913039457E-003
                     5  9.152764652951308E-005
                     6  1.958924024201600E-009
                     7 -2.325699307660960E-008
                     8  3.173029719758377E-003
                     9 -2.782260476083360E-010
                    10  1.953746329377489E-008
                    11 -4.328007824777547E-004
                    12 -5.172685211282853E-009
                    13 -5.098911598606255E-008
                    14 -5.395871209264848E-004
                    15  1.625634584413829E-004
                    16  1.748612939455945E-010
                    17  1.078505818284601E-009
                    18  1.519004827197670E-004
                    19 -1.510866466398843E-012
                    20  1.775050050343506E-004
                    21  1.240144448059051E-009
                    22 -4.027113219751410E-008
                    23 -6.293822486928624E-004
                    24  1.539568135702984E-011
                    25 -2.416864986596741E-004
                    26 -1.012124833180657E-009
                    27 -1.062909142379241E-008
                    28 -9.492517874149477E-005
                    29  4.899899026874994E-012
                    30  2.793471092670929E-010
                    31 -4.269806456138019E-010
                    32 -2.761619038275050E-004
                    33  3.628118802133839E-003
                    34  1.804054717339437E-004
                    35 -7.790901269648086E-004
                    36 -4.160399288171450E-009
                    37  3.255387622345568E-008
                    38 -8.178162706674725E-003
                    39  4.648077452836863E-009
                    40 -1.196702818478327E-007
                    41  1.956161209552824E-004
                    42  6.228603111174200E-009
                    43 -7.741892718369213E-008
                    44  4.011785801365096E-003
                    45  4.213177072638226E-004
                    46 -2.056462432405215E-010
                    47  1.279134118718717E-008
                    48  1.010234033186391E-004
                    49  5.361788823488967E-012
                    50  7.323577667887450E-004
                    51  1.579526500413140E-009
                    52 -2.356557567055889E-007
                    53  1.200221512760890E-004
                    54 -1.154268304022572E-010
                    55 -7.018515908883026E-005
                    56  5.401776074013058E-010
                    57  5.138026372374832E-009
                    58  6.488040327340122E-006
                    59 -2.330265075536555E-011
                    60  5.207039487887863E-010
                    61  7.272155571314721E-010
                    62 -2.248810482561805E-004
                    63 -2.027550501158514E-003
                    64  2.146182545240284E-005
                    65  8.747069533680963E-004
                    66 -1.055919489274489E-009
                    67 -1.027893966480798E-003
                    68  1.461979687608802E-003
                    69  9.999134296586305E-010
                    70  7.073500118082548E-005
                    71  1.082738726171400E-004
                    72 -2.955220515086284E-009
                    73 -7.102747933060483E-004
                    74 -3.306421381479424E-004
                    75  1.067372059832423E-004
                    76 -7.930579877866032E-011
                    77 -8.014110908550535E-006
                    78  4.384963213374436E-005
                    79  2.495441142139243E-010
                    80  5.591428657153092E-005
                    81  1.320702329188092E-009
                    82 -1.360344002243305E-005
                    83  5.221691404645830E-005
                    84 -2.228588700833117E-009
                    85 -6.572894039929610E-005
                    86  2.289153379276870E-010
                    87  8.353578379035334E-006
                    88  1.737633640946830E-005
                    89  2.707440518426773E-010
                    90 -3.844279067672937E-010
                    91  3.449391463199544E-005
                    92 -2.248394685870391E-004
                    93 -2.027375931701016E-003
                    94  2.171107430286262E-005
                    95  8.738654769785993E-004
                    96 -1.069178530125512E-009
                    97  1.027937991988376E-003
                    98  1.462152753109329E-003
                    99  1.053631197090599E-009
                   100 -7.099566403445369E-005
                   101  1.072262760973077E-004
                   102 -2.903695691577261E-009
                   103  7.094209570664906E-004
                   104 -3.306466247966614E-004
                   105  1.066848525708576E-004
                   106 -7.379410608814860E-011
                   107  8.036146223319689E-006
                   108  4.385356972549496E-005
                   109 -2.255073918251950E-010
                   110  5.524345954638762E-005
                   111  1.227116376476562E-009
                   112  1.348276916748660E-005
                   113  5.206021791167538E-005
                   114  2.035934486836761E-009
                   115 -6.563251978836542E-005
                   116  2.256012099122440E-010
                   117 -8.371467849102117E-006
                   118  1.737540081231841E-005
                   119 -2.460888356653140E-010
                   120 -3.697018028715844E-010
                   121 -3.449313223165076E-005
                   122 -1.806075818390857E-004
                   123  2.449649635152275E-005
                   124  7.837420813344697E-005
                   125  3.115716534251667E-004
                   126 -1.309976821019606E-010
                   127  7.959822136092948E-005
                   128 -9.659271930191672E-004
                   129 -4.140506903527351E-010
                   130  4.646068815400893E-006
                   131  1.765330030191193E-004
                   132  1.186848600964004E-009
                   133  6.264315476992328E-005
                   134  5.932982196482806E-004
                   135  6.581067660252094E-006
                   136  2.261744028905523E-011
                   137  1.219839809094111E-005
                   138 -2.179832035128952E-007
                   139 -7.706732752432006E-011
                   140 -1.325561820711503E-004
                   141  7.111376173364161E-010
                   142  7.263675641341541E-005
                   143  2.966356790582332E-005
                   144  6.571249904148836E-010
                   145 -2.169561976035064E-005
                   146 -2.381699203591289E-010
                   147 -1.106337917508720E-005
                   148 -7.398802163882766E-006
                   149 -5.935554382594990E-011
                   150  6.249845066906002E-011
                   151 -2.991531247935347E-006
                   152 -1.812826619835269E-004
                   153  2.211044258077985E-005
                   154  7.774548183812158E-005
                   155  3.156403103116396E-004
                   156 -1.184008147927709E-010
                   157 -7.959361412335848E-005
                   158 -9.658369295142075E-004
                   159 -4.234180116752682E-010
                   160 -4.841767464495109E-006
                   161  1.757889303180735E-004
                   162  1.182186678472646E-009
                   163 -6.178388537944543E-005
                   164  5.932559787210446E-004
                   165  6.660808338971423E-006
                   166  2.358919758077809E-011
                   167 -1.219737995413759E-005
                   168 -2.783058256002564E-007
                   169  6.949959323127447E-011
                   170 -1.322604961803887E-004
                   171  6.566874244490694E-010
                   172 -7.286575322449024E-005
                   173  2.966700774304888E-005
                   174 -5.767146598402856E-010
                   175 -2.157138835693908E-005
                   176 -2.318872803967968E-010
                   177  1.109090405013348E-005
                   178 -7.457579815956578E-006
                   179  5.841427198464085E-011
                   180  5.634811558538804E-011
                   181  2.992844647853724E-006
                   182 -1.579077916626038E-004
                   183 -4.200783003358214E-004
                   184  2.102667808448338E-005
                   185  3.227866101019490E-004
                   186  2.673075128784696E-012
                   187  6.487771098168249E-008
                   188 -7.029075908905451E-005
                   189 -5.117236546486640E-010
                   190 -3.526665788309141E-007
                   191  2.962608793473701E-005
                   192 -9.638864513872480E-010
                   193  1.327203877372739E-007
                   194 -1.388442965973652E-004
                   195  1.947281753874707E-005
                   196  2.320051657617892E-011
                   197  2.369234429350847E-008
                   198  7.327865191820620E-006
                   199 -1.795291838350585E-012
                   200  2.823987226327338E-005
                   201  1.727393691303895E-010
                   202  1.712094616117080E-007
                   203 -6.091437674504450E-006
                   204  4.198933069377937E-011
                   205 -1.500201965167715E-005
                   206 -1.150518946634571E-011
                   207 -1.074601637184676E-008
                   208  5.882085340698376E-006
                   209 -6.970353910139602E-012
                   210 -6.936969400882937E-011
                   211  2.459465672197135E-008
                   212  8.429662942038165E-003
                   213 -4.386068452266439E-003
                   214  8.083291625213138E-004
                   215 -2.669932466170280E-009
                   216  5.303632731783849E-004
                   217  8.429669079776179E-003
                   218 -4.386074937412217E-003
                   219 -8.083327034876230E-004
                   220 -2.678601635661635E-009
                   221  5.303640332982734E-004
                   222 -7.660047925734104E-004
                   223 -2.023027306396628E-004
                   224 -2.106961121548441E-010
                   225 -4.340434001146144E-005
                   226 -5.391278158418029E-005
                   227 -7.661061816127298E-004
                   228 -2.018269018830958E-004
                   229 -1.858020761078678E-010
                   230  4.337254233347191E-005
                   231 -5.395778521729761E-005
                   232 -3.374294733902404E-004
                   233 -1.876803834723388E-004
                   234  2.488517952086117E-011
                   235 -2.014803182098228E-005
                   236 -2.663706561862359E-006
                   237 -3.375594566468243E-004
                   238 -1.878340800777555E-004
                   239  1.794542002288930E-011
                   240  2.023296312567278E-005
                   241 -2.605234248311429E-006
                   242  9.723060720636275E-005
                   243  3.613940053111063E-005
                   244  4.136747700872938E-011
                   245 -1.803770504606575E-008
                   246  2.239643386537032E-005
 Sym= __2_A__
 Ene=  0.000000000000000E+000
 Spin= Alpha
 Occup=    2.00000000000000     
                     1  2.257429519753479E-006
                     2 -7.455696775161459E-005
                     3  1.605176313582283E-003
                     4  5.720188618346165E-005
                     5  1.120924811293703E-003
                     6  1.573339396782180E-010
                     7  8.986962440425719E-009
                     8  1.549674865317268E-003
                     9  1.099747597745568E-010
                    10 -4.968284636007949E-009
                    11 -9.273082764342941E-005
                    12 -2.344793896111577E-010
                    13  4.073022950280331E-009
                    14 -7.993630320714382E-006
                    15  4.089923188596901E-005
                    16 -2.236679716056296E-011
                    17  4.589214196442597E-010
                    18  5.525218211405918E-007
                    19  7.580392531619469E-013
                    20 -1.236159378419874E-004
                    21  4.187023301333540E-010
                    22  2.522698910725032E-009
                    23  3.100809597697256E-005
                    24 -7.136273537431621E-013
                    25  1.919770763234660E-004
                    26  2.949474600718460E-010
                    27 -9.950484899940502E-010
                    28 -5.655291044144994E-005
                    29 -5.721641955891219E-013
                    30  6.942951818242960E-011
                    31  4.608315941772506E-010
                    32   1.00110868692224     
                    33  8.562374201298040E-003
                    34  2.444490511072154E-003
                    35 -7.774609021372857E-003
                    36 -6.575066092555331E-010
                    37 -5.848755188229765E-009
                    38 -2.346904413372794E-003
                    39  3.423836141648007E-010
                    40  9.267970135338623E-009
                    41  8.493684069910191E-004
                    42  9.188734352591415E-011
                    43 -6.496017814228306E-008
                    44  3.213455529808756E-003
                    45  2.964519414793553E-004
                    46 -1.793465811515558E-011
                    47 -3.382319378157499E-009
                    48 -3.327147856993166E-004
                    49 -3.662054221421977E-013
                    50  1.661693535058997E-004
                    51  2.000357349610007E-010
                    52  2.309334499204219E-008
                    53  6.279594227344444E-004
                    54  3.639937186562029E-012
                    55  2.877739989857887E-004
                    56 -1.640016827374443E-010
                    57  1.085863900873012E-010
                    58 -1.393035742097340E-004
                    59  3.370674889201571E-012
                    60 -1.421617905279217E-011
                    61  1.490829229805723E-009
                    62  1.070141034432243E-002
                    63 -1.641720528783285E-003
                    64 -2.808664195004523E-004
                    65  2.749638368218831E-003
                    66 -4.118362639400777E-011
                    67  2.727045277707884E-004
                    68 -2.157646046074586E-004
                    69 -7.481346527105818E-011
                    70  5.534673047472012E-004
                    71  1.832329528892828E-004
                    72 -5.806579330058323E-012
                    73 -1.650469462214599E-003
                    74  2.276826596963496E-004
                    75 -2.856425075983605E-005
                    76  3.864406285873396E-012
                    77  2.074916517062917E-006
                    78  1.359488433098796E-005
                    79 -1.402874186668672E-012
                    80  6.620218939255471E-004
                    81 -4.803765412323046E-011
                    82 -3.024741513988821E-004
                    83 -9.277587273726151E-005
                    84 -3.330177079302423E-011
                    85  5.080123802756810E-005
                    86 -5.001205673642573E-012
                    87  7.062608266478213E-006
                    88 -1.146764386867189E-004
                    89  8.608348116961850E-013
                    90  7.992621493379892E-012
                    91  3.784337706640111E-005
                    92  1.070138495833561E-002
                    93 -1.641800850725581E-003
                    94 -2.809204414125746E-004
                    95  2.749864623771278E-003
                    96 -4.571836137454928E-011
                    97 -2.727080971261709E-004
                    98 -2.157958315357582E-004
                    99 -6.044744098220697E-011
                   100 -5.534475533240362E-004
                   101  1.834179730993918E-004
                   102 -1.515783131632007E-011
                   103  1.650627727677254E-003
                   104  2.275294883735414E-004
                   105 -2.854828142289978E-005
                   106  3.957120115583668E-012
                   107 -2.081114548153858E-006
                   108  1.359364812466285E-005
                   109  1.758571405633772E-012
                   110  6.621221357678008E-004
                   111 -4.540485586635111E-011
                   112  3.025230336632944E-004
                   113 -9.275033537859397E-005
                   114  3.997232938097505E-011
                   115  5.078303744711791E-005
                   116 -5.442936896658712E-012
                   117 -7.059772117817421E-006
                   118 -1.146744430438658E-004
                   119 -2.229242839446564E-012
                   120  5.167750150012795E-012
                   121 -3.784267933766459E-005
                   122 -1.635694488591992E-004
                   123 -7.653458524822448E-004
                   124  2.234381330068704E-004
                   125 -1.461763181768739E-004
                   126 -1.058859738139751E-010
                   127 -1.420790981047668E-005
                   128 -1.601953510095410E-004
                   129  3.221060978798202E-011
                   130 -3.837901919702423E-005
                   131  6.001281621099713E-004
                   132  9.620695902366816E-011
                   133  2.306367174626747E-004
                   134  6.496170114581375E-004
                   135 -2.537738491196764E-005
                   136  2.717286879282596E-012
                   137  3.602712566914656E-005
                   138  1.340584683474719E-005
                   139 -7.109355228011421E-012
                   140 -2.683364435098331E-004
                   141 -2.792835992126487E-011
                   142 -1.421021950409602E-004
                   143 -9.239318923794641E-006
                   144  3.877523989704531E-011
                   145 -5.151671711161357E-006
                   146  7.986485360124696E-012
                   147 -2.779695801654246E-005
                   148 -4.363938165267362E-005
                   149  5.276294352110476E-012
                   150  1.890768139569651E-012
                   151 -3.153598088340089E-006
                   152 -1.632881738999152E-004
                   153 -7.644121532428224E-004
                   154  2.235462537138545E-004
                   155 -1.473120122345211E-004
                   156 -8.405894717116698E-011
                   157  1.419458788499731E-005
                   158 -1.602036761950119E-004
                   159  2.601734526192946E-011
                   160  3.845024027507399E-005