[Molden Format]
[Atoms] AU
  N     1    7     0.0000000000    0.0000000000   -4.3896059400        
  C     2    6     0.0000000000    0.0000000000   -1.7787405200        
  C     3    6     0.0000000000   -2.3347474200   -0.3922060100        
  C     4    6     0.0000000000    2.3347474200   -0.3922060100        
  C     5    6     0.0000000000   -2.3242454000    2.1775818300        
  C     6    6     0.0000000000    2.3242454000    2.1775818300        
  C     7    6     0.0000000000    0.0000000000    3.4748475600        
  H     8    1    -1.6486042200    0.0000000000   -5.3790611100        
  H     9    1     1.6486042200    0.0000000000   -5.3790611200        
  H    10    1     0.0000000000   -4.0457988600   -1.4652898000        
  H    11    1     0.0000000000    4.0457988600   -1.4652898000        
  H    12    1     0.0000000000   -4.0519040200    3.2320081000        
  H    13    1     0.0000000000    4.0519040200    3.2320081000        
  H    14    1     0.0000000000    0.0000000000    5.5038241200        
[5D]
[7F]
[GTO]
  1  0
   s    12 1.00
  0.114200D+05  0.172695D-04
  0.171200D+04  0.134411D-03
  0.389300D+03  0.694561D-03
  0.110000D+03  0.278531D-02
  0.355700D+02  0.863457D-02
  0.125400D+02  0.199805D-01
  0.464400D+01  0.262908D-01
  0.129300D+01 -0.243845D-01
  0.511800D+00 -0.924934D-01
  0.178700D+00 -0.339683D+00
  0.246240D-01  0.345111D+00
  0.112530D-01  0.752750D+00
   s    10 1.00
  0.114200D+05  0.523000D-03
  0.171200D+04  0.404500D-02
  0.389300D+03  0.207750D-01
  0.110000D+03  0.807269D-01
  0.355700D+02  0.233074D+00
  0.125400D+02  0.433501D+00
  0.464400D+01  0.347472D+00
  0.129300D+01  0.412620D-01
  0.511800D+00 -0.850799D-02
  0.178700D+00  0.238400D-02
   s    10 1.00
  0.114200D+05 -0.115000D-03
  0.171200D+04 -0.895000D-03
  0.389300D+03 -0.462400D-02
  0.110000D+03 -0.185280D-01
  0.355700D+02 -0.573390D-01
  0.125400D+02 -0.132076D+00
  0.464400D+01 -0.172510D+00
  0.129300D+01  0.151814D+00
  0.511800D+00  0.599944D+00
  0.178700D+00  0.387462D+00
   s     1 1.00
  0.129300D+01  0.100000D+01
   s     1 1.00
  0.178700D+00  0.100000D+01
   p     5 1.00
  0.266300D+02  0.146700D-01
  0.594800D+01  0.917640D-01
  0.174200D+01  0.298683D+00
  0.555000D+00  0.498487D+00
  0.172500D+00  0.337023D+00
   p     1 1.00
  0.174200D+01  0.100000D+01
   p     1 1.00
  0.555000D+00  0.100000D+01
   d     1 1.00
  0.165400D+01  0.100000D+01
   d     1 1.00
  0.469000D+00  0.100000D+01
   f     1 1.00
  0.109300D+01  0.100000D+01
  
  2  0
   s    10 1.00
  0.823600D+04  0.531000D-03
  0.123500D+04  0.410800D-02
  0.280800D+03  0.210870D-01
  0.792700D+02  0.818530D-01
  0.255900D+02  0.234817D+00
  0.899700D+01  0.434401D+00
  0.331900D+01  0.346129D+00
  0.905900D+00  0.393780D-01
  0.364300D+00 -0.898300D-02
  0.128500D+00  0.238500D-02
   s    10 1.00
  0.823600D+04 -0.113000D-03
  0.123500D+04 -0.878000D-03
  0.280800D+03 -0.454000D-02
  0.792700D+02 -0.181330D-01
  0.255900D+02 -0.557600D-01
  0.899700D+01 -0.126895D+00
  0.331900D+01 -0.170352D+00
  0.905900D+00  0.140382D+00
  0.364300D+00  0.598684D+00
  0.128500D+00  0.395389D+00
   s     1 1.00
  0.905900D+00  0.100000D+01
   s     1 1.00
  0.364300D+00  0.100000D+01
   p     5 1.00
  0.187100D+02  0.140310D-01
  0.413300D+01  0.868660D-01
  0.120000D+01  0.290216D+00
  0.382700D+00  0.501008D+00
  0.120900D+00  0.343406D+00
   p     1 1.00
  0.382700D+00  0.100000D+01
   p     1 1.00
  0.120900D+00  0.100000D+01
   d     1 1.00
  0.109700D+01  0.100000D+01
   d     1 1.00
  0.318000D+00  0.100000D+01
   f     1 1.00
  0.761000D+00  0.100000D+01
  
  3  0
   s    10 1.00
  0.823600D+04  0.531000D-03
  0.123500D+04  0.410800D-02
  0.280800D+03  0.210870D-01
  0.792700D+02  0.818530D-01
  0.255900D+02  0.234817D+00
  0.899700D+01  0.434401D+00
  0.331900D+01  0.346129D+00
  0.905900D+00  0.393780D-01
  0.364300D+00 -0.898300D-02
  0.128500D+00  0.238500D-02
   s    10 1.00
  0.823600D+04 -0.113000D-03
  0.123500D+04 -0.878000D-03
  0.280800D+03 -0.454000D-02
  0.792700D+02 -0.181330D-01
  0.255900D+02 -0.557600D-01
  0.899700D+01 -0.126895D+00
  0.331900D+01 -0.170352D+00
  0.905900D+00  0.140382D+00
  0.364300D+00  0.598684D+00
  0.128500D+00  0.395389D+00
   s     1 1.00
  0.905900D+00  0.100000D+01
   s     1 1.00
  0.364300D+00  0.100000D+01
   p     5 1.00
  0.187100D+02  0.140310D-01
  0.413300D+01  0.868660D-01
  0.120000D+01  0.290216D+00
  0.382700D+00  0.501008D+00
  0.120900D+00  0.343406D+00
   p     1 1.00
  0.382700D+00  0.100000D+01
   p     1 1.00
  0.120900D+00  0.100000D+01
   d     1 1.00
  0.109700D+01  0.100000D+01
   d     1 1.00
  0.318000D+00  0.100000D+01
   f     1 1.00
  0.761000D+00  0.100000D+01
  
  4  0
   s    10 1.00
  0.823600D+04  0.531000D-03
  0.123500D+04  0.410800D-02
  0.280800D+03  0.210870D-01
  0.792700D+02  0.818530D-01
  0.255900D+02  0.234817D+00
  0.899700D+01  0.434401D+00
  0.331900D+01  0.346129D+00
  0.905900D+00  0.393780D-01
  0.364300D+00 -0.898300D-02
  0.128500D+00  0.238500D-02
   s    10 1.00
  0.823600D+04 -0.113000D-03
  0.123500D+04 -0.878000D-03
  0.280800D+03 -0.454000D-02
  0.792700D+02 -0.181330D-01
  0.255900D+02 -0.557600D-01
  0.899700D+01 -0.126895D+00
  0.331900D+01 -0.170352D+00
  0.905900D+00  0.140382D+00
  0.364300D+00  0.598684D+00
  0.128500D+00  0.395389D+00
   s     1 1.00
  0.905900D+00  0.100000D+01
   s     1 1.00
  0.364300D+00  0.100000D+01
   p     5 1.00
  0.187100D+02  0.140310D-01
  0.413300D+01  0.868660D-01
  0.120000D+01  0.290216D+00
  0.382700D+00  0.501008D+00
  0.120900D+00  0.343406D+00
   p     1 1.00
  0.382700D+00  0.100000D+01
   p     1 1.00
  0.120900D+00  0.100000D+01
   d     1 1.00
  0.109700D+01  0.100000D+01
   d     1 1.00
  0.318000D+00  0.100000D+01
   f     1 1.00
  0.761000D+00  0.100000D+01
  
  5  0
   s    10 1.00
  0.823600D+04  0.531000D-03
  0.123500D+04  0.410800D-02
  0.280800D+03  0.210870D-01
  0.792700D+02  0.818530D-01
  0.255900D+02  0.234817D+00
  0.899700D+01  0.434401D+00
  0.331900D+01  0.346129D+00
  0.905900D+00  0.393780D-01
  0.364300D+00 -0.898300D-02
  0.128500D+00  0.238500D-02
   s    10 1.00
  0.823600D+04 -0.113000D-03
  0.123500D+04 -0.878000D-03
  0.280800D+03 -0.454000D-02
  0.792700D+02 -0.181330D-01
  0.255900D+02 -0.557600D-01
  0.899700D+01 -0.126895D+00
  0.331900D+01 -0.170352D+00
  0.905900D+00  0.140382D+00
  0.364300D+00  0.598684D+00
  0.128500D+00  0.395389D+00
   s     1 1.00
  0.905900D+00  0.100000D+01
   s     1 1.00
  0.364300D+00  0.100000D+01
   p     5 1.00
  0.187100D+02  0.140310D-01
  0.413300D+01  0.868660D-01
  0.120000D+01  0.290216D+00
  0.382700D+00  0.501008D+00
  0.120900D+00  0.343406D+00
   p     1 1.00
  0.382700D+00  0.100000D+01
   p     1 1.00
  0.120900D+00  0.100000D+01
   d     1 1.00
  0.109700D+01  0.100000D+01
   d     1 1.00
  0.318000D+00  0.100000D+01
   f     1 1.00
  0.761000D+00  0.100000D+01
  
  6  0
   s    10 1.00
  0.823600D+04  0.531000D-03
  0.123500D+04  0.410800D-02
  0.280800D+03  0.210870D-01
  0.792700D+02  0.818530D-01
  0.255900D+02  0.234817D+00
  0.899700D+01  0.434401D+00
  0.331900D+01  0.346129D+00
  0.905900D+00  0.393780D-01
  0.364300D+00 -0.898300D-02
  0.128500D+00  0.238500D-02
   s    10 1.00
  0.823600D+04 -0.113000D-03
  0.123500D+04 -0.878000D-03
  0.280800D+03 -0.454000D-02
  0.792700D+02 -0.181330D-01
  0.255900D+02 -0.557600D-01
  0.899700D+01 -0.126895D+00
  0.331900D+01 -0.170352D+00
  0.905900D+00  0.140382D+00
  0.364300D+00  0.598684D+00
  0.128500D+00  0.395389D+00
   s     1 1.00
  0.905900D+00  0.100000D+01
   s     1 1.00
  0.364300D+00  0.100000D+01
   p     5 1.00
  0.187100D+02  0.140310D-01
  0.413300D+01  0.868660D-01
  0.120000D+01  0.290216D+00
  0.382700D+00  0.501008D+00
  0.120900D+00  0.343406D+00
   p     1 1.00
  0.382700D+00  0.100000D+01
   p     1 1.00
  0.120900D+00  0.100000D+01
   d     1 1.00
  0.109700D+01  0.100000D+01
   d     1 1.00
  0.318000D+00  0.100000D+01
   f     1 1.00
  0.761000D+00  0.100000D+01
  
  7  0
   s    10 1.00
  0.823600D+04  0.531000D-03
  0.123500D+04  0.410800D-02
  0.280800D+03  0.210870D-01
  0.792700D+02  0.818530D-01
  0.255900D+02  0.234817D+00
  0.899700D+01  0.434401D+00
  0.331900D+01  0.346129D+00
  0.905900D+00  0.393780D-01
  0.364300D+00 -0.898300D-02
  0.128500D+00  0.238500D-02
   s    10 1.00
  0.823600D+04 -0.113000D-03
  0.123500D+04 -0.878000D-03
  0.280800D+03 -0.454000D-02
  0.792700D+02 -0.181330D-01
  0.255900D+02 -0.557600D-01
  0.899700D+01 -0.126895D+00
  0.331900D+01 -0.170352D+00
  0.905900D+00  0.140382D+00
  0.364300D+00  0.598684D+00
  0.128500D+00  0.395389D+00
   s     1 1.00
  0.905900D+00  0.100000D+01
   s     1 1.00
  0.364300D+00  0.100000D+01
   p     5 1.00
  0.187100D+02  0.140310D-01
  0.413300D+01  0.868660D-01
  0.120000D+01  0.290216D+00
  0.382700D+00  0.501008D+00
  0.120900D+00  0.343406D+00
   p     1 1.00
  0.382700D+00  0.100000D+01
   p     1 1.00
  0.120900D+00  0.100000D+01
   d     1 1.00
  0.109700D+01  0.100000D+01
   d     1 1.00
  0.318000D+00  0.100000D+01
   f     1 1.00
  0.761000D+00  0.100000D+01
  
  8  0
   s     4 1.00
  0.130100D+02  0.196850D-01
  0.196200D+01  0.137977D+00
  0.444600D+00  0.478148D+00
  0.122000D+00  0.501240D+00
   s     1 1.00
  0.122000D+00  0.100000D+01
   p     1 1.00
  0.727000D+00  0.100000D+01
  
  9  0
   s     4 1.00
  0.130100D+02  0.196850D-01
  0.196200D+01  0.137977D+00
  0.444600D+00  0.478148D+00
  0.122000D+00  0.501240D+00
   s     1 1.00
  0.122000D+00  0.100000D+01
   p     1 1.00
  0.727000D+00  0.100000D+01
  
 10  0
   s     4 1.00
  0.130100D+02  0.196850D-01
  0.196200D+01  0.137977D+00
  0.444600D+00  0.478148D+00
  0.122000D+00  0.501240D+00
   s     1 1.00
  0.122000D+00  0.100000D+01
   p     1 1.00
  0.727000D+00  0.100000D+01
  
 11  0
   s     4 1.00
  0.130100D+02  0.196850D-01
  0.196200D+01  0.137977D+00
  0.444600D+00  0.478148D+00
  0.122000D+00  0.501240D+00
   s     1 1.00
  0.122000D+00  0.100000D+01
   p     1 1.00
  0.727000D+00  0.100000D+01
  
 12  0
   s     4 1.00
  0.130100D+02  0.196850D-01
  0.196200D+01  0.137977D+00
  0.444600D+00  0.478148D+00
  0.122000D+00  0.501240D+00
   s     1 1.00
  0.122000D+00  0.100000D+01
   p     1 1.00
  0.727000D+00  0.100000D+01
  
 13  0
   s     4 1.00
  0.130100D+02  0.196850D-01
  0.196200D+01  0.137977D+00
  0.444600D+00  0.478148D+00
  0.122000D+00  0.501240D+00
   s     1 1.00
  0.122000D+00  0.100000D+01
   p     1 1.00
  0.727000D+00  0.100000D+01
  
 14  0
   s     4 1.00
  0.130100D+02  0.196850D-01
  0.196200D+01  0.137977D+00
  0.444600D+00  0.478148D+00
  0.122000D+00  0.501240D+00
   s     1 1.00
  0.122000D+00  0.100000D+01
   p     1 1.00
  0.727000D+00  0.100000D+01
  
[MO]
 Sym= __1_A__
 Ene=  0.000000000000000E+000
 Spin= Alpha
 Occup=    2.00000000000000     
                     1  1.267950756514600E-004
                     2  0.997335724114343     
                     3  1.782438450073054E-002
                     4  2.259732915314418E-003
                     5  9.152764564103679E-005
                     6  1.952548290509003E-009
                     7 -2.337471282068395E-008
                     8  3.173029611871459E-003
                     9 -2.792972831067580E-010
                    10  1.954059863993585E-008
                    11 -4.328007730386212E-004
                    12 -5.175838417554545E-009
                    13 -5.098568739088842E-008
                    14 -5.395871089511811E-004
                    15  1.625634566080839E-004
                    16  1.751835030040956E-010
                    17  1.077733754598905E-009
                    18  1.519004824851535E-004
                    19 -1.667922332560134E-012
                    20  1.775049970474071E-004
                    21  1.239593110425192E-009
                    22 -4.026999912204436E-008
                    23 -6.293822472514944E-004
                    24  1.413526956240428E-011
                    25 -2.416864959483055E-004
                    26 -1.012148351148782E-009
                    27 -1.062974504375557E-008
                    28 -9.492517878289804E-005
                    29  4.918205440265615E-012
                    30  2.792569169619585E-010
                    31 -4.277214318676003E-010
                    32 -2.761618977395187E-004
                    33  3.628118746242144E-003
                    34  1.804054687741893E-004
                    35 -7.790901231505463E-004
                    36 -4.184416493429413E-009
                    37  3.255094270643479E-008
                    38 -8.178162597649039E-003
                    39  4.647230980541190E-009
                    40 -1.196668739504860E-007
                    41  1.956161031223410E-004
                    42  6.233527893628967E-009
                    43 -7.744193810829910E-008
                    44  4.011785741902706E-003
                    45  4.213177037037859E-004
                    46 -2.061156138711927E-010
                    47  1.279383504260657E-008
                    48  1.010234026540063E-004
                    49  4.569386707107660E-012
                    50  7.323577668368219E-004
                    51  1.579951886583847E-009
                    52 -2.356487991212159E-007
                    53  1.200221536082192E-004
                    54 -1.161754607146343E-010
                    55 -7.018516014338046E-005
                    56  5.399939356644911E-010
                    57  5.137085542446786E-009
                    58  6.488040958441494E-006
                    59 -2.410722222963059E-011
                    60  5.200557328309566E-010
                    61  7.272528005134142E-010
                    62 -2.248810451489479E-004
                    63 -2.027550488985872E-003
                    64  2.146182397595932E-005
                    65  8.747069497321544E-004
                    66 -1.083571654832528E-009
                    67 -1.027893960046737E-003
                    68  1.461979685735988E-003
                    69  1.000280280202269E-009
                    70  7.073500289923632E-005
                    71  1.082738696816626E-004
                    72 -2.961263336565696E-009
                    73 -7.102747796813225E-004
                    74 -3.306421215101277E-004
                    75  1.067372054859683E-004
                    76 -8.040424411560911E-011
                    77 -8.014110955602824E-006
                    78  4.384963160207352E-005
                    79  2.496518325882375E-010
                    80  5.591428452203985E-005
                    81  1.320891318832776E-009
                    82 -1.360344114726031E-005
                    83  5.221691108683734E-005
                    84 -2.229752888924778E-009
                    85 -6.572894060095481E-005
                    86  2.276756377239213E-010
                    87  8.353578035197841E-006
                    88  1.737633679772286E-005
                    89  2.704973108517640E-010
                    90 -3.843280619622576E-010
                    91  3.449391430469587E-005
                    92 -2.248394641812211E-004
                    93 -2.027375894616736E-003
                    94  2.171107255650510E-005
                    95  8.738654696630566E-004
                    96 -1.103782352365672E-009
                    97  1.027937972692290E-003
                    98  1.462152735956892E-003
                    99  1.051738497068187E-009
                   100 -7.099566345186442E-005
                   101  1.072262695387674E-004
                   102 -2.893675768512873E-009
                   103  7.094209461844038E-004
                   104 -3.306466370936763E-004
                   105  1.066848509739617E-004
                   106 -7.369165850673570E-011
                   107  8.036146115754391E-006
                   108  4.385356859120238E-005
                   109 -2.246504578106299E-010
                   110  5.524345773988644E-005
                   111  1.226662613550400E-009
                   112  1.348277107946027E-005
                   113  5.206021785914720E-005
                   114  2.036747193570421E-009
                   115 -6.563251980016317E-005
                   116  2.260251586407230E-010
                   117 -8.371466950199798E-006
                   118  1.737540087831194E-005
                   119 -2.462860185367498E-010
                   120 -3.703167195959941E-010
                   121 -3.449313197865549E-005
                   122 -1.806075825709737E-004
                   123  2.449649836870247E-005
                   124  7.837420744302267E-005
                   125  3.115716531570138E-004
                   126 -1.574712959558808E-010
                   127  7.959822041080347E-005
                   128 -9.659271899217438E-004
                   129 -4.183750013763843E-010
                   130  4.646070766461261E-006
                   131  1.765330019948263E-004
                   132  1.194299806658250E-009
                   133  6.264315564304896E-005
                   134  5.932982306414908E-004
                   135  6.581067629282548E-006
                   136  2.371783634404278E-011
                   137  1.219839788295336E-005
                   138 -2.179832744709790E-007
                   139 -7.715847025503965E-011
                   140 -1.325561819329245E-004
                   141  7.104235616371849E-010
                   142  7.263675645893456E-005
                   143  2.966356795530894E-005
                   144  6.559800007741633E-010
                   145 -2.169561982250409E-005
                   146 -2.387219315265199E-010
                   147 -1.106337902661682E-005
                   148 -7.398802038154428E-006
                   149 -5.902943891353382E-011
                   150  6.278779072447347E-011
                   151 -2.991531279420477E-006
                   152 -1.812826584413415E-004
                   153  2.211043867862978E-005
                   154  7.774548121198040E-005
                   155  3.156403069880845E-004
                   156 -1.538672810537199E-010
                   157 -7.959361366711477E-005
                   158 -9.658369186130247E-004
                   159 -4.200779349592391E-010
                   160 -4.841766809458852E-006
                   161  1.757889273337025E-004
                   162  1.178765834888375E-009
                   163 -6.178388427666590E-005
                   164  5.932559515336361E-004
                   165  6.660808210858217E-006
                   166  2.327981586624550E-011
                   167 -1.219737945195731E-005
                   168 -2.783058110194654E-007
                   169  7.046793832629484E-011
                   170 -1.322604928388009E-004
                   171  6.583896443578634E-010
                   172 -7.286575012296217E-005
                   173  2.966700791065936E-005
                   174 -5.769463090523160E-010
                   175 -2.157138814153180E-005
                   176 -2.320369406557140E-010
                   177  1.109090342066651E-005
                   178 -7.457579634615426E-006
                   179  5.885052699692027E-011
                   180  5.528322982657774E-011
                   181  2.992844567696462E-006
                   182 -1.579077904632705E-004
                   183 -4.200782986272272E-004
                   184  2.102667785489079E-005
                   185  3.227866089486159E-004
                   186 -2.676005779065343E-011
                   187  6.487739617810809E-008
                   188 -7.029075704402318E-005
                   189 -5.124423149674873E-010
                   190 -3.526653626254809E-007
                   191  2.962608712459625E-005
                   192 -9.613426950938104E-010
                   193  1.327395983968803E-007
                   194 -1.388442932691703E-004
                   195  1.947281756905742E-005
                   196  2.386260629876808E-011
                   197  2.369245870976624E-008
                   198  7.327865162910314E-006
                   199 -2.744699758609870E-012
                   200  2.823987150329245E-005
                   201  1.730892221910505E-010
                   202  1.712078340041037E-007
                   203 -6.091437569424640E-006
                   204  4.237874948857534E-011
                   205 -1.500201950976028E-005
                   206 -1.177090967543565E-011
                   207 -1.074590329817550E-008
                   208  5.882085274444158E-006
                   209 -6.294813503574654E-012
                   210 -6.979570110206717E-011
                   211  2.459460445582840E-008
                   212  8.429662942489749E-003
                   213 -4.386068450887957E-003
                   214  8.083291613165018E-004
                   215 -2.673651362749453E-009
                   216  5.303632713058005E-004
                   217  8.429669049639085E-003
                   218 -4.386074927363788E-003
                   219 -8.083327010808503E-004
                   220 -2.680857389888513E-009
                   221  5.303640299384996E-004
                   222 -7.660047912011174E-004
                   223 -2.023027154187306E-004
                   224 -2.115454161409218E-010
                   225 -4.340434013379912E-005
                   226 -5.391278195456708E-005
                   227 -7.661061720786824E-004
                   228 -2.018269052260083E-004
                   229 -1.860444914663120E-010
                   230  4.337254241471709E-005
                   231 -5.395778483201133E-005
                   232 -3.374294712792788E-004
                   233 -1.876803857114020E-004
                   234  2.422271551192867E-011
                   235 -2.014803149046144E-005
                   236 -2.663706789628188E-006
                   237 -3.375594521337794E-004
                   238 -1.878340698319158E-004
                   239  1.760557164884957E-011
                   240  2.023296297151102E-005
                   241 -2.605234118595170E-006
                   242  9.723060805293172E-005
                   243  3.613939953837173E-005
                   244  4.091157625653957E-011
                   245 -1.803766625438813E-008
                   246  2.239643349685825E-005
 Sym= __2_A__
 Ene=  0.000000000000000E+000
 Spin= Alpha
 Occup=    2.00000000000000     
                     1  2.257429511157549E-006
                     2 -7.455696781320010E-005
                     3  1.605176321577785E-003
                     4  5.720188536208347E-005
                     5  1.120924810487336E-003
                     6  1.636196155291713E-010
                     7  8.988697674413603E-009
                     8  1.549674867895855E-003
                     9  1.102512202010486E-010
                    10 -4.968351638931714E-009
                    11 -9.273082787406753E-005
                    12 -2.350522810985243E-010
                    13  4.073392933168266E-009
                    14 -7.993629348662251E-006
                    15  4.089923205017170E-005
                    16 -2.237750856661861E-011
                    17  4.588766092864161E-010
                    18  5.525218335025717E-007
                    19  4.755463530942353E-013
                    20 -1.236159374505928E-004
                    21  4.196015270151810E-010
                    22  2.523052632652317E-009
                    23  3.100809601819418E-005
                    24 -7.583943096664002E-013
                    25  1.919770762638396E-004
                    26  2.950458186928350E-010
                    27 -9.950709500222793E-010
                    28 -5.655291041014156E-005
                    29 -5.453428519697673E-013
                    30  6.937175119212130E-011
                    31  4.608741275595796E-010
                    32   1.00110868692057     
                    33  8.562374207574252E-003
                    34  2.444490507630035E-003
                    35 -7.774609020950523E-003
                    36 -6.426936146887046E-010
                    37 -5.855081082196927E-009
                    38 -2.346904420167400E-003
                    39  3.360346258396285E-010
                    40  9.276735845034395E-009
                    41  8.493684117953341E-004
                    42  8.849638589396345E-011
                    43 -6.495741976601221E-008
                    44  3.213455531698762E-003
                    45  2.964519412487380E-004
                    46 -1.948843358332113E-011
                    47 -3.382535131940819E-009
                    48 -3.327147857031428E-004
                    49 -6.448530293749398E-013
                    50  1.661693530962304E-004
                    51  1.995361210452480E-010
                    52  2.309646325561217E-008
                    53  6.279594216960956E-004
                    54  4.042664012797613E-012
                    55  2.877739988944419E-004
                    56 -1.642398131511856E-010
                    57  1.086684150209468E-010
                    58 -1.393035744081405E-004
                    59  3.280689666233266E-012
                    60 -1.431950980758229E-011
                    61  1.490595718429101E-009
                    62  1.070141048304911E-002
                    63 -1.641720528736094E-003
                    64 -2.808664191376992E-004
                    65  2.749638368597401E-003
                    66 -3.584394846163478E-011
                    67  2.727045275235297E-004
                    68 -2.157646035140961E-004
                    69 -7.302300598582817E-011
                    70  5.534673063411090E-004
                    71  1.832329512234026E-004
                    72 -7.171967844522997E-013
                    73 -1.650469461634589E-003
                    74  2.276826604934236E-004
                    75 -2.856425064203267E-005
                    76  4.379933767597038E-012
                    77  2.074916459391926E-006
                    78  1.359488421065895E-005
                    79 -1.141369363318293E-012
                    80  6.620218930465532E-004
                    81 -4.726111365372438E-011
                    82 -3.024741517017922E-004
                    83 -9.277587291894006E-005
                    84 -3.223928467288010E-011
                    85  5.080123804924021E-005
                    86 -5.220924852532918E-012
                    87  7.062608393995068E-006
                    88 -1.146764386046483E-004
                    89  1.212097605882232E-013
                    90  7.623238257571128E-012
                    91  3.784337715499953E-005
                    92  1.070138513804432E-002
                    93 -1.641800850285786E-003
                    94 -2.809204400103638E-004
                    95  2.749864619307147E-003
                    96 -3.540098388197503E-011
                    97 -2.727080981470960E-004
                    98 -2.157958308397207E-004
                    99 -6.082808369585660E-011
                   100 -5.534475490907005E-004
                   101  1.834179757656030E-004
                   102 -1.962659993770957E-011
                   103  1.650627729646986E-003
                   104  2.275294889973223E-004
                   105 -2.854828131813429E-005
                   106  3.425867375916863E-012
                   107 -2.081114739995447E-006
                   108  1.359364833947715E-005
                   109  1.367642212347256E-012
                   110  6.621221368257946E-004
                   111 -4.642904984376611E-011
                   112  3.025230327456458E-004
                   113 -9.275033444031969E-005
                   114  3.932284611973097E-011
                   115  5.078303727775893E-005
                   116 -4.875583126975072E-012
                   117 -7.059772024708943E-006
                   118 -1.146744429574023E-004
                   119 -2.479052652694972E-012
                   120  6.080281646022634E-012
                   121 -3.784267942372615E-005
                   122 -1.635694474540866E-004
                   123 -7.653458537058740E-004
                   124  2.234381328011242E-004
                   125 -1.461763160520363E-004
                   126 -9.445214955744505E-011
                   127 -1.420790981778428E-005
                   128 -1.601953515298896E-004
                   129  3.472628576850615E-011
                   130 -3.837901923227814E-005
                   131  6.001281609764458E-004
                   132  8.618706232074980E-011
                   133  2.306367168001177E-004
                   134  6.496170123334329E-004
                   135 -2.537738484180297E-005
                   136  2.554968709852255E-012
                   137  3.602712563926411E-005
                   138  1.340584681520427E-005
                   139 -6.886084078696341E-012
                   140 -2.683364432276148E-004
                   141 -2.676908148581070E-011
                   142 -1.421021948253524E-004
                   143 -9.239318732863554E-006
                   144  3.826669939937744E-011
                   145 -5.151671704805935E-006
                   146  8.158132279553978E-012
                   147 -2.779695811105529E-005
                   148 -4.363938157913392E-005
                   149  4.538158425889716E-012
                   150  2.358168391405411E-012
                   151 -3.153598072025943E-006
                   152 -1.632881669155323E-004
                   153 -7.644121540747591E-004
                   154  2.235462539281271E-004
                   155 -1.473120121766516E-004
                   156 -7.850935761649561E-011
                   157  1.419458808861134E-005
                   158 -1.602036770445078E-004
                   159  2.347920619147450E-011
                   160  3.845023976949830E-005