[Molden Format]
[Atoms] AU
  N     1    7     0.0000000000    0.0000000000   -4.3896059400        
  C     2    6     0.0000000000    0.0000000000   -1.7787405200        
  C     3    6     0.0000000000   -2.3347474200   -0.3922060100        
  C     4    6     0.0000000000    2.3347474200   -0.3922060100        
  C     5    6     0.0000000000   -2.3242454000    2.1775818300        
  C     6    6     0.0000000000    2.3242454000    2.1775818300        
  C     7    6     0.0000000000    0.0000000000    3.4748475600        
  H     8    1    -1.6486042200    0.0000000000   -5.3790611100        
  H     9    1     1.6486042200    0.0000000000   -5.3790611200        
  H    10    1     0.0000000000   -4.0457988600   -1.4652898000        
  H    11    1     0.0000000000    4.0457988600   -1.4652898000        
  H    12    1     0.0000000000   -4.0519040200    3.2320081000        
  H    13    1     0.0000000000    4.0519040200    3.2320081000        
  H    14    1     0.0000000000    0.0000000000    5.5038241200        
[5D]
[7F]
[GTO]
  1  0
   s    12 1.00
  0.114200D+05  0.172695D-04
  0.171200D+04  0.134411D-03
  0.389300D+03  0.694561D-03
  0.110000D+03  0.278531D-02
  0.355700D+02  0.863457D-02
  0.125400D+02  0.199805D-01
  0.464400D+01  0.262908D-01
  0.129300D+01 -0.243845D-01
  0.511800D+00 -0.924934D-01
  0.178700D+00 -0.339683D+00
  0.246240D-01  0.345111D+00
  0.112530D-01  0.752750D+00
   s    10 1.00
  0.114200D+05  0.523000D-03
  0.171200D+04  0.404500D-02
  0.389300D+03  0.207750D-01
  0.110000D+03  0.807269D-01
  0.355700D+02  0.233074D+00
  0.125400D+02  0.433501D+00
  0.464400D+01  0.347472D+00
  0.129300D+01  0.412620D-01
  0.511800D+00 -0.850799D-02
  0.178700D+00  0.238400D-02
   s    10 1.00
  0.114200D+05 -0.115000D-03
  0.171200D+04 -0.895000D-03
  0.389300D+03 -0.462400D-02
  0.110000D+03 -0.185280D-01
  0.355700D+02 -0.573390D-01
  0.125400D+02 -0.132076D+00
  0.464400D+01 -0.172510D+00
  0.129300D+01  0.151814D+00
  0.511800D+00  0.599944D+00
  0.178700D+00  0.387462D+00
   s     1 1.00
  0.129300D+01  0.100000D+01
   s     1 1.00
  0.178700D+00  0.100000D+01
   p     5 1.00
  0.266300D+02  0.146700D-01
  0.594800D+01  0.917640D-01
  0.174200D+01  0.298683D+00
  0.555000D+00  0.498487D+00
  0.172500D+00  0.337023D+00
   p     1 1.00
  0.174200D+01  0.100000D+01
   p     1 1.00
  0.555000D+00  0.100000D+01
   d     1 1.00
  0.165400D+01  0.100000D+01
   d     1 1.00
  0.469000D+00  0.100000D+01
   f     1 1.00
  0.109300D+01  0.100000D+01
  
  2  0
   s    10 1.00
  0.823600D+04  0.531000D-03
  0.123500D+04  0.410800D-02
  0.280800D+03  0.210870D-01
  0.792700D+02  0.818530D-01
  0.255900D+02  0.234817D+00
  0.899700D+01  0.434401D+00
  0.331900D+01  0.346129D+00
  0.905900D+00  0.393780D-01
  0.364300D+00 -0.898300D-02
  0.128500D+00  0.238500D-02
   s    10 1.00
  0.823600D+04 -0.113000D-03
  0.123500D+04 -0.878000D-03
  0.280800D+03 -0.454000D-02
  0.792700D+02 -0.181330D-01
  0.255900D+02 -0.557600D-01
  0.899700D+01 -0.126895D+00
  0.331900D+01 -0.170352D+00
  0.905900D+00  0.140382D+00
  0.364300D+00  0.598684D+00
  0.128500D+00  0.395389D+00
   s     1 1.00
  0.905900D+00  0.100000D+01
   s     1 1.00
  0.364300D+00  0.100000D+01
   p     5 1.00
  0.187100D+02  0.140310D-01
  0.413300D+01  0.868660D-01
  0.120000D+01  0.290216D+00
  0.382700D+00  0.501008D+00
  0.120900D+00  0.343406D+00
   p     1 1.00
  0.382700D+00  0.100000D+01
   p     1 1.00
  0.120900D+00  0.100000D+01
   d     1 1.00
  0.109700D+01  0.100000D+01
   d     1 1.00
  0.318000D+00  0.100000D+01
   f     1 1.00
  0.761000D+00  0.100000D+01
  
  3  0
   s    10 1.00
  0.823600D+04  0.531000D-03
  0.123500D+04  0.410800D-02
  0.280800D+03  0.210870D-01
  0.792700D+02  0.818530D-01
  0.255900D+02  0.234817D+00
  0.899700D+01  0.434401D+00
  0.331900D+01  0.346129D+00
  0.905900D+00  0.393780D-01
  0.364300D+00 -0.898300D-02
  0.128500D+00  0.238500D-02
   s    10 1.00
  0.823600D+04 -0.113000D-03
  0.123500D+04 -0.878000D-03
  0.280800D+03 -0.454000D-02
  0.792700D+02 -0.181330D-01
  0.255900D+02 -0.557600D-01
  0.899700D+01 -0.126895D+00
  0.331900D+01 -0.170352D+00
  0.905900D+00  0.140382D+00
  0.364300D+00  0.598684D+00
  0.128500D+00  0.395389D+00
   s     1 1.00
  0.905900D+00  0.100000D+01
   s     1 1.00
  0.364300D+00  0.100000D+01
   p     5 1.00
  0.187100D+02  0.140310D-01
  0.413300D+01  0.868660D-01
  0.120000D+01  0.290216D+00
  0.382700D+00  0.501008D+00
  0.120900D+00  0.343406D+00
   p     1 1.00
  0.382700D+00  0.100000D+01
   p     1 1.00
  0.120900D+00  0.100000D+01
   d     1 1.00
  0.109700D+01  0.100000D+01
   d     1 1.00
  0.318000D+00  0.100000D+01
   f     1 1.00
  0.761000D+00  0.100000D+01
  
  4  0
   s    10 1.00
  0.823600D+04  0.531000D-03
  0.123500D+04  0.410800D-02
  0.280800D+03  0.210870D-01
  0.792700D+02  0.818530D-01
  0.255900D+02  0.234817D+00
  0.899700D+01  0.434401D+00
  0.331900D+01  0.346129D+00
  0.905900D+00  0.393780D-01
  0.364300D+00 -0.898300D-02
  0.128500D+00  0.238500D-02
   s    10 1.00
  0.823600D+04 -0.113000D-03
  0.123500D+04 -0.878000D-03
  0.280800D+03 -0.454000D-02
  0.792700D+02 -0.181330D-01
  0.255900D+02 -0.557600D-01
  0.899700D+01 -0.126895D+00
  0.331900D+01 -0.170352D+00
  0.905900D+00  0.140382D+00
  0.364300D+00  0.598684D+00
  0.128500D+00  0.395389D+00
   s     1 1.00
  0.905900D+00  0.100000D+01
   s     1 1.00
  0.364300D+00  0.100000D+01
   p     5 1.00
  0.187100D+02  0.140310D-01
  0.413300D+01  0.868660D-01
  0.120000D+01  0.290216D+00
  0.382700D+00  0.501008D+00
  0.120900D+00  0.343406D+00
   p     1 1.00
  0.382700D+00  0.100000D+01
   p     1 1.00
  0.120900D+00  0.100000D+01
   d     1 1.00
  0.109700D+01  0.100000D+01
   d     1 1.00
  0.318000D+00  0.100000D+01
   f     1 1.00
  0.761000D+00  0.100000D+01
  
  5  0
   s    10 1.00
  0.823600D+04  0.531000D-03
  0.123500D+04  0.410800D-02
  0.280800D+03  0.210870D-01
  0.792700D+02  0.818530D-01
  0.255900D+02  0.234817D+00
  0.899700D+01  0.434401D+00
  0.331900D+01  0.346129D+00
  0.905900D+00  0.393780D-01
  0.364300D+00 -0.898300D-02
  0.128500D+00  0.238500D-02
   s    10 1.00
  0.823600D+04 -0.113000D-03
  0.123500D+04 -0.878000D-03
  0.280800D+03 -0.454000D-02
  0.792700D+02 -0.181330D-01
  0.255900D+02 -0.557600D-01
  0.899700D+01 -0.126895D+00
  0.331900D+01 -0.170352D+00
  0.905900D+00  0.140382D+00
  0.364300D+00  0.598684D+00
  0.128500D+00  0.395389D+00
   s     1 1.00
  0.905900D+00  0.100000D+01
   s     1 1.00
  0.364300D+00  0.100000D+01
   p     5 1.00
  0.187100D+02  0.140310D-01
  0.413300D+01  0.868660D-01
  0.120000D+01  0.290216D+00
  0.382700D+00  0.501008D+00
  0.120900D+00  0.343406D+00
   p     1 1.00
  0.382700D+00  0.100000D+01
   p     1 1.00
  0.120900D+00  0.100000D+01
   d     1 1.00
  0.109700D+01  0.100000D+01
   d     1 1.00
  0.318000D+00  0.100000D+01
   f     1 1.00
  0.761000D+00  0.100000D+01
  
  6  0
   s    10 1.00
  0.823600D+04  0.531000D-03
  0.123500D+04  0.410800D-02
  0.280800D+03  0.210870D-01
  0.792700D+02  0.818530D-01
  0.255900D+02  0.234817D+00
  0.899700D+01  0.434401D+00
  0.331900D+01  0.346129D+00
  0.905900D+00  0.393780D-01
  0.364300D+00 -0.898300D-02
  0.128500D+00  0.238500D-02
   s    10 1.00
  0.823600D+04 -0.113000D-03
  0.123500D+04 -0.878000D-03
  0.280800D+03 -0.454000D-02
  0.792700D+02 -0.181330D-01
  0.255900D+02 -0.557600D-01
  0.899700D+01 -0.126895D+00
  0.331900D+01 -0.170352D+00
  0.905900D+00  0.140382D+00
  0.364300D+00  0.598684D+00
  0.128500D+00  0.395389D+00
   s     1 1.00
  0.905900D+00  0.100000D+01
   s     1 1.00
  0.364300D+00  0.100000D+01
   p     5 1.00
  0.187100D+02  0.140310D-01
  0.413300D+01  0.868660D-01
  0.120000D+01  0.290216D+00
  0.382700D+00  0.501008D+00
  0.120900D+00  0.343406D+00
   p     1 1.00
  0.382700D+00  0.100000D+01
   p     1 1.00
  0.120900D+00  0.100000D+01
   d     1 1.00
  0.109700D+01  0.100000D+01
   d     1 1.00
  0.318000D+00  0.100000D+01
   f     1 1.00
  0.761000D+00  0.100000D+01
  
  7  0
   s    10 1.00
  0.823600D+04  0.531000D-03
  0.123500D+04  0.410800D-02
  0.280800D+03  0.210870D-01
  0.792700D+02  0.818530D-01
  0.255900D+02  0.234817D+00
  0.899700D+01  0.434401D+00
  0.331900D+01  0.346129D+00
  0.905900D+00  0.393780D-01
  0.364300D+00 -0.898300D-02
  0.128500D+00  0.238500D-02
   s    10 1.00
  0.823600D+04 -0.113000D-03
  0.123500D+04 -0.878000D-03
  0.280800D+03 -0.454000D-02
  0.792700D+02 -0.181330D-01
  0.255900D+02 -0.557600D-01
  0.899700D+01 -0.126895D+00
  0.331900D+01 -0.170352D+00
  0.905900D+00  0.140382D+00
  0.364300D+00  0.598684D+00
  0.128500D+00  0.395389D+00
   s     1 1.00
  0.905900D+00  0.100000D+01
   s     1 1.00
  0.364300D+00  0.100000D+01
   p     5 1.00
  0.187100D+02  0.140310D-01
  0.413300D+01  0.868660D-01
  0.120000D+01  0.290216D+00
  0.382700D+00  0.501008D+00
  0.120900D+00  0.343406D+00
   p     1 1.00
  0.382700D+00  0.100000D+01
   p     1 1.00
  0.120900D+00  0.100000D+01
   d     1 1.00
  0.109700D+01  0.100000D+01
   d     1 1.00
  0.318000D+00  0.100000D+01
   f     1 1.00
  0.761000D+00  0.100000D+01
  
  8  0
   s     4 1.00
  0.130100D+02  0.196850D-01
  0.196200D+01  0.137977D+00
  0.444600D+00  0.478148D+00
  0.122000D+00  0.501240D+00
   s     1 1.00
  0.122000D+00  0.100000D+01
   p     1 1.00
  0.727000D+00  0.100000D+01
  
  9  0
   s     4 1.00
  0.130100D+02  0.196850D-01
  0.196200D+01  0.137977D+00
  0.444600D+00  0.478148D+00
  0.122000D+00  0.501240D+00
   s     1 1.00
  0.122000D+00  0.100000D+01
   p     1 1.00
  0.727000D+00  0.100000D+01
  
 10  0
   s     4 1.00
  0.130100D+02  0.196850D-01
  0.196200D+01  0.137977D+00
  0.444600D+00  0.478148D+00
  0.122000D+00  0.501240D+00
   s     1 1.00
  0.122000D+00  0.100000D+01
   p     1 1.00
  0.727000D+00  0.100000D+01
  
 11  0
   s     4 1.00
  0.130100D+02  0.196850D-01
  0.196200D+01  0.137977D+00
  0.444600D+00  0.478148D+00
  0.122000D+00  0.501240D+00
   s     1 1.00
  0.122000D+00  0.100000D+01
   p     1 1.00
  0.727000D+00  0.100000D+01
  
 12  0
   s     4 1.00
  0.130100D+02  0.196850D-01
  0.196200D+01  0.137977D+00
  0.444600D+00  0.478148D+00
  0.122000D+00  0.501240D+00
   s     1 1.00
  0.122000D+00  0.100000D+01
   p     1 1.00
  0.727000D+00  0.100000D+01
  
 13  0
   s     4 1.00
  0.130100D+02  0.196850D-01
  0.196200D+01  0.137977D+00
  0.444600D+00  0.478148D+00
  0.122000D+00  0.501240D+00
   s     1 1.00
  0.122000D+00  0.100000D+01
   p     1 1.00
  0.727000D+00  0.100000D+01
  
 14  0
   s     4 1.00
  0.130100D+02  0.196850D-01
  0.196200D+01  0.137977D+00
  0.444600D+00  0.478148D+00
  0.122000D+00  0.501240D+00
   s     1 1.00
  0.122000D+00  0.100000D+01
   p     1 1.00
  0.727000D+00  0.100000D+01
  
[MO]
 Sym= __1_A__
 Ene=   1.00000000000000     
 Spin= Alpha
 Occup=    1.00000000000000     
                     1  1.267950756305123E-004
                     2  0.997335724106970     
                     3  1.782438464537587E-002
                     4  2.259732913053669E-003
                     5  9.152764806450873E-005
                     6  1.958924024704412E-009
                     7 -2.325702174400882E-008
                     8  3.173029720194382E-003
                     9 -2.782260480659053E-010
                    10  1.953744936079299E-008
                    11 -4.328007828475751E-004
                    12 -5.172685210505972E-009
                    13 -5.098913216798054E-008
                    14 -5.395871206971313E-004
                    15  1.625634584125936E-004
                    16  1.748612938798156E-010
                    17  1.078500968762543E-009
                    18  1.519004827086468E-004
                    19 -1.510866464776031E-012
                    20  1.775050048658994E-004
                    21  1.240144448626524E-009
                    22 -4.027116359232288E-008
                    23 -6.293822485845126E-004
                    24  1.539568134305637E-011
                    25 -2.416864986345777E-004
                    26 -1.012124831150670E-009
                    27 -1.062909916082561E-008
                    28 -9.492517870314069E-005
                    29  4.899899083218275E-012
                    30  2.793471093551715E-010
                    31 -4.269811887325183E-010
                    32 -2.761619538724081E-004
                    33  3.628118770069106E-003
                    34  1.804054717980435E-004
                    35 -7.790901249748006E-004
                    36 -4.160399288189995E-009
                    37  3.255310710717211E-008
                    38 -8.178162719793014E-003
                    39  4.648077451842467E-009
                    40 -1.196702309523832E-007
                    41  1.956161214936430E-004
                    42  6.228603110861426E-009
                    43 -7.741873322180694E-008
                    44  4.011785800710424E-003
                    45  4.213177075157886E-004
                    46 -2.056462430922679E-010
                    47  1.279133535037938E-008
                    48  1.010234040515229E-004
                    49  5.361788824581247E-012
                    50  7.323577656361744E-004
                    51  1.579526501414768E-009
                    52 -2.356557866571675E-007
                    53  1.200221515737752E-004
                    54 -1.154268304230289E-010
                    55 -7.018515948343356E-005
                    56  5.401776065104638E-010
                    57  5.138039828348206E-009
                    58  6.488040781612670E-006
                    59 -2.330265074921166E-011
                    60  5.207039487801975E-010
                    61  7.272283268522777E-010
                    62 -2.248810464855007E-004
                    63 -2.027550515158014E-003
                    64  2.146182568312481E-005
                    65  8.747069523328278E-004
                    66 -1.055919489802699E-009
                    67 -1.027893976796187E-003
                    68  1.461979697431288E-003
                    69  9.999134296918389E-010
                    70  7.073500150809854E-005
                    71  1.082738708251300E-004
                    72 -2.955220514857382E-009
                    73 -7.102747870267108E-004
                    74 -3.306421409429370E-004
                    75  1.067372061985543E-004
                    76 -7.930579875549117E-011
                    77 -8.014110677770798E-006
                    78  4.384963259145154E-005
                    79  2.495441142025988E-010
                    80  5.591428584337992E-005
                    81  1.320702329008709E-009
                    82 -1.360343880467564E-005
                    83  5.221691421839296E-005
                    84 -2.228588700830303E-009
                    85 -6.572894017432638E-005
                    86  2.289153378767902E-010
                    87  8.353578359466591E-006
                    88  1.737633619317278E-005
                    89  2.707440518625341E-010
                    90 -3.844279067059677E-010
                    91  3.449391472667463E-005
                    92 -2.248394665893031E-004
                    93 -2.027375945820632E-003
                    94  2.171107453402293E-005
                    95  8.738654759143085E-004
                    96 -1.069178530733321E-009
                    97  1.027938001761801E-003
                    98  1.462152766036307E-003
                    99  1.053631197132075E-009
                   100 -7.099566427607950E-005
                   101  1.072262739958245E-004
                   102 -2.903695691341455E-009
                   103  7.094209506751694E-004
                   104 -3.306466282690196E-004
                   105  1.066848528673432E-004
                   106 -7.379410606424025E-011
                   107  8.036146004345804E-006
                   108  4.385357022945452E-005
                   109 -2.255073918113766E-010
                   110  5.524345885295654E-005
                   111  1.227116376282938E-009
                   112  1.348276783543374E-005
                   113  5.206021805278070E-005
                   114  2.035934486817526E-009
                   115 -6.563251958434064E-005
                   116  2.256012098614413E-010
                   117 -8.371467831523136E-006
                   118  1.737540058710372E-005
                   119 -2.460888356843707E-010
                   120 -3.697018028116454E-010
                   121 -3.449313233138065E-005
                   122 -1.806075806606424E-004
                   123  2.449650253203243E-005
                   124  7.837420775395338E-005
                   125  3.115716532980309E-004
                   126 -1.309976823936418E-010
                   127  7.959821920078668E-005
                   128 -9.659271936892817E-004
                   129 -4.140506901522808E-010
                   130  4.646068548729380E-006
                   131  1.765330021620916E-004
                   132  1.186848600819016E-009
                   133  6.264315484004594E-005
                   134  5.932982166193907E-004
                   135  6.581067721067166E-006
                   136  2.261744027957455E-011
                   137  1.219839817562633E-005
                   138 -2.179832606472024E-007
                   139 -7.706732751228214E-011
                   140 -1.325561813853776E-004
                   141  7.111376172630512E-010
                   142  7.263675719802730E-005
                   143  2.966356816133832E-005
                   144  6.571249903288660E-010
                   145 -2.169561966408639E-005
                   146 -2.381699203311028E-010
                   147 -1.106337925717857E-005
                   148 -7.398802185127276E-006
                   149 -5.935554381697347E-011
                   150  6.249845065489282E-011
                   151 -2.991531247489194E-006
                   152 -1.812826607591858E-004
                   153  2.211045056273041E-005
                   154  7.774548142826509E-005
                   155  3.156403101190827E-004
                   156 -1.184008151496587E-010
                   157 -7.959361184990090E-005
                   158 -9.658369323954048E-004
                   159 -4.234180114743316E-010
                   160 -4.841767221461750E-006
                   161  1.757889296078048E-004
                   162  1.182186678328946E-009
                   163 -6.178388546456933E-005
                   164  5.932559762958764E-004
                   165  6.660808474942836E-006
                   166  2.358919757299856E-011
                   167 -1.219738002436466E-005
                   168 -2.783058765707352E-007
                   169  6.949959321907171E-011
                   170 -1.322604954092822E-004
                   171  6.566874243729383E-010
                   172 -7.286575407926385E-005
                   173  2.966700800551016E-005
                   174 -5.767146597492677E-010
                   175 -2.157138822276572E-005
                   176 -2.318872803694720E-010
                   177  1.109090413066708E-005
                   178 -7.457579847583488E-006
                   179  5.841427197552559E-011
                   180  5.634811557088609E-011
                   181  2.992844648275152E-006
                   182 -1.579077910885586E-004
                   183 -4.200782986833698E-004
                   184  2.102667801345541E-005
                   185  3.227866088548934E-004
                   186  2.673074903894348E-012
                   187  6.487739743597335E-008
                   188 -7.029075959294931E-005
                   189 -5.117236545410303E-010
                   190 -3.526666223443996E-007
                   191  2.962608769397252E-005
                   192 -9.638864511688128E-010
                   193  1.327202604335559E-007
                   194 -1.388442965918505E-004
                   195  1.947281751768210E-005
                   196  2.320051657650625E-011
                   197  2.369233844646555E-008
                   198  7.327865184051400E-006
                   199 -1.795291839321608E-012
                   200  2.823987233235744E-005
                   201  1.727393691168189E-010
                   202  1.712094558720188E-007
                   203 -6.091437477050568E-006
                   204  4.198933069442477E-011
                   205 -1.500201960650511E-005
                   206 -1.150518946030165E-011
                   207 -1.074600458962639E-008
                   208  5.882085314449036E-006
                   209 -6.970353910193775E-012
                   210 -6.936969400936631E-011
                   211  2.459466539563416E-008
                   212  8.429662941522675E-003
                   213 -4.386068452688374E-003
                   214  8.083291625283300E-004
                   215 -2.669931371738999E-009
                   216  5.303632731901976E-004
                   217  8.429669079260689E-003
                   218 -4.386074937834153E-003
                   219 -8.083327034946382E-004
                   220 -2.678600541191728E-009
                   221  5.303640333100863E-004
                   222 -7.660047968550191E-004
                   223 -2.023027260024920E-004
                   224 -2.106961121972806E-010
                   225 -4.340434034926352E-005
                   226 -5.391278165230560E-005
                   227 -7.661061879555391E-004
                   228 -2.018268964349170E-004
                   229 -1.858020761515489E-010
                   230  4.337254279260846E-005
                   231 -5.395778532631399E-005
                   232 -3.374294705675269E-004
                   233 -1.876803836243000E-004
                   234  2.488517951286179E-011
                   235 -2.014803164006976E-005
                   236 -2.663706708018231E-006
                   237 -3.375594539607812E-004
                   238 -1.878340803310869E-004
                   239  1.794542001345630E-011
                   240  2.023296295611878E-005
                   241 -2.605234417994378E-006
                   242  9.723060677208061E-005
                   243  3.613940182240964E-005
                   244  4.136747699608265E-011
                   245 -1.803771212964850E-008
                   246  2.239643379426180E-005
 Sym= __2_A__
 Ene=   2.00000000000000     
 Spin= Alpha
 Occup=    1.00000000000000     
                     1  2.257429387736040E-006
                     2 -7.455691672725316E-005
                     3  1.605176315662127E-003
                     4  5.720188631077791E-005
                     5  1.120924809438061E-003
                     6  1.573339248785856E-010
                     7  8.986962296130359E-009
                     8  1.549674864620623E-003
                     9  1.099747693459792E-010
                    10 -4.968282439265381E-009
                    11 -9.273082706425848E-005
                    12 -2.344793996611375E-010
                    13  4.073004378122488E-009
                    14 -7.993630103658579E-006
                    15  4.089923193140528E-005
                    16 -2.236679595123325E-011
                    17  4.589214715244327E-010
                    18  5.525217834128110E-007
                    19  7.580392526456333E-013
                    20 -1.236159376201592E-004
                    21  4.187023213912451E-010
                    22  2.522683126525666E-009
                    23  3.100809644067634E-005
                    24 -7.136273436271430E-013
                    25  1.919770761986108E-004
                    26  2.949474284705194E-010
                    27 -9.950524660856447E-010
                    28 -5.655291030842680E-005
                    29 -5.721642303172836E-013
                    30  6.942951656062376E-011
                    31  4.608308645475946E-010
                    32   1.00110868686725     
                    33  8.562374219379503E-003
                    34  2.444490508858691E-003
                    35 -7.774609009057073E-003
                    36 -6.575066161449851E-010
                    37 -5.848782974203449E-009
                    38 -2.346904402452874E-003
                    39  3.423836310241737E-010
                    40  9.267998066578186E-009
                    41  8.493684088950271E-004
                    42  9.188734567620935E-011
                    43 -6.496025879140671E-008
                    44  3.213455527251877E-003
                    45  2.964519413574098E-004
                    46 -1.793466205069952E-011
                    47 -3.382315407552322E-009
                    48 -3.327147859678182E-004
                    49 -3.662054222168720E-013
                    50  1.661693519296448E-004
                    51  2.000357209546131E-010
                    52  2.309330892076162E-008
                    53  6.279594183276966E-004
                    54  3.639937184411143E-012
                    55  2.877739988971778E-004
                    56 -1.640016682804315E-010
                    57  1.085871862003232E-010
                    58 -1.393035742083151E-004
                    59  3.370674877666425E-012
                    60 -1.421617910492472E-011
                    61  1.490834785338756E-009
                    62  1.070141259550024E-002
                    63 -1.641720505716550E-003
                    64 -2.808664119811987E-004
                    65  2.749638348309943E-003
                    66 -4.118362548570330E-011
                    67  2.727045398488523E-004
                    68 -2.157646086809614E-004
                    69 -7.481346484646900E-011
                    70  5.534673014579364E-004
                    71  1.832329529359165E-004
                    72 -5.806578798238956E-012
                    73 -1.650469465355264E-003
                    74  2.276826627388762E-004
                    75 -2.856425006809605E-005
                    76  3.864405834711199E-012
                    77  2.074916129777922E-006
                    78  1.359488344323233E-005
                    79 -1.402874316008578E-012
                    80  6.620218916832272E-004
                    81 -4.803765209674547E-011
                    82 -3.024741489753895E-004
                    83 -9.277587274046259E-005
                    84 -3.330177014222276E-011
                    85  5.080123740907673E-005
                    86 -5.001205120310506E-012
                    87  7.062608179389055E-006
                    88 -1.146764381195406E-004
                    89  8.608341756910122E-013
                    90  7.992620349790210E-012
                    91  3.784337725519281E-005
                    92  1.070138728356661E-002
                    93 -1.641800826792352E-003
                    94 -2.809204336848850E-004
                    95  2.749864603259307E-003
                    96 -4.571836047802933E-011
                    97 -2.727081090922893E-004
                    98 -2.157958354354987E-004
                    99 -6.044744055528423E-011
                   100 -5.534475500499995E-004
                   101  1.834179730624111E-004
                   102 -1.515783077906139E-011
                   103  1.650627730741910E-003
                   104  2.275294913414218E-004
                   105 -2.854828070047111E-005
                   106  3.957119664866046E-012
                   107 -2.081114167821897E-006
                   108  1.359364720901722E-005
                   109  1.758571538146853E-012
                   110  6.621221334739749E-004
                   111 -4.540485384590187E-011
                   112  3.025230312057428E-004
                   113 -9.275033538200327E-005
                   114  3.997232871181626E-011
                   115  5.078303681253762E-005
                   116 -5.442936348986185E-012
                   117 -7.059772028965394E-006
                   118 -1.146744424604583E-004
                   119 -2.229242199393303E-012
                   120  5.167749006880537E-012
                   121 -3.784267953114679E-005
                   122 -1.635693778430366E-004
                   123 -7.653458597146231E-004
                   124  2.234381324521108E-004
                   125 -1.461763087509289E-004
                   126 -1.058859732538470E-010
                   127 -1.420791111128948E-005
                   128 -1.601953502376535E-004
                   129  3.221060830045053E-011
                   130 -3.837901854130459E-005
                   131  6.001281605766362E-004
                   132  9.620695900085806E-011
                   133  2.306367154668421E-004
                   134  6.496170166043078E-004
                   135 -2.537738495333755E-005
                   136  2.717287027748917E-012
                   137  3.602712539314703E-005
                   138  1.340584687021715E-005
                   139 -7.109355335465024E-012
                   140 -2.683364429419143E-004
                   141 -2.792835906463561E-011
                   142 -1.421021934812408E-004
                   143 -9.239319568788780E-006
                   144  3.877524043916025E-011
                   145 -5.151672026270188E-006
                   146  7.986485060325949E-012
                   147 -2.779695789608043E-005
                   148 -4.363938173430858E-005
                   149  5.276294047149213E-012
                   150  1.890768334413334E-012
                   151 -3.153598123226772E-006
                   152 -1.632880996754674E-004
                   153 -7.644121603465519E-004
                   154  2.235462531376456E-004
                   155 -1.473120026607388E-004
                   156 -8.405894662368423E-011
                   157  1.419458877118945E-005
                   158 -1.602036756119651E-004
                   159  2.601734376220459E-011
                   160  3.845023963879500E-005