[Molden Format]
[Atoms] AU
  N     1    7     0.0000000000    0.0000000000   -4.3896059400        
  C     2    6     0.0000000000    0.0000000000   -1.7787405200        
  C     3    6     0.0000000000   -2.3347474200   -0.3922060100        
  C     4    6     0.0000000000    2.3347474200   -0.3922060100        
  C     5    6     0.0000000000   -2.3242454000    2.1775818300        
  C     6    6     0.0000000000    2.3242454000    2.1775818300        
  C     7    6     0.0000000000    0.0000000000    3.4748475600        
  H     8    1    -1.6486042200    0.0000000000   -5.3790611100        
  H     9    1     1.6486042200    0.0000000000   -5.3790611200        
  H    10    1     0.0000000000   -4.0457988600   -1.4652898000        
  H    11    1     0.0000000000    4.0457988600   -1.4652898000        
  H    12    1     0.0000000000   -4.0519040200    3.2320081000        
  H    13    1     0.0000000000    4.0519040200    3.2320081000        
  H    14    1     0.0000000000    0.0000000000    5.5038241200        
[5D]
[7F]
[GTO]
  1  0
   s    12 1.00
  0.114200D+05  0.172695D-04
  0.171200D+04  0.134411D-03
  0.389300D+03  0.694561D-03
  0.110000D+03  0.278531D-02
  0.355700D+02  0.863457D-02
  0.125400D+02  0.199805D-01
  0.464400D+01  0.262908D-01
  0.129300D+01 -0.243845D-01
  0.511800D+00 -0.924934D-01
  0.178700D+00 -0.339683D+00
  0.246240D-01  0.345111D+00
  0.112530D-01  0.752750D+00
   s    10 1.00
  0.114200D+05  0.523000D-03
  0.171200D+04  0.404500D-02
  0.389300D+03  0.207750D-01
  0.110000D+03  0.807269D-01
  0.355700D+02  0.233074D+00
  0.125400D+02  0.433501D+00
  0.464400D+01  0.347472D+00
  0.129300D+01  0.412620D-01
  0.511800D+00 -0.850799D-02
  0.178700D+00  0.238400D-02
   s    10 1.00
  0.114200D+05 -0.115000D-03
  0.171200D+04 -0.895000D-03
  0.389300D+03 -0.462400D-02
  0.110000D+03 -0.185280D-01
  0.355700D+02 -0.573390D-01
  0.125400D+02 -0.132076D+00
  0.464400D+01 -0.172510D+00
  0.129300D+01  0.151814D+00
  0.511800D+00  0.599944D+00
  0.178700D+00  0.387462D+00
   s     1 1.00
  0.129300D+01  0.100000D+01
   s     1 1.00
  0.178700D+00  0.100000D+01
   p     5 1.00
  0.266300D+02  0.146700D-01
  0.594800D+01  0.917640D-01
  0.174200D+01  0.298683D+00
  0.555000D+00  0.498487D+00
  0.172500D+00  0.337023D+00
   p     1 1.00
  0.174200D+01  0.100000D+01
   p     1 1.00
  0.555000D+00  0.100000D+01
   d     1 1.00
  0.165400D+01  0.100000D+01
   d     1 1.00
  0.469000D+00  0.100000D+01
   f     1 1.00
  0.109300D+01  0.100000D+01
  
  2  0
   s    10 1.00
  0.823600D+04  0.531000D-03
  0.123500D+04  0.410800D-02
  0.280800D+03  0.210870D-01
  0.792700D+02  0.818530D-01
  0.255900D+02  0.234817D+00
  0.899700D+01  0.434401D+00
  0.331900D+01  0.346129D+00
  0.905900D+00  0.393780D-01
  0.364300D+00 -0.898300D-02
  0.128500D+00  0.238500D-02
   s    10 1.00
  0.823600D+04 -0.113000D-03
  0.123500D+04 -0.878000D-03
  0.280800D+03 -0.454000D-02
  0.792700D+02 -0.181330D-01
  0.255900D+02 -0.557600D-01
  0.899700D+01 -0.126895D+00
  0.331900D+01 -0.170352D+00
  0.905900D+00  0.140382D+00
  0.364300D+00  0.598684D+00
  0.128500D+00  0.395389D+00
   s     1 1.00
  0.905900D+00  0.100000D+01
   s     1 1.00
  0.364300D+00  0.100000D+01
   p     5 1.00
  0.187100D+02  0.140310D-01
  0.413300D+01  0.868660D-01
  0.120000D+01  0.290216D+00
  0.382700D+00  0.501008D+00
  0.120900D+00  0.343406D+00
   p     1 1.00
  0.382700D+00  0.100000D+01
   p     1 1.00
  0.120900D+00  0.100000D+01
   d     1 1.00
  0.109700D+01  0.100000D+01
   d     1 1.00
  0.318000D+00  0.100000D+01
   f     1 1.00
  0.761000D+00  0.100000D+01
  
  3  0
   s    10 1.00
  0.823600D+04  0.531000D-03
  0.123500D+04  0.410800D-02
  0.280800D+03  0.210870D-01
  0.792700D+02  0.818530D-01
  0.255900D+02  0.234817D+00
  0.899700D+01  0.434401D+00
  0.331900D+01  0.346129D+00
  0.905900D+00  0.393780D-01
  0.364300D+00 -0.898300D-02
  0.128500D+00  0.238500D-02
   s    10 1.00
  0.823600D+04 -0.113000D-03
  0.123500D+04 -0.878000D-03
  0.280800D+03 -0.454000D-02
  0.792700D+02 -0.181330D-01
  0.255900D+02 -0.557600D-01
  0.899700D+01 -0.126895D+00
  0.331900D+01 -0.170352D+00
  0.905900D+00  0.140382D+00
  0.364300D+00  0.598684D+00
  0.128500D+00  0.395389D+00
   s     1 1.00
  0.905900D+00  0.100000D+01
   s     1 1.00
  0.364300D+00  0.100000D+01
   p     5 1.00
  0.187100D+02  0.140310D-01
  0.413300D+01  0.868660D-01
  0.120000D+01  0.290216D+00
  0.382700D+00  0.501008D+00
  0.120900D+00  0.343406D+00
   p     1 1.00
  0.382700D+00  0.100000D+01
   p     1 1.00
  0.120900D+00  0.100000D+01
   d     1 1.00
  0.109700D+01  0.100000D+01
   d     1 1.00
  0.318000D+00  0.100000D+01
   f     1 1.00
  0.761000D+00  0.100000D+01
  
  4  0
   s    10 1.00
  0.823600D+04  0.531000D-03
  0.123500D+04  0.410800D-02
  0.280800D+03  0.210870D-01
  0.792700D+02  0.818530D-01
  0.255900D+02  0.234817D+00
  0.899700D+01  0.434401D+00
  0.331900D+01  0.346129D+00
  0.905900D+00  0.393780D-01
  0.364300D+00 -0.898300D-02
  0.128500D+00  0.238500D-02
   s    10 1.00
  0.823600D+04 -0.113000D-03
  0.123500D+04 -0.878000D-03
  0.280800D+03 -0.454000D-02
  0.792700D+02 -0.181330D-01
  0.255900D+02 -0.557600D-01
  0.899700D+01 -0.126895D+00
  0.331900D+01 -0.170352D+00
  0.905900D+00  0.140382D+00
  0.364300D+00  0.598684D+00
  0.128500D+00  0.395389D+00
   s     1 1.00
  0.905900D+00  0.100000D+01
   s     1 1.00
  0.364300D+00  0.100000D+01
   p     5 1.00
  0.187100D+02  0.140310D-01
  0.413300D+01  0.868660D-01
  0.120000D+01  0.290216D+00
  0.382700D+00  0.501008D+00
  0.120900D+00  0.343406D+00
   p     1 1.00
  0.382700D+00  0.100000D+01
   p     1 1.00
  0.120900D+00  0.100000D+01
   d     1 1.00
  0.109700D+01  0.100000D+01
   d     1 1.00
  0.318000D+00  0.100000D+01
   f     1 1.00
  0.761000D+00  0.100000D+01
  
  5  0
   s    10 1.00
  0.823600D+04  0.531000D-03
  0.123500D+04  0.410800D-02
  0.280800D+03  0.210870D-01
  0.792700D+02  0.818530D-01
  0.255900D+02  0.234817D+00
  0.899700D+01  0.434401D+00
  0.331900D+01  0.346129D+00
  0.905900D+00  0.393780D-01
  0.364300D+00 -0.898300D-02
  0.128500D+00  0.238500D-02
   s    10 1.00
  0.823600D+04 -0.113000D-03
  0.123500D+04 -0.878000D-03
  0.280800D+03 -0.454000D-02
  0.792700D+02 -0.181330D-01
  0.255900D+02 -0.557600D-01
  0.899700D+01 -0.126895D+00
  0.331900D+01 -0.170352D+00
  0.905900D+00  0.140382D+00
  0.364300D+00  0.598684D+00
  0.128500D+00  0.395389D+00
   s     1 1.00
  0.905900D+00  0.100000D+01
   s     1 1.00
  0.364300D+00  0.100000D+01
   p     5 1.00
  0.187100D+02  0.140310D-01
  0.413300D+01  0.868660D-01
  0.120000D+01  0.290216D+00
  0.382700D+00  0.501008D+00
  0.120900D+00  0.343406D+00
   p     1 1.00
  0.382700D+00  0.100000D+01
   p     1 1.00
  0.120900D+00  0.100000D+01
   d     1 1.00
  0.109700D+01  0.100000D+01
   d     1 1.00
  0.318000D+00  0.100000D+01
   f     1 1.00
  0.761000D+00  0.100000D+01
  
  6  0
   s    10 1.00
  0.823600D+04  0.531000D-03
  0.123500D+04  0.410800D-02
  0.280800D+03  0.210870D-01
  0.792700D+02  0.818530D-01
  0.255900D+02  0.234817D+00
  0.899700D+01  0.434401D+00
  0.331900D+01  0.346129D+00
  0.905900D+00  0.393780D-01
  0.364300D+00 -0.898300D-02
  0.128500D+00  0.238500D-02
   s    10 1.00
  0.823600D+04 -0.113000D-03
  0.123500D+04 -0.878000D-03
  0.280800D+03 -0.454000D-02
  0.792700D+02 -0.181330D-01
  0.255900D+02 -0.557600D-01
  0.899700D+01 -0.126895D+00
  0.331900D+01 -0.170352D+00
  0.905900D+00  0.140382D+00
  0.364300D+00  0.598684D+00
  0.128500D+00  0.395389D+00
   s     1 1.00
  0.905900D+00  0.100000D+01
   s     1 1.00
  0.364300D+00  0.100000D+01
   p     5 1.00
  0.187100D+02  0.140310D-01
  0.413300D+01  0.868660D-01
  0.120000D+01  0.290216D+00
  0.382700D+00  0.501008D+00
  0.120900D+00  0.343406D+00
   p     1 1.00
  0.382700D+00  0.100000D+01
   p     1 1.00
  0.120900D+00  0.100000D+01
   d     1 1.00
  0.109700D+01  0.100000D+01
   d     1 1.00
  0.318000D+00  0.100000D+01
   f     1 1.00
  0.761000D+00  0.100000D+01
  
  7  0
   s    10 1.00
  0.823600D+04  0.531000D-03
  0.123500D+04  0.410800D-02
  0.280800D+03  0.210870D-01
  0.792700D+02  0.818530D-01
  0.255900D+02  0.234817D+00
  0.899700D+01  0.434401D+00
  0.331900D+01  0.346129D+00
  0.905900D+00  0.393780D-01
  0.364300D+00 -0.898300D-02
  0.128500D+00  0.238500D-02
   s    10 1.00
  0.823600D+04 -0.113000D-03
  0.123500D+04 -0.878000D-03
  0.280800D+03 -0.454000D-02
  0.792700D+02 -0.181330D-01
  0.255900D+02 -0.557600D-01
  0.899700D+01 -0.126895D+00
  0.331900D+01 -0.170352D+00
  0.905900D+00  0.140382D+00
  0.364300D+00  0.598684D+00
  0.128500D+00  0.395389D+00
   s     1 1.00
  0.905900D+00  0.100000D+01
   s     1 1.00
  0.364300D+00  0.100000D+01
   p     5 1.00
  0.187100D+02  0.140310D-01
  0.413300D+01  0.868660D-01
  0.120000D+01  0.290216D+00
  0.382700D+00  0.501008D+00
  0.120900D+00  0.343406D+00
   p     1 1.00
  0.382700D+00  0.100000D+01
   p     1 1.00
  0.120900D+00  0.100000D+01
   d     1 1.00
  0.109700D+01  0.100000D+01
   d     1 1.00
  0.318000D+00  0.100000D+01
   f     1 1.00
  0.761000D+00  0.100000D+01
  
  8  0
   s     4 1.00
  0.130100D+02  0.196850D-01
  0.196200D+01  0.137977D+00
  0.444600D+00  0.478148D+00
  0.122000D+00  0.501240D+00
   s     1 1.00
  0.122000D+00  0.100000D+01
   p     1 1.00
  0.727000D+00  0.100000D+01
  
  9  0
   s     4 1.00
  0.130100D+02  0.196850D-01
  0.196200D+01  0.137977D+00
  0.444600D+00  0.478148D+00
  0.122000D+00  0.501240D+00
   s     1 1.00
  0.122000D+00  0.100000D+01
   p     1 1.00
  0.727000D+00  0.100000D+01
  
 10  0
   s     4 1.00
  0.130100D+02  0.196850D-01
  0.196200D+01  0.137977D+00
  0.444600D+00  0.478148D+00
  0.122000D+00  0.501240D+00
   s     1 1.00
  0.122000D+00  0.100000D+01
   p     1 1.00
  0.727000D+00  0.100000D+01
  
 11  0
   s     4 1.00
  0.130100D+02  0.196850D-01
  0.196200D+01  0.137977D+00
  0.444600D+00  0.478148D+00
  0.122000D+00  0.501240D+00
   s     1 1.00
  0.122000D+00  0.100000D+01
   p     1 1.00
  0.727000D+00  0.100000D+01
  
 12  0
   s     4 1.00
  0.130100D+02  0.196850D-01
  0.196200D+01  0.137977D+00
  0.444600D+00  0.478148D+00
  0.122000D+00  0.501240D+00
   s     1 1.00
  0.122000D+00  0.100000D+01
   p     1 1.00
  0.727000D+00  0.100000D+01
  
 13  0
   s     4 1.00
  0.130100D+02  0.196850D-01
  0.196200D+01  0.137977D+00
  0.444600D+00  0.478148D+00
  0.122000D+00  0.501240D+00
   s     1 1.00
  0.122000D+00  0.100000D+01
   p     1 1.00
  0.727000D+00  0.100000D+01
  
 14  0
   s     4 1.00
  0.130100D+02  0.196850D-01
  0.196200D+01  0.137977D+00
  0.444600D+00  0.478148D+00
  0.122000D+00  0.501240D+00
   s     1 1.00
  0.122000D+00  0.100000D+01
   p     1 1.00
  0.727000D+00  0.100000D+01
  
[MO]
 Sym= __1_a__
 Ene=  0.000000000000000E+000
 Spin= Alpha
 Occup=    2.00000000000000     
                     1  1.267950755570540E-004
                     2  0.997335724114505     
                     3  1.782438450060140E-002
                     4  2.259732915320950E-003
                     5  9.152764623127060E-005
                     6  1.952548290457390E-009
                     7 -2.337460436895090E-008
                     8  3.173029612135570E-003
                     9 -2.792972831024600E-010
                    10  1.954054505258180E-008
                    11 -4.328007731868440E-004
                    12 -5.175838417530130E-009
                    13 -5.098573322146280E-008
                    14 -5.395871087979730E-004
                    15  1.625634565961028E-004
                    16  1.751835030066330E-010
                    17  1.077731975082860E-009
                    18  1.519004824825536E-004
                    19 -1.667922320074820E-012
                    20  1.775049969783432E-004
                    21  1.239593110386430E-009
                    22 -4.027003922203480E-008
                    23 -6.293822471902540E-004
                    24  1.413526945524050E-011
                    25 -2.416864959268222E-004
                    26 -1.012148351292598E-009
                    27 -1.062975629526737E-008
                    28 -9.492517876242060E-005
                    29  4.918205889052500E-012
                    30  2.792569169437919E-010
                    31 -4.277215499379037E-010
                    32 -2.761618949236580E-004
                    33  3.628118734449640E-003
                    34  1.804054687997750E-004
                    35 -7.790901222213710E-004
                    36 -4.184416493740530E-009
                    37  3.255102371639220E-008
                    38 -8.178162601884481E-003
                    39  4.647230980597950E-009
                    40 -1.196671269276180E-007
                    41  1.956161033871130E-004
                    42  6.233527893413150E-009
                    43 -7.744276572032650E-008
                    44  4.011785741042860E-003
                    45  4.213177039016938E-004
                    46 -2.061156138815240E-010
                    47  1.279388461834500E-008
                    48  1.010234029626936E-004
                    49  4.569386721830300E-012
                    50  7.323577663037583E-004
                    51  1.579951886486160E-009
                    52 -2.356487970217940E-007
                    53  1.200221537023840E-004
                    54 -1.161754608466420E-010
                    55 -7.018516028038206E-005
                    56  5.399939357078360E-010
                    57  5.137128475208800E-009
                    58  6.488041109954580E-006
                    59 -2.410722217776450E-011
                    60  5.200557328118992E-010
                    61  7.272713956226728E-010
                    62 -2.248810441002370E-004
                    63 -2.027550499215420E-003
                    64  2.146182409952340E-005
                    65  8.747069496991090E-004
                    66 -1.083571655010110E-009
                    67 -1.027893961224160E-003
                    68  1.461979690720830E-003
                    69  1.000280280193670E-009
                    70  7.073500250104410E-005
                    71  1.082738688361300E-004
                    72 -2.961263336399980E-009
                    73 -7.102747777569870E-004
                    74 -3.306421222060320E-004
                    75  1.067372055277315E-004
                    76 -8.040424411925500E-011
                    77 -8.014110960536120E-006
                    78  4.384963183785480E-005
                    79  2.496518325810270E-010
                    80  5.591428406538320E-005
                    81  1.320891318842240E-009
                    82 -1.360344028827410E-005
                    83  5.221691109052020E-005
                    84 -2.229752888878960E-009
                    85 -6.572894046368892E-005
                    86  2.276756377082125E-010
                    87  8.353578005238044E-006
                    88  1.737633667253844E-005
                    89  2.704973108444530E-010
                    90 -3.843280619521936E-010
                    91  3.449391433921800E-005
                    92 -2.248394635053120E-004
                    93 -2.027375896071830E-003
                    94  2.171107254374170E-005
                    95  8.738654691746690E-004
                    96 -1.103782352838410E-009
                    97  1.027937973398800E-003
                    98  1.462152747986250E-003
                    99  1.051738497188020E-009
                   100 -7.099566325051420E-005
                   101  1.072262683110570E-004
                   102 -2.893675768227360E-009
                   103  7.094209440996670E-004
                   104 -3.306466398163990E-004
                   105  1.066848513106881E-004
                   106 -7.369165850197709E-011
                   107  8.036146082986489E-006
                   108  4.385356881830760E-005
                   109 -2.246504577901070E-010
                   110  5.524345769627347E-005
                   111  1.226662613474780E-009
                   112  1.348277046772910E-005
                   113  5.206021784007900E-005
                   114  2.036747193457430E-009
                   115 -6.563251983160727E-005
                   116  2.260251586393834E-010
                   117 -8.371466945737402E-006
                   118  1.737540080829484E-005
                   119 -2.462860185236030E-010
                   120 -3.703167195952128E-010
                   121 -3.449313200208836E-005
                   122 -1.806075800657120E-004
                   123  2.449649866078790E-005
                   124  7.837420730039630E-005
                   125  3.115716534420500E-004
                   126 -1.574712960473650E-010
                   127  7.959821832835760E-005
                   128 -9.659271898664470E-004
                   129 -4.183750013424350E-010
                   130  4.646070553769330E-006
                   131  1.765330015053240E-004
                   132  1.194299806597720E-009
                   133  6.264315561236680E-005
                   134  5.932982290761840E-004
                   135  6.581067635246498E-006
                   136  2.371783634210960E-011
                   137  1.219839783689030E-005
                   138 -2.179832761911160E-007
                   139 -7.715847025497019E-011
                   140 -1.325561816484878E-004
                   141  7.104235616296580E-010
                   142  7.263675674369010E-005
                   143  2.966356814128620E-005
                   144  6.559800007507190E-010
                   145 -2.169561981139137E-005
                   146 -2.387219315182735E-010
                   147 -1.106337905067405E-005
                   148 -7.398802033894680E-006
                   149 -5.902943891349200E-011
                   150  6.278779072146136E-011
                   151 -2.991531270925468E-006
                   152 -1.812826601921220E-004
                   153  2.211044315034600E-005
                   154  7.774548103213570E-005
                   155  3.156403067803230E-004
                   156 -1.538672813667990E-010
                   157 -7.959361459028040E-005
                   158 -9.658369279383490E-004
                   159 -4.200779349195620E-010
                   160 -4.841766463249450E-006
                   161  1.757889279253530E-004
                   162  1.178765834795440E-009
                   163 -6.178388436979840E-005
                   164  5.932559525580600E-004
                   165  6.660808507979094E-006
                   166  2.327981586945250E-011
                   167 -1.219737948798040E-005
                   168 -2.783057269490020E-007
                   169  7.046793832428499E-011
                   170 -1.322604924251735E-004
                   171  6.583896443562390E-010
                   172 -7.286575027159970E-005
                   173  2.966700799161240E-005
                   174 -5.769463090117760E-010
                   175 -2.157138802713432E-005
                   176 -2.320369406564520E-010
                   177  1.109090342707380E-005
                   178 -7.457579635288240E-006
                   179  5.885052699707580E-011
                   180  5.528322982355539E-011
                   181  2.992844565133919E-006
                   182 -1.579077902633110E-004
                   183 -4.200783003757420E-004
                   184  2.102667783636770E-005
                   185  3.227866087743890E-004
                   186 -2.676005794274570E-011
                   187  6.487698243400829E-008
                   188 -7.029075565958340E-005
                   189 -5.124423149395260E-010
                   190 -3.526654209984870E-007
                   191  2.962608687966410E-005
                   192 -9.613426949827771E-010
                   193  1.327390817865240E-007
                   194 -1.388442929310220E-004
                   195  1.947281767316462E-005
                   196  2.386260630304030E-011
                   197  2.369240257051980E-008
                   198  7.327865251415800E-006
                   199 -2.744699762283120E-012
                   200  2.823987157909479E-005
                   201  1.730892221800020E-010
                   202  1.712078167629190E-007
                   203 -6.091437370090680E-006
                   204  4.237874948924870E-011
                   205 -1.500201946704677E-005
                   206 -1.177090967470998E-011
                   207 -1.074586025500095E-008
                   208  5.882085237507560E-006
                   209 -6.294813502843450E-012
                   210 -6.979570110177696E-011
                   211  2.459463473599735E-008
                   212  8.429662942245951E-003
                   213 -4.386068451084660E-003
                   214  8.083291613255200E-004
                   215 -2.673646333663720E-009
                   216  5.303632713137530E-004
                   217  8.429669049395291E-003
                   218 -4.386074927560490E-003
                   219 -8.083327010898690E-004
                   220 -2.680852360496730E-009
                   221  5.303640299464520E-004
                   222 -7.660047980084150E-004
                   223 -2.023027115178280E-004
                   224 -2.115454161303640E-010
                   225 -4.340434055404670E-005
                   226 -5.391278217142660E-005
                   227 -7.661061786621670E-004
                   228 -2.018269018331170E-004
                   229 -1.860444914692240E-010
                   230  4.337254280467760E-005
                   231 -5.395778494488780E-005
                   232 -3.374294696656670E-004
                   233 -1.876803858612450E-004
                   234  2.422271551065650E-011
                   235 -2.014803142239670E-005
                   236 -2.663706839837830E-006
                   237 -3.375594560070350E-004
                   238 -1.878340683341110E-004
                   239  1.760557163838040E-011
                   240  2.023296318354380E-005
                   241 -2.605234101544800E-006
                   242  9.723060911012550E-005
                   243  3.613939977770990E-005
                   244  4.091157625269370E-011
                   245 -1.803768970132440E-008
                   246  2.239643343960920E-005
 Sym= __2_a__
 Ene=  0.000000000000000E+000
 Spin= Alpha
 Occup=    2.00000000000000     
                     1  2.257429493769840E-006
                     2 -7.455697018931990E-005
                     3  1.605176321526710E-003
                     4  5.720188535836040E-005
                     5  1.120924810533240E-003
                     6  1.636196152109810E-010
                     7  8.988692835971301E-009
                     8  1.549674867901110E-003
                     9  1.102512203987870E-010
                    10 -4.968336870923790E-009
                    11 -9.273082788083251E-005
                    12 -2.350522812739050E-010
                    13  4.073335122949990E-009
                    14 -7.993629323686739E-006
                    15  4.089923204833121E-005
                    16 -2.237750854418770E-011
                    17  4.588794713683320E-010
                    18  5.525218315279340E-007
                    19  4.755463472194010E-013
                    20 -1.236159374597472E-004
                    21  4.196015268611350E-010
                    22  2.523008077731510E-009
                    23  3.100809603929120E-005
                    24 -7.583942722405390E-013
                    25  1.919770762645404E-004
                    26  2.950458181026293E-010
                    27 -9.950831413861200E-010
                    28 -5.655291040360740E-005
                    29 -5.453430096427110E-013
                    30  6.937175116122074E-011
                    31  4.608720725965453E-010
                    32   1.00110868691930     
                    33  8.562374205789890E-003
                    34  2.444490507590040E-003
                    35 -7.774609020523040E-003
                    36 -6.426936148463560E-010
                    37 -5.854661917222230E-009
                    38 -2.346904420722620E-003
                    39  3.360346261448090E-010
                    40  9.276839118123480E-009
                    41  8.493684118787970E-004
                    42  8.849638589719440E-011
                    43 -6.495783771138260E-008
                    44  3.213455531524370E-003
                    45  2.964519412702101E-004
                    46 -1.948843366559820E-011
                    47 -3.382503815934990E-009
                    48 -3.327147856574460E-004
                    49 -6.448530335243660E-013
                    50  1.661693529963073E-004
                    51  1.995361207879400E-010
                    52  2.309637196077660E-008
                    53  6.279594216249180E-004
                    54  4.042664053862890E-012
                    55  2.877739988658760E-004
                    56 -1.642398128798397E-010
                    57  1.086730949528232E-010
                    58 -1.393035743775630E-004
                    59  3.280689639113980E-012
                    60 -1.431950981176132E-011
                    61  1.490612242397165E-009
                    62  1.070141041012500E-002
                    63 -1.641720530464290E-003
                    64 -2.808664193071970E-004
                    65  2.749638369133000E-003
                    66 -3.584394853840120E-011
                    67  2.727045270057620E-004
                    68 -2.157646027081420E-004
                    69 -7.302300594170910E-011
                    70  5.534673062830550E-004
                    71  1.832329512382400E-004
                    72 -7.171967243768590E-013
                    73 -1.650469461474050E-003
                    74  2.276826604118990E-004
                    75 -2.856425065028917E-005
                    76  4.379933765540950E-012
                    77  2.074916476720090E-006
                    78  1.359488427074356E-005
                    79 -1.141369373470880E-012
                    80  6.620218930639721E-004
                    81 -4.726111364152500E-011
                    82 -3.024741516269310E-004
                    83 -9.277587290040480E-005
                    84 -3.223928464104390E-011
                    85  5.080123807090518E-005
                    86 -5.220924839738349E-012
                    87  7.062608394049055E-006
                    88 -1.146764386343428E-004
                    89  1.212097452742000E-013
                    90  7.623238234080790E-012
                    91  3.784337715890576E-005
                    92  1.070138532225730E-002
                    93 -1.641800848966460E-003
                    94 -2.809204394542320E-004
                    95  2.749864617696060E-003
                    96 -3.540098386796580E-011
                    97 -2.727080981885740E-004
                    98 -2.157958294067660E-004
                    99 -6.082808371605250E-011
                   100 -5.534475489902410E-004
                   101  1.834179754284250E-004
                   102 -1.962659991170550E-011
                   103  1.650627729186150E-003
                   104  2.275294886349100E-004
                   105 -2.854828121554246E-005
                   106  3.425867359964090E-012
                   107 -2.081114732682420E-006
                   108  1.359364830543052E-005
                   109  1.367642212401410E-012
                   110  6.621221366460479E-004
                   111 -4.642904979768490E-011
                   112  3.025230325287410E-004
                   113 -9.275033444157780E-005
                   114  3.932284610341900E-011
                   115  5.078303724212651E-005
                   116 -4.875583122735102E-012
                   117 -7.059772018151968E-006
                   118 -1.146744429284470E-004
                   119 -2.479052638429960E-012
                   120  6.080281627010324E-012
                   121 -3.784267944109718E-005
                   122 -1.635694481443860E-004
                   123 -7.653458535108970E-004
                   124  2.234381328068710E-004
                   125 -1.461763161325970E-004
                   126 -9.445214959210240E-011
                   127 -1.420790993695740E-005
                   128 -1.601953517507110E-004
                   129  3.472628575585870E-011
                   130 -3.837901927054140E-005
                   131  6.001281610264680E-004
                   132  8.618706230229019E-011
                   133  2.306367168011060E-004
                   134  6.496170122090370E-004
                   135 -2.537738483235464E-005
                   136  2.554968712670380E-012
                   137  3.602712564568400E-005
                   138  1.340584681336028E-005
                   139 -6.886084079762940E-012
                   140 -2.683364432144537E-004
                   141 -2.676908147325840E-011
                   142 -1.421021948266070E-004
                   143 -9.239318702057320E-006
                   144  3.826669939953840E-011
                   145 -5.151671687208012E-006
                   146  8.158132273409014E-012
                   147 -2.779695811516771E-005
                   148 -4.363938158287180E-005
                   149  4.538158419482330E-012
                   150  2.358168394862368E-012
                   151 -3.153598067922078E-006
                   152 -1.632881624555090E-004
                   153 -7.644121536606770E-004
                   154  2.235462538466230E-004
                   155 -1.473120116736590E-004
                   156 -7.850935762357430E-011
                   157  1.419458800936620E-005
                   158 -1.602036780860710E-004
                   159  2.347920616368820E-011
                   160  3.845023978167350E-005