[Molden Format]
[Atoms] AU
  N     1    7    -0.0027499800   -0.0011275200   -4.2937670300        
  C     2    6    -0.0021904800   -0.0010751100   -1.7762641100        
  C     3    6     0.0198084300   -2.3392455200   -0.4114640300        
  C     4    6    -0.0235828000    2.3371521300   -0.4115517400        
  C     5    6     0.0329426500   -2.3003998900    2.1641900100        
  C     6    6    -0.0355722300    2.2984137400    2.1641094900        
  C     7    6    -0.0010235200   -0.0009657900    3.4748159700        
  H     8    1    -0.3395931100   -1.6207567200   -5.3124328700        
  H     9    1     0.3336403200    1.6184592500   -5.3126499300        
  H    10    1     0.0535340900   -4.0741404700   -1.4457304200        
  H    11    1    -0.0577681600    4.0720040200   -1.4458752900        
  H    12    1     0.0722526100   -4.0420262800    3.1968641900        
  H    13    1    -0.0744232100    4.0400831400    3.1967285200        
  H    14    1    -0.0005731400   -0.0009235900    5.5014307800        
[5D]
[7F]
[GTO]
  1  0
   s    12 1.00
  0.114200D+05  0.172695D-04
  0.171200D+04  0.134411D-03
  0.389300D+03  0.694561D-03
  0.110000D+03  0.278531D-02
  0.355700D+02  0.863457D-02
  0.125400D+02  0.199805D-01
  0.464400D+01  0.262908D-01
  0.129300D+01 -0.243845D-01
  0.511800D+00 -0.924934D-01
  0.178700D+00 -0.339683D+00
  0.246240D-01  0.345111D+00
  0.112530D-01  0.752750D+00
   s    10 1.00
  0.114200D+05  0.523000D-03
  0.171200D+04  0.404500D-02
  0.389300D+03  0.207750D-01
  0.110000D+03  0.807269D-01
  0.355700D+02  0.233074D+00
  0.125400D+02  0.433501D+00
  0.464400D+01  0.347472D+00
  0.129300D+01  0.412620D-01
  0.511800D+00 -0.850799D-02
  0.178700D+00  0.238400D-02
   s    10 1.00
  0.114200D+05 -0.115000D-03
  0.171200D+04 -0.895000D-03
  0.389300D+03 -0.462400D-02
  0.110000D+03 -0.185280D-01
  0.355700D+02 -0.573390D-01
  0.125400D+02 -0.132076D+00
  0.464400D+01 -0.172510D+00
  0.129300D+01  0.151814D+00
  0.511800D+00  0.599944D+00
  0.178700D+00  0.387462D+00
   s     1 1.00
  0.129300D+01  0.100000D+01
   s     1 1.00
  0.178700D+00  0.100000D+01
   p     5 1.00
  0.266300D+02  0.146700D-01
  0.594800D+01  0.917640D-01
  0.174200D+01  0.298683D+00
  0.555000D+00  0.498487D+00
  0.172500D+00  0.337023D+00
   p     1 1.00
  0.174200D+01  0.100000D+01
   p     1 1.00
  0.555000D+00  0.100000D+01
   d     1 1.00
  0.165400D+01  0.100000D+01
   d     1 1.00
  0.469000D+00  0.100000D+01
   f     1 1.00
  0.109300D+01  0.100000D+01
  
  2  0
   s    10 1.00
  0.823600D+04  0.531000D-03
  0.123500D+04  0.410800D-02
  0.280800D+03  0.210870D-01
  0.792700D+02  0.818530D-01
  0.255900D+02  0.234817D+00
  0.899700D+01  0.434401D+00
  0.331900D+01  0.346129D+00
  0.905900D+00  0.393780D-01
  0.364300D+00 -0.898300D-02
  0.128500D+00  0.238500D-02
   s    10 1.00
  0.823600D+04 -0.113000D-03
  0.123500D+04 -0.878000D-03
  0.280800D+03 -0.454000D-02
  0.792700D+02 -0.181330D-01
  0.255900D+02 -0.557600D-01
  0.899700D+01 -0.126895D+00
  0.331900D+01 -0.170352D+00
  0.905900D+00  0.140382D+00
  0.364300D+00  0.598684D+00
  0.128500D+00  0.395389D+00
   s     1 1.00
  0.905900D+00  0.100000D+01
   s     1 1.00
  0.364300D+00  0.100000D+01
   p     5 1.00
  0.187100D+02  0.140310D-01
  0.413300D+01  0.868660D-01
  0.120000D+01  0.290216D+00
  0.382700D+00  0.501008D+00
  0.120900D+00  0.343406D+00
   p     1 1.00
  0.382700D+00  0.100000D+01
   p     1 1.00
  0.120900D+00  0.100000D+01
   d     1 1.00
  0.109700D+01  0.100000D+01
   d     1 1.00
  0.318000D+00  0.100000D+01
   f     1 1.00
  0.761000D+00  0.100000D+01
  
  3  0
   s    10 1.00
  0.823600D+04  0.531000D-03
  0.123500D+04  0.410800D-02
  0.280800D+03  0.210870D-01
  0.792700D+02  0.818530D-01
  0.255900D+02  0.234817D+00
  0.899700D+01  0.434401D+00
  0.331900D+01  0.346129D+00
  0.905900D+00  0.393780D-01
  0.364300D+00 -0.898300D-02
  0.128500D+00  0.238500D-02
   s    10 1.00
  0.823600D+04 -0.113000D-03
  0.123500D+04 -0.878000D-03
  0.280800D+03 -0.454000D-02
  0.792700D+02 -0.181330D-01
  0.255900D+02 -0.557600D-01
  0.899700D+01 -0.126895D+00
  0.331900D+01 -0.170352D+00
  0.905900D+00  0.140382D+00
  0.364300D+00  0.598684D+00
  0.128500D+00  0.395389D+00
   s     1 1.00
  0.905900D+00  0.100000D+01
   s     1 1.00
  0.364300D+00  0.100000D+01
   p     5 1.00
  0.187100D+02  0.140310D-01
  0.413300D+01  0.868660D-01
  0.120000D+01  0.290216D+00
  0.382700D+00  0.501008D+00
  0.120900D+00  0.343406D+00
   p     1 1.00
  0.382700D+00  0.100000D+01
   p     1 1.00
  0.120900D+00  0.100000D+01
   d     1 1.00
  0.109700D+01  0.100000D+01
   d     1 1.00
  0.318000D+00  0.100000D+01
   f     1 1.00
  0.761000D+00  0.100000D+01
  
  4  0
   s    10 1.00
  0.823600D+04  0.531000D-03
  0.123500D+04  0.410800D-02
  0.280800D+03  0.210870D-01
  0.792700D+02  0.818530D-01
  0.255900D+02  0.234817D+00
  0.899700D+01  0.434401D+00
  0.331900D+01  0.346129D+00
  0.905900D+00  0.393780D-01
  0.364300D+00 -0.898300D-02
  0.128500D+00  0.238500D-02
   s    10 1.00
  0.823600D+04 -0.113000D-03
  0.123500D+04 -0.878000D-03
  0.280800D+03 -0.454000D-02
  0.792700D+02 -0.181330D-01
  0.255900D+02 -0.557600D-01
  0.899700D+01 -0.126895D+00
  0.331900D+01 -0.170352D+00
  0.905900D+00  0.140382D+00
  0.364300D+00  0.598684D+00
  0.128500D+00  0.395389D+00
   s     1 1.00
  0.905900D+00  0.100000D+01
   s     1 1.00
  0.364300D+00  0.100000D+01
   p     5 1.00
  0.187100D+02  0.140310D-01
  0.413300D+01  0.868660D-01
  0.120000D+01  0.290216D+00
  0.382700D+00  0.501008D+00
  0.120900D+00  0.343406D+00
   p     1 1.00
  0.382700D+00  0.100000D+01
   p     1 1.00
  0.120900D+00  0.100000D+01
   d     1 1.00
  0.109700D+01  0.100000D+01
   d     1 1.00
  0.318000D+00  0.100000D+01
   f     1 1.00
  0.761000D+00  0.100000D+01
  
  5  0
   s    10 1.00
  0.823600D+04  0.531000D-03
  0.123500D+04  0.410800D-02
  0.280800D+03  0.210870D-01
  0.792700D+02  0.818530D-01
  0.255900D+02  0.234817D+00
  0.899700D+01  0.434401D+00
  0.331900D+01  0.346129D+00
  0.905900D+00  0.393780D-01
  0.364300D+00 -0.898300D-02
  0.128500D+00  0.238500D-02
   s    10 1.00
  0.823600D+04 -0.113000D-03
  0.123500D+04 -0.878000D-03
  0.280800D+03 -0.454000D-02
  0.792700D+02 -0.181330D-01
  0.255900D+02 -0.557600D-01
  0.899700D+01 -0.126895D+00
  0.331900D+01 -0.170352D+00
  0.905900D+00  0.140382D+00
  0.364300D+00  0.598684D+00
  0.128500D+00  0.395389D+00
   s     1 1.00
  0.905900D+00  0.100000D+01
   s     1 1.00
  0.364300D+00  0.100000D+01
   p     5 1.00
  0.187100D+02  0.140310D-01
  0.413300D+01  0.868660D-01
  0.120000D+01  0.290216D+00
  0.382700D+00  0.501008D+00
  0.120900D+00  0.343406D+00
   p     1 1.00
  0.382700D+00  0.100000D+01
   p     1 1.00
  0.120900D+00  0.100000D+01
   d     1 1.00
  0.109700D+01  0.100000D+01
   d     1 1.00
  0.318000D+00  0.100000D+01
   f     1 1.00
  0.761000D+00  0.100000D+01
  
  6  0
   s    10 1.00
  0.823600D+04  0.531000D-03
  0.123500D+04  0.410800D-02
  0.280800D+03  0.210870D-01
  0.792700D+02  0.818530D-01
  0.255900D+02  0.234817D+00
  0.899700D+01  0.434401D+00
  0.331900D+01  0.346129D+00
  0.905900D+00  0.393780D-01
  0.364300D+00 -0.898300D-02
  0.128500D+00  0.238500D-02
   s    10 1.00
  0.823600D+04 -0.113000D-03
  0.123500D+04 -0.878000D-03
  0.280800D+03 -0.454000D-02
  0.792700D+02 -0.181330D-01
  0.255900D+02 -0.557600D-01
  0.899700D+01 -0.126895D+00
  0.331900D+01 -0.170352D+00
  0.905900D+00  0.140382D+00
  0.364300D+00  0.598684D+00
  0.128500D+00  0.395389D+00
   s     1 1.00
  0.905900D+00  0.100000D+01
   s     1 1.00
  0.364300D+00  0.100000D+01
   p     5 1.00
  0.187100D+02  0.140310D-01
  0.413300D+01  0.868660D-01
  0.120000D+01  0.290216D+00
  0.382700D+00  0.501008D+00
  0.120900D+00  0.343406D+00
   p     1 1.00
  0.382700D+00  0.100000D+01
   p     1 1.00
  0.120900D+00  0.100000D+01
   d     1 1.00
  0.109700D+01  0.100000D+01
   d     1 1.00
  0.318000D+00  0.100000D+01
   f     1 1.00
  0.761000D+00  0.100000D+01
  
  7  0
   s    10 1.00
  0.823600D+04  0.531000D-03
  0.123500D+04  0.410800D-02
  0.280800D+03  0.210870D-01
  0.792700D+02  0.818530D-01
  0.255900D+02  0.234817D+00
  0.899700D+01  0.434401D+00
  0.331900D+01  0.346129D+00
  0.905900D+00  0.393780D-01
  0.364300D+00 -0.898300D-02
  0.128500D+00  0.238500D-02
   s    10 1.00
  0.823600D+04 -0.113000D-03
  0.123500D+04 -0.878000D-03
  0.280800D+03 -0.454000D-02
  0.792700D+02 -0.181330D-01
  0.255900D+02 -0.557600D-01
  0.899700D+01 -0.126895D+00
  0.331900D+01 -0.170352D+00
  0.905900D+00  0.140382D+00
  0.364300D+00  0.598684D+00
  0.128500D+00  0.395389D+00
   s     1 1.00
  0.905900D+00  0.100000D+01
   s     1 1.00
  0.364300D+00  0.100000D+01
   p     5 1.00
  0.187100D+02  0.140310D-01
  0.413300D+01  0.868660D-01
  0.120000D+01  0.290216D+00
  0.382700D+00  0.501008D+00
  0.120900D+00  0.343406D+00
   p     1 1.00
  0.382700D+00  0.100000D+01
   p     1 1.00
  0.120900D+00  0.100000D+01
   d     1 1.00
  0.109700D+01  0.100000D+01
   d     1 1.00
  0.318000D+00  0.100000D+01
   f     1 1.00
  0.761000D+00  0.100000D+01
  
  8  0
   s     4 1.00
  0.130100D+02  0.196850D-01
  0.196200D+01  0.137977D+00
  0.444600D+00  0.478148D+00
  0.122000D+00  0.501240D+00
   s     1 1.00
  0.122000D+00  0.100000D+01
   p     1 1.00
  0.727000D+00  0.100000D+01
  
  9  0
   s     4 1.00
  0.130100D+02  0.196850D-01
  0.196200D+01  0.137977D+00
  0.444600D+00  0.478148D+00
  0.122000D+00  0.501240D+00
   s     1 1.00
  0.122000D+00  0.100000D+01
   p     1 1.00
  0.727000D+00  0.100000D+01
  
 10  0
   s     4 1.00
  0.130100D+02  0.196850D-01
  0.196200D+01  0.137977D+00
  0.444600D+00  0.478148D+00
  0.122000D+00  0.501240D+00
   s     1 1.00
  0.122000D+00  0.100000D+01
   p     1 1.00
  0.727000D+00  0.100000D+01
  
 11  0
   s     4 1.00
  0.130100D+02  0.196850D-01
  0.196200D+01  0.137977D+00
  0.444600D+00  0.478148D+00
  0.122000D+00  0.501240D+00
   s     1 1.00
  0.122000D+00  0.100000D+01
   p     1 1.00
  0.727000D+00  0.100000D+01
  
 12  0
   s     4 1.00
  0.130100D+02  0.196850D-01
  0.196200D+01  0.137977D+00
  0.444600D+00  0.478148D+00
  0.122000D+00  0.501240D+00
   s     1 1.00
  0.122000D+00  0.100000D+01
   p     1 1.00
  0.727000D+00  0.100000D+01
  
 13  0
   s     4 1.00
  0.130100D+02  0.196850D-01
  0.196200D+01  0.137977D+00
  0.444600D+00  0.478148D+00
  0.122000D+00  0.501240D+00
   s     1 1.00
  0.122000D+00  0.100000D+01
   p     1 1.00
  0.727000D+00  0.100000D+01
  
 14  0
   s     4 1.00
  0.130100D+02  0.196850D-01
  0.196200D+01  0.137977D+00
  0.444600D+00  0.478148D+00
  0.122000D+00  0.501240D+00
   s     1 1.00
  0.122000D+00  0.100000D+01
   p     1 1.00
  0.727000D+00  0.100000D+01
  
[MO]
 Sym= __1_A__
 Ene=  0.000000000000000E+000
 Spin= Alpha
 Occup=    2.00000000000000     
                     1  4.223162539939262E-005
                     2  0.998063570016227     
                     3  9.215904778421819E-003
                     4  2.064683243368020E-003
                     5  1.551732084760636E-003
                     6  9.957141766925187E-007
                     7  8.200497715390129E-008
                     8  4.473747112630183E-003
                     9 -2.939165412897732E-008
                    10  8.349248168683644E-009
                    11 -1.251802725424326E-004
                    12 -2.635704824379169E-008
                    13 -3.459794827373873E-008
                    14 -1.101540780961429E-004
                    15  2.643964363045057E-004
                    16  1.255289293201565E-007
                    17 -1.911115327922628E-010
                    18 -1.089303442871747E-004
                    19  3.594738140482684E-005
                    20  1.584307276705368E-004
                    21 -5.579136582308994E-008
                    22  3.576021192398640E-008
                    23  5.365324517615088E-004
                    24 -1.992426386168714E-004
                    25 -1.889472300696472E-004
                    26  7.321421954399780E-008
                    27  2.115933781198509E-008
                    28  8.705248013244559E-005
                    29 -2.123884135208850E-005
                    30 -2.404050988899823E-008
                    31 -4.850781099281317E-009
                    32 -3.591761887588597E-004
                    33  2.718481438873469E-003
                    34  1.461852672172246E-004
                    35 -2.643311585668910E-004
                    36 -1.574706363756935E-006
                    37 -1.288833779350672E-007
                    38 -7.065292293667419E-003
                    39  8.380957315864120E-008
                    40 -4.286374964217072E-008
                    41  3.600002093078832E-004
                    42  9.751824198690612E-007
                    43  1.301582981138320E-007
                    44  4.396160617060335E-003
                    45  3.483867867696576E-004
                    46  1.040777662581797E-007
                    47  2.650381898093974E-008
                    48  1.358558162999506E-004
                    49 -6.194225547457860E-006
                    50  7.742253707069669E-005
                    51  1.246355400591990E-007
                    52 -1.603798728734798E-007
                    53 -4.291430522514850E-004
                    54  5.127525841191791E-005
                    55 -1.099519947014852E-004
                    56  3.371955608932112E-008
                    57  9.258564737396527E-009
                    58  7.601477692363415E-005
                    59 -1.003978403739681E-005
                    60 -2.089612452399807E-008
                    61 -4.511115880813932E-009
                    62 -2.106293960764768E-004
                    63 -1.676182439074287E-003
                    64  5.595678496058744E-005
                    65  5.723131534048992E-004
                    66 -1.190266092057432E-005
                    67 -8.402834862870865E-004
                    68  1.013479056023028E-003
                    69  2.535918357120860E-005
                    70 -2.776757122819236E-005
                    71  6.011218414144936E-004
                    72  1.361016214272645E-005
                    73 -5.791076166014982E-004
                    74 -1.407175741765472E-004
                    75  9.190764477757438E-005
                    76  1.423774244864506E-006
                    77 -8.822402133373018E-006
                    78  4.099893879790950E-005
                    79 -2.312151146873238E-007
                    80 -1.727695827167657E-005
                    81 -1.841205268014260E-005
                    82  1.996491919972240E-004
                    83 -2.755034904086994E-005
                    84  1.498860192842789E-005
                    85 -9.265452318151855E-005
                    86  1.814365085670280E-006
                    87 -2.830244975920028E-005
                    88  2.030065676196498E-005
                    89 -3.632401814952382E-006
                    90  9.130668783421293E-007
                    91  1.341648002613082E-005
                    92 -2.105930708463831E-004
                    93 -1.676036254003301E-003
                    94  5.612291368221106E-005
                    95  5.717635391635081E-004
                    96  1.235174825061176E-005
                    97  8.403449477357931E-004
                    98  1.013547301269282E-003
                    99 -2.508968340063253E-005
                   100  2.765189311599292E-005
                   101  6.004969038302869E-004
                   102 -1.366237393730647E-005
                   103  5.785240553983356E-004
                   104 -1.405805655517913E-004
                   105  9.187524397183093E-005
                   106 -1.371094271452445E-006
                   107  8.847796202066656E-006
                   108  4.099999234471426E-005
                   109 -2.273671305420756E-007
                   110 -1.772016202498698E-005
                   111  1.841232783220384E-005
                   112 -1.997650860057265E-004
                   113 -2.762376254936612E-005
                   114  1.489998667856432E-005
                   115 -9.258601184428939E-005
                   116 -1.727708243566291E-006
                   117  2.831761393786584E-005
                   118  2.029337405968008E-005
                   119 -3.605657470677965E-006
                   120 -9.245845030391156E-007
                   121 -1.341665288166388E-005
                   122 -1.484482960916887E-004
                   123  2.669666733604402E-006
                   124  1.099560163448531E-004
                   125  1.320022779640923E-004
                   126 -1.380948761672790E-005
                   127  4.126262680838437E-005
                   128 -7.950538463621454E-004
                   129  1.117265718424888E-006
                   130  2.083171388694427E-005
                   131  3.458680972941904E-004
                   132  9.136849591793664E-006
                   133 -1.634228331692196E-004
                   134  7.038287506346741E-004
                   135 -1.689949438554003E-005
                   136  1.022731774157970E-006
                   137  1.921479299499450E-006
                   138  1.323901260352238E-006
                   139  7.833360631666101E-007
                   140 -1.871841048961163E-004
                   141 -9.597366205815239E-006
                   142  1.658015627662655E-004
                   143  1.361538880368208E-005
                   144 -4.613130753646777E-006
                   145 -3.872541899494530E-005
                   146  3.598110339674937E-007
                   147  1.101395014193019E-006
                   148 -9.479914563293631E-006
                   149 -7.452394581583294E-007
                   150 -3.838447504108523E-007
                   151 -3.535452209089941E-006
                   152 -1.489251892346396E-004
                   153  9.855728999154491E-007
                   154  1.094781934701557E-004
                   155  1.350266832507346E-004
                   156  1.344998052457932E-005
                   157 -4.124037891832677E-005
                   158 -7.950265057564422E-004
                   159 -9.486101007958928E-007
                   160 -2.116684995099718E-005
                   161  3.455059135416367E-004
                   162 -8.834372675520420E-006
                   163  1.640055260792774E-004
                   164  7.039931410720042E-004
                   165 -1.684427211016237E-005
                   166 -1.036922321200600E-006
                   167 -1.930458061544326E-006
                   168  1.272024869732699E-006
                   169  7.804773984595986E-007
                   170 -1.870420785559442E-004
                   171  9.447116486919853E-006
                   172 -1.660685395078657E-004
                   173  1.358363438794448E-005
                   174 -4.685718413075388E-006
                   175 -3.863869872087415E-005
                   176 -3.094500190313045E-007
                   177 -1.089765454354818E-006
                   178 -9.530885702573639E-006
                   179 -7.492637026639089E-007
                   180  3.888385980866333E-007
                   181  3.543703365824102E-006
                   182 -1.229105182517425E-004
                   183 -3.298541007073356E-004
                   184  3.195273812996012E-005
                   185  1.530346004609178E-004
                   186 -1.393654370222927E-008
                   187  8.499872856149802E-008
                   188 -4.146284177830267E-005
                   189  1.503729534538932E-008
                   190 -4.269085161392722E-007
                   191  1.780084957520881E-005
                   192  1.242424764410912E-008
                   193 -3.605832345042191E-008
                   194  4.722818998903065E-005
                   195  1.905984400305491E-005
                   196  4.810887637142442E-009
                   197  2.443215812812739E-008
                   198  8.951639459965805E-006
                   199  3.579722012834626E-007
                   200  5.817612216585752E-005
                   201  8.943468558776278E-009
                   202  2.125147591545593E-007
                   203  4.836765740186798E-005
                   204 -3.577391617451144E-006
                   205 -1.167287998771799E-005
                   206  5.460020131684747E-009
                   207 -7.773087482887353E-009
                   208  3.236216650763428E-006
                   209  9.595662221459346E-007
                   210  4.108671161114187E-010
                   211  2.731847767309036E-008
                   212  3.850764517612263E-003
                   213 -2.321786736164927E-003
                   214  1.043300629597232E-004
                   215  4.556549630402593E-004
                   216  3.774988727060775E-004
                   217  3.850743338846637E-003
                   218 -2.321777178134847E-003
                   219 -1.041624421382107E-004
                   220 -4.556378436206780E-004
                   221  3.775677504653729E-004
                   222 -6.619483104417716E-004
                   223 -1.342593598270962E-004
                   224  8.779734417847591E-007
                   225 -1.797836771630418E-005
                   226 -4.463794243835756E-005
                   227 -6.620176711879618E-004
                   228 -1.338860016920912E-004
                   229 -8.979920709423911E-007
                   230  1.795831298719916E-005
                   231 -4.466497027902795E-005
                   232 -2.330649846347102E-004
                   233 -4.026385417940188E-004
                   234 -1.131389087330995E-006
                   235 -5.943285875715813E-006
                   236  5.609609098405001E-006
                   237 -2.331043917393858E-004
                   238 -4.028003191917811E-004
                   239  1.132500925578332E-006
                   240  5.989865486271349E-006
                   241  5.655732122455915E-006
                   242  6.877125016987198E-005
                   243 -1.254524559904122E-004
                   244  3.058524257528489E-009
                   245 -2.062577571219329E-008
                   246  1.452133303093417E-005
 Sym= __2_A__
 Ene=  0.000000000000000E+000
 Spin= Alpha
 Occup=    2.00000000000000     
                     1 -4.500285497160884E-005
                     2 -2.095501917925848E-004
                     3  2.278955409231663E-003
                     4  9.997714330634118E-005
                     5  1.264154413036612E-003
                     6  6.605098264342662E-007
                     7  6.750023770641362E-008
                     8  2.972731698857626E-003
                     9 -1.161502952387927E-008
                    10 -5.422066814506507E-009
                    11 -5.290949338004460E-005
                    12 -1.138827119072654E-007
                    13 -4.454248435994762E-009
                    14 -5.199291383307262E-004
                    15  4.297797362785811E-005
                    16  2.861442275801630E-009
                    17  6.199832357342422E-009
                    18  6.206899450859095E-005
                    19 -1.313810431451556E-005
                    20 -2.758282815456052E-004
                    21 -3.722338039538748E-008
                    22 -3.446640281007317E-008
                    23 -3.142320615462702E-004
                    24  7.534825624905974E-005
                    25  1.817666396696364E-004
                    26 -9.608679039394058E-008
                    27 -3.242776647003408E-009
                    28 -4.336856893427820E-006
                    29 -1.596012781916517E-005
                    30  9.703532103566872E-010
                    31 -3.830733773826887E-009
                    32   1.00105900693256     
                    33  9.265587906880562E-003
                    34  2.629674681482467E-003
                    35 -7.764787563455615E-003
                    36 -9.141772695276457E-007
                    37 -9.017331255948966E-008
                    38 -4.111831749986746E-003
                    39  2.270826160706138E-007
                    40  2.086468848987766E-008
                    41  1.022237474105903E-003
                    42  9.840239143280495E-007
                    43  2.501668983071454E-008
                    44  4.419244089361093E-003
                    45  4.689281217108675E-004
                    46  2.756308421086600E-007
                    47  3.356839679900322E-009
                    48 -4.284846187540792E-004
                    49  9.197067189819208E-006
                    50  5.639557655583013E-004
                    51  1.242524383704381E-008
                    52  5.069507122947259E-008
                    53  9.260196636945312E-004
                    54 -1.566482467969761E-005
                    55  3.830226652598618E-004
                    56 -1.374075083793639E-007
                    57 -3.006059481393364E-008
                    58 -2.045003331753894E-004
                    59  6.761296270645106E-006
                    60  5.592210082015451E-008
                    61 -1.784013474912936E-009
                    62  7.333900655406502E-003
                    63 -2.048265626984810E-003
                    64 -2.751399778658630E-004
                    65  3.029030135782949E-003
                    66  4.571517549953559E-006
                    67  9.932657466328731E-005
                    68 -1.351501763198711E-005
                    69 -1.933025201790715E-005
                    70  5.951258621029336E-004
                    71  2.625853181275843E-005
                    72  3.296897402986165E-005
                    73 -2.082771927358670E-003
                    74  9.560077877715586E-005
                    75 -1.530032699436596E-005
                    76  5.731502829777468E-007
                    77  1.417673034520891E-005
                    78  2.911717506373318E-005
                    79  1.100515575517930E-006
                    80  7.618113631111943E-004
                    81  1.493956809439571E-005
                    82 -4.215933625328724E-004
                    83 -1.264967260529234E-005
                    84 -9.573190383173205E-006
                    85  7.244332738946498E-005
                    86 -3.500339462858881E-007
                    87  4.502935415825628E-005
                    88 -1.265441719981437E-004
                    89  1.035470050815066E-006
                    90  8.591726009137253E-007
                    91  5.003097426434026E-005
                    92  7.333874310254211E-003
                    93 -2.048349325991742E-003
                    94 -2.751801644248616E-004
                    95  3.029223705462233E-003
                    96 -4.576978849638890E-006
                    97 -9.932754422235229E-005
                    98 -1.353029809636489E-005
                    99  1.934110758730512E-005
                   100 -5.951267360245218E-004
                   101  2.639586949019258E-005
                   102 -3.292935928077981E-005
                   103  2.082893357781548E-003
                   104  9.537583551625503E-005
                   105 -1.528539938213652E-005
                   106 -5.979797621156910E-007
                   107 -1.418295357148894E-005
                   108  2.911593914022400E-005
                   109  1.094206931143654E-006
                   110  7.618468761781332E-004
                   111 -1.434812888797093E-005
                   112  4.216984657822723E-004
                   113 -1.265642089615020E-005
                   114 -9.386007635296764E-006
                   115  7.242679098365943E-005
                   116  3.597707349654930E-007
                   117 -4.504282577412767E-005
                   118 -1.265365559515568E-004
                   119  1.031141899420937E-006
                   120 -7.900607842679012E-007
                   121 -5.003516781200601E-005
                   122 -2.309451644675821E-004
                   123 -7.530165751596832E-004
                   124  2.244484758853361E-004
                   125 -1.125835835546365E-004
                   126 -2.451297992033887E-006
                   127 -1.905491435068397E-005
                   128 -2.532815371342960E-004
                   129  4.500693767196730E-006
                   130 -7.481034127817135E-006
                   131  5.369621720254222E-004
                   132 -6.635732161952194E-006
                   133  3.249378636897632E-004
                   134  7.480026135343568E-004
                   135 -1.427968509914061E-005
                   136 -1.373265470693634E-006
                   137  5.151843244492055E-005
                   138  1.398891817553195E-005
                   139  7.692823500142079E-007
                   140 -2.906412106388293E-004
                   141  3.051338348333102E-006
                   142 -2.194714257144034E-004
                   143 -1.384461270864042E-005
                   144 -2.863356610446364E-006
                   145  8.084459822839659E-007
                   146  1.207156322564008E-006
                   147 -4.050609650118931E-005
                   148 -3.945395330104636E-005
                   149 -1.267882029956255E-006
                   150  5.166733179562497E-007
                   151 -5.692778407143526E-006
                   152 -2.306651711274664E-004
                   153 -7.520876781263368E-004
                   154  2.245028778306688E-004
                   155 -1.135430996830349E-004
                   156  2.338739099834786E-006
                   157  1.903633347847524E-005
                   158 -2.532867067853158E-004
                   159 -4.262965726419295E-006
                   160  7.539353680313569E-006