[Molden Format]
[Atoms] AU
  N     1    7    -4.4519150800    0.1645695100   -0.0000004400        
  C     2    6    -1.7695092000   -0.0145096000   -0.0000001700        
  C     3    6    -0.4270927200   -0.0061402300   -2.2691546100        
  C     4    6    -0.4270931100   -0.0061391100    2.2691544900        
  C     5    6     2.1889955900   -0.0004823800   -2.2566388900        
  C     6    6     2.1889952100   -0.0004812700    2.2566392100        
  C     7    6     3.5149715000    0.0022090000    0.0000002700        
  H     8    1    -5.3847680700   -0.9508472000   -1.9800838900        
  H     9    1    -5.2412525100   -0.7792438000    1.6754551200        
  H    10    1    -1.4305344500   -0.0005073500   -4.0318143700        
  H    11    1    -1.4305351200   -0.0005053700    4.0318140800        
  H    12    1     3.1914120400   -0.0010699000   -4.0209976100        
  H    13    1     3.1914113700   -0.0010679200    4.0209980900        
  H    14    1     5.5428332300    0.0050250700    0.0000004400        
[5D]
[7F]
[GTO]
  1  0
   s    12 1.00
  0.114200D+05  0.172695D-04
  0.171200D+04  0.134411D-03
  0.389300D+03  0.694561D-03
  0.110000D+03  0.278531D-02
  0.355700D+02  0.863457D-02
  0.125400D+02  0.199805D-01
  0.464400D+01  0.262908D-01
  0.129300D+01 -0.243845D-01
  0.511800D+00 -0.924934D-01
  0.178700D+00 -0.339683D+00
  0.246240D-01  0.345111D+00
  0.112530D-01  0.752750D+00
   s    10 1.00
  0.114200D+05  0.523000D-03
  0.171200D+04  0.404500D-02
  0.389300D+03  0.207750D-01
  0.110000D+03  0.807269D-01
  0.355700D+02  0.233074D+00
  0.125400D+02  0.433501D+00
  0.464400D+01  0.347472D+00
  0.129300D+01  0.412620D-01
  0.511800D+00 -0.850799D-02
  0.178700D+00  0.238400D-02
   s    10 1.00
  0.114200D+05 -0.115000D-03
  0.171200D+04 -0.895000D-03
  0.389300D+03 -0.462400D-02
  0.110000D+03 -0.185280D-01
  0.355700D+02 -0.573390D-01
  0.125400D+02 -0.132076D+00
  0.464400D+01 -0.172510D+00
  0.129300D+01  0.151814D+00
  0.511800D+00  0.599944D+00
  0.178700D+00  0.387462D+00
   s     1 1.00
  0.129300D+01  0.100000D+01
   s     1 1.00
  0.178700D+00  0.100000D+01
   p     5 1.00
  0.266300D+02  0.146700D-01
  0.594800D+01  0.917640D-01
  0.174200D+01  0.298683D+00
  0.555000D+00  0.498487D+00
  0.172500D+00  0.337023D+00
   p     1 1.00
  0.174200D+01  0.100000D+01
   p     1 1.00
  0.555000D+00  0.100000D+01
   d     1 1.00
  0.165400D+01  0.100000D+01
   d     1 1.00
  0.469000D+00  0.100000D+01
   f     1 1.00
  0.109300D+01  0.100000D+01
  
  2  0
   s    10 1.00
  0.823600D+04  0.531000D-03
  0.123500D+04  0.410800D-02
  0.280800D+03  0.210870D-01
  0.792700D+02  0.818530D-01
  0.255900D+02  0.234817D+00
  0.899700D+01  0.434401D+00
  0.331900D+01  0.346129D+00
  0.905900D+00  0.393780D-01
  0.364300D+00 -0.898300D-02
  0.128500D+00  0.238500D-02
   s    10 1.00
  0.823600D+04 -0.113000D-03
  0.123500D+04 -0.878000D-03
  0.280800D+03 -0.454000D-02
  0.792700D+02 -0.181330D-01
  0.255900D+02 -0.557600D-01
  0.899700D+01 -0.126895D+00
  0.331900D+01 -0.170352D+00
  0.905900D+00  0.140382D+00
  0.364300D+00  0.598684D+00
  0.128500D+00  0.395389D+00
   s     1 1.00
  0.905900D+00  0.100000D+01
   s     1 1.00
  0.364300D+00  0.100000D+01
   p     5 1.00
  0.187100D+02  0.140310D-01
  0.413300D+01  0.868660D-01
  0.120000D+01  0.290216D+00
  0.382700D+00  0.501008D+00
  0.120900D+00  0.343406D+00
   p     1 1.00
  0.382700D+00  0.100000D+01
   p     1 1.00
  0.120900D+00  0.100000D+01
   d     1 1.00
  0.109700D+01  0.100000D+01
   d     1 1.00
  0.318000D+00  0.100000D+01
   f     1 1.00
  0.761000D+00  0.100000D+01
  
  3  0
   s    10 1.00
  0.823600D+04  0.531000D-03
  0.123500D+04  0.410800D-02
  0.280800D+03  0.210870D-01
  0.792700D+02  0.818530D-01
  0.255900D+02  0.234817D+00
  0.899700D+01  0.434401D+00
  0.331900D+01  0.346129D+00
  0.905900D+00  0.393780D-01
  0.364300D+00 -0.898300D-02
  0.128500D+00  0.238500D-02
   s    10 1.00
  0.823600D+04 -0.113000D-03
  0.123500D+04 -0.878000D-03
  0.280800D+03 -0.454000D-02
  0.792700D+02 -0.181330D-01
  0.255900D+02 -0.557600D-01
  0.899700D+01 -0.126895D+00
  0.331900D+01 -0.170352D+00
  0.905900D+00  0.140382D+00
  0.364300D+00  0.598684D+00
  0.128500D+00  0.395389D+00
   s     1 1.00
  0.905900D+00  0.100000D+01
   s     1 1.00
  0.364300D+00  0.100000D+01
   p     5 1.00
  0.187100D+02  0.140310D-01
  0.413300D+01  0.868660D-01
  0.120000D+01  0.290216D+00
  0.382700D+00  0.501008D+00
  0.120900D+00  0.343406D+00
   p     1 1.00
  0.382700D+00  0.100000D+01
   p     1 1.00
  0.120900D+00  0.100000D+01
   d     1 1.00
  0.109700D+01  0.100000D+01
   d     1 1.00
  0.318000D+00  0.100000D+01
   f     1 1.00
  0.761000D+00  0.100000D+01
  
  4  0
   s    10 1.00
  0.823600D+04  0.531000D-03
  0.123500D+04  0.410800D-02
  0.280800D+03  0.210870D-01
  0.792700D+02  0.818530D-01
  0.255900D+02  0.234817D+00
  0.899700D+01  0.434401D+00
  0.331900D+01  0.346129D+00
  0.905900D+00  0.393780D-01
  0.364300D+00 -0.898300D-02
  0.128500D+00  0.238500D-02
   s    10 1.00
  0.823600D+04 -0.113000D-03
  0.123500D+04 -0.878000D-03
  0.280800D+03 -0.454000D-02
  0.792700D+02 -0.181330D-01
  0.255900D+02 -0.557600D-01
  0.899700D+01 -0.126895D+00
  0.331900D+01 -0.170352D+00
  0.905900D+00  0.140382D+00
  0.364300D+00  0.598684D+00
  0.128500D+00  0.395389D+00
   s     1 1.00
  0.905900D+00  0.100000D+01
   s     1 1.00
  0.364300D+00  0.100000D+01
   p     5 1.00
  0.187100D+02  0.140310D-01
  0.413300D+01  0.868660D-01
  0.120000D+01  0.290216D+00
  0.382700D+00  0.501008D+00
  0.120900D+00  0.343406D+00
   p     1 1.00
  0.382700D+00  0.100000D+01
   p     1 1.00
  0.120900D+00  0.100000D+01
   d     1 1.00
  0.109700D+01  0.100000D+01
   d     1 1.00
  0.318000D+00  0.100000D+01
   f     1 1.00
  0.761000D+00  0.100000D+01
  
  5  0
   s    10 1.00
  0.823600D+04  0.531000D-03
  0.123500D+04  0.410800D-02
  0.280800D+03  0.210870D-01
  0.792700D+02  0.818530D-01
  0.255900D+02  0.234817D+00
  0.899700D+01  0.434401D+00
  0.331900D+01  0.346129D+00
  0.905900D+00  0.393780D-01
  0.364300D+00 -0.898300D-02
  0.128500D+00  0.238500D-02
   s    10 1.00
  0.823600D+04 -0.113000D-03
  0.123500D+04 -0.878000D-03
  0.280800D+03 -0.454000D-02
  0.792700D+02 -0.181330D-01
  0.255900D+02 -0.557600D-01
  0.899700D+01 -0.126895D+00
  0.331900D+01 -0.170352D+00
  0.905900D+00  0.140382D+00
  0.364300D+00  0.598684D+00
  0.128500D+00  0.395389D+00
   s     1 1.00
  0.905900D+00  0.100000D+01
   s     1 1.00
  0.364300D+00  0.100000D+01
   p     5 1.00
  0.187100D+02  0.140310D-01
  0.413300D+01  0.868660D-01
  0.120000D+01  0.290216D+00
  0.382700D+00  0.501008D+00
  0.120900D+00  0.343406D+00
   p     1 1.00
  0.382700D+00  0.100000D+01
   p     1 1.00
  0.120900D+00  0.100000D+01
   d     1 1.00
  0.109700D+01  0.100000D+01
   d     1 1.00
  0.318000D+00  0.100000D+01
   f     1 1.00
  0.761000D+00  0.100000D+01
  
  6  0
   s    10 1.00
  0.823600D+04  0.531000D-03
  0.123500D+04  0.410800D-02
  0.280800D+03  0.210870D-01
  0.792700D+02  0.818530D-01
  0.255900D+02  0.234817D+00
  0.899700D+01  0.434401D+00
  0.331900D+01  0.346129D+00
  0.905900D+00  0.393780D-01
  0.364300D+00 -0.898300D-02
  0.128500D+00  0.238500D-02
   s    10 1.00
  0.823600D+04 -0.113000D-03
  0.123500D+04 -0.878000D-03
  0.280800D+03 -0.454000D-02
  0.792700D+02 -0.181330D-01
  0.255900D+02 -0.557600D-01
  0.899700D+01 -0.126895D+00
  0.331900D+01 -0.170352D+00
  0.905900D+00  0.140382D+00
  0.364300D+00  0.598684D+00
  0.128500D+00  0.395389D+00
   s     1 1.00
  0.905900D+00  0.100000D+01
   s     1 1.00
  0.364300D+00  0.100000D+01
   p     5 1.00
  0.187100D+02  0.140310D-01
  0.413300D+01  0.868660D-01
  0.120000D+01  0.290216D+00
  0.382700D+00  0.501008D+00
  0.120900D+00  0.343406D+00
   p     1 1.00
  0.382700D+00  0.100000D+01
   p     1 1.00
  0.120900D+00  0.100000D+01
   d     1 1.00
  0.109700D+01  0.100000D+01
   d     1 1.00
  0.318000D+00  0.100000D+01
   f     1 1.00
  0.761000D+00  0.100000D+01
  
  7  0
   s    10 1.00
  0.823600D+04  0.531000D-03
  0.123500D+04  0.410800D-02
  0.280800D+03  0.210870D-01
  0.792700D+02  0.818530D-01
  0.255900D+02  0.234817D+00
  0.899700D+01  0.434401D+00
  0.331900D+01  0.346129D+00
  0.905900D+00  0.393780D-01
  0.364300D+00 -0.898300D-02
  0.128500D+00  0.238500D-02
   s    10 1.00
  0.823600D+04 -0.113000D-03
  0.123500D+04 -0.878000D-03
  0.280800D+03 -0.454000D-02
  0.792700D+02 -0.181330D-01
  0.255900D+02 -0.557600D-01
  0.899700D+01 -0.126895D+00
  0.331900D+01 -0.170352D+00
  0.905900D+00  0.140382D+00
  0.364300D+00  0.598684D+00
  0.128500D+00  0.395389D+00
   s     1 1.00
  0.905900D+00  0.100000D+01
   s     1 1.00
  0.364300D+00  0.100000D+01
   p     5 1.00
  0.187100D+02  0.140310D-01
  0.413300D+01  0.868660D-01
  0.120000D+01  0.290216D+00
  0.382700D+00  0.501008D+00
  0.120900D+00  0.343406D+00
   p     1 1.00
  0.382700D+00  0.100000D+01
   p     1 1.00
  0.120900D+00  0.100000D+01
   d     1 1.00
  0.109700D+01  0.100000D+01
   d     1 1.00
  0.318000D+00  0.100000D+01
   f     1 1.00
  0.761000D+00  0.100000D+01
  
  8  0
   s     4 1.00
  0.130100D+02  0.196850D-01
  0.196200D+01  0.137977D+00
  0.444600D+00  0.478148D+00
  0.122000D+00  0.501240D+00
   s     1 1.00
  0.122000D+00  0.100000D+01
   p     1 1.00
  0.727000D+00  0.100000D+01
  
  9  0
   s     4 1.00
  0.130100D+02  0.196850D-01
  0.196200D+01  0.137977D+00
  0.444600D+00  0.478148D+00
  0.122000D+00  0.501240D+00
   s     1 1.00
  0.122000D+00  0.100000D+01
   p     1 1.00
  0.727000D+00  0.100000D+01
  
 10  0
   s     4 1.00
  0.130100D+02  0.196850D-01
  0.196200D+01  0.137977D+00
  0.444600D+00  0.478148D+00
  0.122000D+00  0.501240D+00
   s     1 1.00
  0.122000D+00  0.100000D+01
   p     1 1.00
  0.727000D+00  0.100000D+01
  
 11  0
   s     4 1.00
  0.130100D+02  0.196850D-01
  0.196200D+01  0.137977D+00
  0.444600D+00  0.478148D+00
  0.122000D+00  0.501240D+00
   s     1 1.00
  0.122000D+00  0.100000D+01
   p     1 1.00
  0.727000D+00  0.100000D+01
  
 12  0
   s     4 1.00
  0.130100D+02  0.196850D-01
  0.196200D+01  0.137977D+00
  0.444600D+00  0.478148D+00
  0.122000D+00  0.501240D+00
   s     1 1.00
  0.122000D+00  0.100000D+01
   p     1 1.00
  0.727000D+00  0.100000D+01
  
 13  0
   s     4 1.00
  0.130100D+02  0.196850D-01
  0.196200D+01  0.137977D+00
  0.444600D+00  0.478148D+00
  0.122000D+00  0.501240D+00
   s     1 1.00
  0.122000D+00  0.100000D+01
   p     1 1.00
  0.727000D+00  0.100000D+01
  
 14  0
   s     4 1.00
  0.130100D+02  0.196850D-01
  0.196200D+01  0.137977D+00
  0.444600D+00  0.478148D+00
  0.122000D+00  0.501240D+00
   s     1 1.00
  0.122000D+00  0.100000D+01
   p     1 1.00
  0.727000D+00  0.100000D+01
  
[MO]
 Sym= __1_A__
 Ene=   1.00000000000000     
 Spin= Alpha
 Occup=    1.00000000000000     
                     1  1.672073689715945E-004
                     2  0.998503987861194     
                     3  4.795653332895881E-004
                     4  1.473863872010426E-003
                     5  6.094601802347306E-003
                     6  6.043889531794275E-003
                     7 -4.449012480550150E-003
                     8  5.777756382409234E-004
                     9 -8.481141347763628E-004
                    10  3.820748284471484E-004
                    11 -4.458289266032188E-005
                    12 -1.949272381594462E-003
                    13  3.066449576061684E-003
                    14 -4.618596683873990E-004
                    15 -7.897244654854584E-005
                    16 -2.915602844183836E-005
                    17 -3.229920035502650E-005
                    18  7.516539631556682E-005
                    19  1.266058000060866E-005
                    20 -3.198729561232604E-004
                    21  9.612667684476541E-005
                    22  2.096552630799954E-005
                    23  4.251511220551144E-005
                    24 -4.503807303777998E-004
                    25  5.400408038457534E-006
                    26 -8.607371115139305E-005
                    27 -4.470795384194770E-006
                    28 -6.916354967242618E-006
                    29  3.091640433506375E-006
                    30 -6.280351908817808E-005
                    31 -5.558408973126323E-005
                    32 -3.600882309232444E-004
                    33  5.188001468648909E-004
                    34  2.541564814382450E-004
                    35 -1.330058319086318E-004
                    36 -3.288108499600472E-003
                    37 -7.181457984753285E-005
                    38 -4.724731154246303E-005
                    39  2.187582974600333E-005
                    40 -3.133365273494605E-006
                    41  1.022836922736310E-004
                    42  5.096073933247738E-003
                    43  7.610197860357243E-004
                    44 -2.679010815880270E-004
                    45 -1.840147573468450E-004
                    46 -5.903793150913440E-006
                    47  2.707014621930368E-006
                    48  1.646450399808101E-004
                    49  4.075990597916796E-005
                    50  3.292793118919599E-004
                    51  1.304482337898819E-004
                    52 -1.752791370085638E-005
                    53 -8.607327409365337E-006
                    54 -3.451505421081460E-004
                    55  2.536919663780329E-006
                    56 -5.563322157848254E-005
                    57  5.330114926587052E-006
                    58  8.556809153519965E-006
                    59 -1.661076659252378E-008
                    60 -3.464762379811276E-005
                    61  4.293018987279413E-005
                    62 -4.043599639123173E-004
                    63 -1.714966322808021E-003
                    64  5.622864545802662E-005
                    65  1.144368471169853E-003
                    66  3.124919494727722E-004
                    67 -1.289280771683679E-004
                    68 -4.443811669833664E-004
                    69  5.614482661751996E-004
                    70  6.603567726696137E-005
                    71  2.041249537424229E-004
                    72 -3.520901544972852E-004
                    73 -3.267085526268726E-004
                    74 -1.089336922330943E-003
                    75 -5.225789287630464E-005
                    76 -1.637133581986485E-005
                    77  1.768326195290527E-005
                    78  6.088859369692348E-005
                    79 -9.366109319190915E-006
                    80  1.734142519936154E-004
                    81  8.309933501844861E-005
                    82 -3.779366798825459E-005
                    83 -8.451455898036262E-005
                    84  5.507913850651031E-005
                    85 -1.339800872413750E-005
                    86 -7.118957271394345E-005
                    87  1.816208793881907E-005
                    88 -1.025037890699480E-005
                    89  1.348304453956605E-005
                    90 -5.127363805976231E-005
                    91 -1.032573072399535E-005
                    92 -3.651966521187582E-004
                    93 -1.612493529716348E-003
                    94  1.061837537736459E-004
                    95  7.911090053290758E-004
                    96  3.595296074560501E-004
                    97 -1.438617779004957E-004
                    98  4.424919394180122E-004
                    99  5.342315180211041E-004
                   100  9.585693079134115E-005
                   101 -4.536186027829808E-005
                   102 -7.058863718290486E-004
                   103 -3.533560039766831E-004
                   104  8.923190436925130E-004
                   105 -5.870398486184249E-005
                   106  6.914342677813993E-006
                   107 -1.878477639398255E-005
                   108  5.564490834460438E-005
                   109 -1.163286272938128E-005
                   110  1.136867753198121E-004
                   111 -8.250690509887875E-005
                   112  3.015614738823267E-005
                   113 -8.681506422810224E-005
                   114  5.503440192673409E-005
                   115  7.715545268832317E-006
                   116 -5.508618701862959E-005
                   117  1.883984196260943E-005
                   118  8.730919910281961E-006
                   119 -1.030358171541364E-005
                   120 -4.451729833045106E-005
                   121 -9.910970000423749E-006
                   122 -2.155076745002978E-004
                   123 -4.930162598559139E-004
                   124  6.397705815545204E-005
                   125  6.053377827564086E-004
                   126 -3.811611397712994E-004
                   127 -7.636459221998162E-005
                   128  2.428649298066767E-006
                   129  2.565640555523725E-004
                   130 -2.364934314101309E-005
                   131  7.324107710711202E-005
                   132  1.030409311853116E-003
                   133  1.488514863790067E-004
                   134 -1.857567643263848E-004
                   135  1.104353714908431E-005
                   136 -1.868245492848370E-006
                   137 -4.915946369689839E-006
                   138 -3.874376329890252E-006
                   139  8.907690785095396E-006
                   140  9.412098669820345E-005
                   141  1.729566346842955E-004
                   142  9.344569193116025E-006
                   143 -2.137823972957112E-004
                   144 -1.147043244458429E-005
                   145 -1.105693095355859E-005
                   146 -1.778805222456025E-005
                   147  2.311847953810025E-006
                   148 -1.320397127920233E-006
                   149 -2.508529827917136E-006
                   150 -4.961674757885593E-005
                   151 -2.243931132538651E-006
                   152 -2.016251467708946E-004
                   153 -4.415853694801263E-004
                   154  5.086443158701276E-005
                   155  5.746473604189535E-004
                   156 -3.810550589366984E-004
                   157 -7.412005157314814E-005
                   158 -6.706845752278605E-006
                   159  1.961548954305182E-004
                   160 -3.011882675005885E-005
                   161 -4.672853748088675E-005
                   162  7.025259337003948E-004
                   163  1.644190199772639E-004
                   164  3.599611850221908E-004
                   165  6.814824728395342E-006
                   166  2.266089200313926E-006
                   167  4.829658470594270E-006
                   168  3.714315103397656E-007
                   169  1.060003267834293E-005
                   170  6.579212192371365E-005
                   171 -1.428798456983144E-004
                   172 -9.079882431613275E-006
                   173 -1.831904778868757E-004
                   174 -1.272800479157708E-005
                   175  6.437776393886757E-006
                   176 -1.622326338017591E-005
                   177  2.887393464423701E-006
                   178 -1.360227508903971E-006
                   179  2.497473441311957E-006
                   180 -4.244210233984216E-005
                   181 -3.518496625570302E-006
                   182 -1.337294381853175E-004
                   183 -4.109393869773149E-004
                   184  3.398951744814872E-005
                   185  1.791955157277767E-004
                   186 -2.831705583801642E-005
                   187 -8.241483533592175E-005
                   188 -5.864888984532355E-006
                   189  1.100985213015772E-004
                   190  1.983802633337632E-005
                   191  3.019593759596658E-005
                   192 -3.915786615633186E-004
                   193 -1.049301952609609E-004
                   194  1.863991479506156E-004
                   195 -7.186932336596173E-006
                   196  3.792640941124293E-007
                   197  5.546996619990450E-007
                   198  2.855773505282536E-006
                   199 -1.479163638927203E-006
                   200 -1.103652818325385E-004
                   201 -2.437772652128606E-005
                   202 -1.167998846170492E-006
                   203  5.040477060133558E-005
                   204  1.907799147821022E-005
                   205  5.591458037798213E-007
                   206  4.681543476067827E-006
                   207  2.812785343066937E-006
                   208  1.741704749104084E-006
                   209 -6.616015316567004E-009
                   210 -5.995274612902867E-006
                   211 -3.257343989294623E-006
                   212  3.930939452197340E-004
                   213 -6.503881977116875E-004
                   214  1.076971295212875E-004
                   215  2.102549373285453E-004
                   216  1.879443027701545E-004
                   217  1.172167445236232E-003
                   218 -1.350865769943511E-003
                   219  1.462556292377444E-004
                   220  2.648748238355112E-004
                   221 -2.913672689269524E-004
                   222 -3.299783521187297E-004
                   223 -5.085791582119219E-004
                   224 -5.966405942269251E-005
                   225  8.610057199818057E-006
                   226  4.233198201896225E-005
                   227 -3.208048546372879E-004
                   228 -4.527550654223661E-004
                   229 -5.239300315965296E-005
                   230  9.919568880950931E-006
                   231 -4.385947587943249E-005
                   232 -5.121645222154452E-005
                   233 -4.859803793933197E-004
                   234  9.494910368316590E-007
                   235 -1.867546610506242E-006
                   236 -4.510760054941355E-006
                   237 -6.326641075687772E-005
                   238 -4.771249566598983E-004
                   239  9.857824110530598E-007
                   240 -2.565739438785902E-006
                   241  4.758240601994691E-006
                   242 -9.469069926111646E-006
                   243  1.199397647497849E-004
                   244  3.063487421055823E-005
                   245  1.132719772183268E-006
                   246 -3.462357919082870E-007
 Sym= __2_A__
 Ene=   2.00000000000000     
 Spin= Alpha
 Occup=    1.00000000000000     
                     1 -3.180954860036349E-005
                     2 -1.193409032306232E-004
                     3  2.279970933180386E-003
                     4 -6.856376772966926E-007
                     5  1.190167341147743E-003
                     6  2.107450177662653E-003
                     7  7.834726007600567E-005
                     8 -1.025724637106290E-004
                     9 -1.388879024833195E-004
                    10  9.432484331099947E-005
                    11 -1.150818469499343E-005
                    12 -9.363397465325943E-007
                    13  3.693425313850854E-005
                    14  1.425737584513145E-005
                    15 -7.394794824854261E-005
                    16 -1.919293378247660E-006
                    17 -1.759733317406374E-007
                    18  4.211676693782150E-005
                    19 -8.230074744764410E-006
                    20  1.450247062242369E-004
                    21  1.548918528462657E-005
                    22  1.800995687952474E-006
                    23  1.018367851063758E-004
                    24 -1.945297791657338E-005
                    25 -4.605365097952290E-006
                    26  1.374605468820127E-004
                    27 -5.019601550318328E-005
                    28 -2.132381816539180E-006
                    29 -2.622929385860393E-006
                    30  1.216696798131429E-004
                    31  3.086740431046586E-005
                    32   1.00094251657675     
                    33  8.882067232611182E-003
                    34  2.785447680947833E-003
                    35 -8.235079685166282E-003
                    36 -2.691783189523662E-003
                    37  6.111962654919307E-004
                    38  1.941440539000028E-005
                    39  9.613368560552413E-004
                    40 -2.445064632431087E-004
                    41 -2.797832211664229E-005
                    42  3.503828925129807E-003
                    43 -1.265631913687302E-004
                    44  1.275900162191457E-005
                    45  2.853211130017728E-004
                    46 -4.004613208943724E-006
                    47  2.736980056145583E-007
                    48  4.257161532059452E-004
                    49 -2.725207619023202E-005
                    50 -1.048108897918164E-003
                    51  1.296403053587757E-005
                    52 -1.739451334230435E-006
                    53 -1.014425657393003E-004
                    54  4.731372698784294E-005
                    55  3.565152948081693E-007
                    56  3.137154721209409E-004
                    57 -8.379001938522358E-006
                    58 -2.023970481966094E-006
                    59 -1.528288423320248E-006
                    60  9.209397436830943E-005
                    61  1.491541218950646E-005
                    62  1.293337196045831E-002
                    63 -1.900764526720781E-003
                    64 -3.086956616254205E-004
                    65  3.149521713189890E-003
                    66 -9.997693162128684E-005
                    67  8.511650100419179E-005
                    68  2.177587331515825E-004
                    69  3.082438542458796E-005
                    70 -1.117401859122919E-006
                    71  5.405605751816470E-004
                    72  1.443861206264668E-004
                    73 -2.860063523454166E-005
                    74 -1.833041986052740E-003
                    75 -1.381859468550645E-005
                    76  2.290277999940650E-005
                    77  7.219309236302030E-006
                    78 -3.376558858454724E-005
                    79 -3.856935646270960E-006
                    80 -4.074758333592557E-004
                    81 -4.498826256552662E-004
                    82 -4.710951002303012E-006
                    83  7.527116722807930E-004
                    84 -2.161187077497540E-006
                    85  5.046578057673888E-005
                    86  1.106398669542372E-004
                    87 -3.656324851918146E-007
                    88 -1.697748172043997E-005
                    89 -6.457492801888101E-006
                    90 -3.053251592741934E-005
                    91  4.567828166927417E-006
                    92  1.363627904718017E-002
                    93 -1.901015730812473E-003
                    94 -3.082951410177083E-004
                    95  3.148476201075196E-003
                    96 -9.868486582955011E-005
                    97  8.328228281982956E-005
                    98 -2.100319738688465E-004
                    99  2.256717055772456E-005
                   100  6.123699128786908E-007
                   101 -5.415511156472733E-004
                   102  1.587576537545588E-004
                   103 -2.658264422397859E-005
                   104  1.837774558802363E-003
                   105 -1.261575696104339E-005
                   106 -2.321097313380464E-005
                   107 -7.111904789868045E-006
                   108 -3.403008145839538E-005
                   109 -3.735335118354363E-006
                   110 -4.114815422523439E-004
                   111  4.575292972139474E-004
                   112  3.053027478605647E-006
                   113  7.573317946537594E-004
                   114 -4.317769107851932E-006
                   115 -5.033297858650867E-005
                   116  1.107751949887926E-004
                   117  5.780116665396260E-008
                   118  1.593052144627560E-005
                   119  6.918132950555787E-006
                   120 -2.985895544651925E-005
                   121  4.589352268614188E-006
                   122 -1.240710925236626E-004
                   123 -6.916692292741867E-004
                   124  2.515779457379155E-004
                   125 -3.099386541327722E-004
                   126 -2.286266613745070E-004
                   127  1.221353905312860E-005
                   128 -3.820168755058873E-005
                   129  6.030924989239978E-004
                   130 -5.154901156715261E-007
                   131  3.018481226036645E-005
                   132  5.835503854730649E-004
                   133  7.221688648324002E-006
                   134  3.274812740552723E-004
                   135 -3.851722741118442E-007
                   136  4.226290142285939E-005
                   137  1.241055249930316E-007
                   138 -3.329919272088396E-005
                   139 -9.615972291018278E-007
                   140  1.906376755756575E-004
                   141 -2.470867209004998E-004
                   142  1.756062567671513E-006
                   143 -2.640145522645324E-004
                   144 -4.010885862555530E-006
                   145 -1.879328936132951E-005
                   146  1.475840931217732E-005
                   147  3.449939678559379E-009
                   148 -1.430181809855822E-005
                   149 -1.959467481386128E-006
                   150 -2.631428610992550E-005
                   151 -6.497349315717236E-007
                   152 -1.097862156276622E-004
                   153 -6.955781154125879E-004
                   154  2.511058476989315E-004
                   155 -3.076836482684653E-004
                   156 -2.261095100445557E-004
                   157  1.110801758986401E-005
                   158  3.799822935784094E-005
                   159  6.024254041248620E-004
                   160 -1.152706740354930E-007