[Molden Format]
[Atoms] AU
  N     1    7     0.0000000000   -4.2907334100    0.0000000000        
  C     2    6     0.0000000000   -1.7772236300    0.0000000000        
  C     3    6    -2.3389203600   -0.4111016300    0.0000000000        
  C     4    6     2.3389203600   -0.4111016300    0.0000000000        
  C     5    6    -2.2998668500    2.1639215300    0.0000000000        
  C     6    6     2.2998668500    2.1639215300    0.0000000000        
  C     7    6     0.0000000000    3.4755251800    0.0000000000        
  H     8    1    -2.7341110200   -5.9774504400    0.0000000000        
  H     9    1     2.4124509000   -5.7790131500    0.0000000000        
  H    10    1    -4.0745407300   -1.4447408500    0.0000000000        
  H    11    1     4.0745407300   -1.4447408500    0.0000000000        
  H    12    1    -4.0420632100    3.1963889500    0.0000000000        
  H    13    1     4.0420632100    3.1963889500    0.0000000000        
  H    14    1     0.0000000000    5.5020335600    0.0000000000        
[5D]
[7F]
[GTO]
  1  0
   s    12 1.00
  0.114200D+05  0.172695D-04
  0.171200D+04  0.134411D-03
  0.389300D+03  0.694561D-03
  0.110000D+03  0.278531D-02
  0.355700D+02  0.863457D-02
  0.125400D+02  0.199805D-01
  0.464400D+01  0.262908D-01
  0.129300D+01 -0.243845D-01
  0.511800D+00 -0.924934D-01
  0.178700D+00 -0.339683D+00
  0.246240D-01  0.345111D+00
  0.112530D-01  0.752750D+00
   s    10 1.00
  0.114200D+05  0.523000D-03
  0.171200D+04  0.404500D-02
  0.389300D+03  0.207750D-01
  0.110000D+03  0.807269D-01
  0.355700D+02  0.233074D+00
  0.125400D+02  0.433501D+00
  0.464400D+01  0.347472D+00
  0.129300D+01  0.412620D-01
  0.511800D+00 -0.850799D-02
  0.178700D+00  0.238400D-02
   s    10 1.00
  0.114200D+05 -0.115000D-03
  0.171200D+04 -0.895000D-03
  0.389300D+03 -0.462400D-02
  0.110000D+03 -0.185280D-01
  0.355700D+02 -0.573390D-01
  0.125400D+02 -0.132076D+00
  0.464400D+01 -0.172510D+00
  0.129300D+01  0.151814D+00
  0.511800D+00  0.599944D+00
  0.178700D+00  0.387462D+00
   s     1 1.00
  0.129300D+01  0.100000D+01
   s     1 1.00
  0.178700D+00  0.100000D+01
   p     5 1.00
  0.266300D+02  0.146700D-01
  0.594800D+01  0.917640D-01
  0.174200D+01  0.298683D+00
  0.555000D+00  0.498487D+00
  0.172500D+00  0.337023D+00
   p     1 1.00
  0.174200D+01  0.100000D+01
   p     1 1.00
  0.555000D+00  0.100000D+01
   d     1 1.00
  0.165400D+01  0.100000D+01
   d     1 1.00
  0.469000D+00  0.100000D+01
   f     1 1.00
  0.109300D+01  0.100000D+01
  
  2  0
   s    10 1.00
  0.823600D+04  0.531000D-03
  0.123500D+04  0.410800D-02
  0.280800D+03  0.210870D-01
  0.792700D+02  0.818530D-01
  0.255900D+02  0.234817D+00
  0.899700D+01  0.434401D+00
  0.331900D+01  0.346129D+00
  0.905900D+00  0.393780D-01
  0.364300D+00 -0.898300D-02
  0.128500D+00  0.238500D-02
   s    10 1.00
  0.823600D+04 -0.113000D-03
  0.123500D+04 -0.878000D-03
  0.280800D+03 -0.454000D-02
  0.792700D+02 -0.181330D-01
  0.255900D+02 -0.557600D-01
  0.899700D+01 -0.126895D+00
  0.331900D+01 -0.170352D+00
  0.905900D+00  0.140382D+00
  0.364300D+00  0.598684D+00
  0.128500D+00  0.395389D+00
   s     1 1.00
  0.905900D+00  0.100000D+01
   s     1 1.00
  0.364300D+00  0.100000D+01
   p     5 1.00
  0.187100D+02  0.140310D-01
  0.413300D+01  0.868660D-01
  0.120000D+01  0.290216D+00
  0.382700D+00  0.501008D+00
  0.120900D+00  0.343406D+00
   p     1 1.00
  0.382700D+00  0.100000D+01
   p     1 1.00
  0.120900D+00  0.100000D+01
   d     1 1.00
  0.109700D+01  0.100000D+01
   d     1 1.00
  0.318000D+00  0.100000D+01
   f     1 1.00
  0.761000D+00  0.100000D+01
  
  3  0
   s    10 1.00
  0.823600D+04  0.531000D-03
  0.123500D+04  0.410800D-02
  0.280800D+03  0.210870D-01
  0.792700D+02  0.818530D-01
  0.255900D+02  0.234817D+00
  0.899700D+01  0.434401D+00
  0.331900D+01  0.346129D+00
  0.905900D+00  0.393780D-01
  0.364300D+00 -0.898300D-02
  0.128500D+00  0.238500D-02
   s    10 1.00
  0.823600D+04 -0.113000D-03
  0.123500D+04 -0.878000D-03
  0.280800D+03 -0.454000D-02
  0.792700D+02 -0.181330D-01
  0.255900D+02 -0.557600D-01
  0.899700D+01 -0.126895D+00
  0.331900D+01 -0.170352D+00
  0.905900D+00  0.140382D+00
  0.364300D+00  0.598684D+00
  0.128500D+00  0.395389D+00
   s     1 1.00
  0.905900D+00  0.100000D+01
   s     1 1.00
  0.364300D+00  0.100000D+01
   p     5 1.00
  0.187100D+02  0.140310D-01
  0.413300D+01  0.868660D-01
  0.120000D+01  0.290216D+00
  0.382700D+00  0.501008D+00
  0.120900D+00  0.343406D+00
   p     1 1.00
  0.382700D+00  0.100000D+01
   p     1 1.00
  0.120900D+00  0.100000D+01
   d     1 1.00
  0.109700D+01  0.100000D+01
   d     1 1.00
  0.318000D+00  0.100000D+01
   f     1 1.00
  0.761000D+00  0.100000D+01
  
  4  0
   s    10 1.00
  0.823600D+04  0.531000D-03
  0.123500D+04  0.410800D-02
  0.280800D+03  0.210870D-01
  0.792700D+02  0.818530D-01
  0.255900D+02  0.234817D+00
  0.899700D+01  0.434401D+00
  0.331900D+01  0.346129D+00
  0.905900D+00  0.393780D-01
  0.364300D+00 -0.898300D-02
  0.128500D+00  0.238500D-02
   s    10 1.00
  0.823600D+04 -0.113000D-03
  0.123500D+04 -0.878000D-03
  0.280800D+03 -0.454000D-02
  0.792700D+02 -0.181330D-01
  0.255900D+02 -0.557600D-01
  0.899700D+01 -0.126895D+00
  0.331900D+01 -0.170352D+00
  0.905900D+00  0.140382D+00
  0.364300D+00  0.598684D+00
  0.128500D+00  0.395389D+00
   s     1 1.00
  0.905900D+00  0.100000D+01
   s     1 1.00
  0.364300D+00  0.100000D+01
   p     5 1.00
  0.187100D+02  0.140310D-01
  0.413300D+01  0.868660D-01
  0.120000D+01  0.290216D+00
  0.382700D+00  0.501008D+00
  0.120900D+00  0.343406D+00
   p     1 1.00
  0.382700D+00  0.100000D+01
   p     1 1.00
  0.120900D+00  0.100000D+01
   d     1 1.00
  0.109700D+01  0.100000D+01
   d     1 1.00
  0.318000D+00  0.100000D+01
   f     1 1.00
  0.761000D+00  0.100000D+01
  
  5  0
   s    10 1.00
  0.823600D+04  0.531000D-03
  0.123500D+04  0.410800D-02
  0.280800D+03  0.210870D-01
  0.792700D+02  0.818530D-01
  0.255900D+02  0.234817D+00
  0.899700D+01  0.434401D+00
  0.331900D+01  0.346129D+00
  0.905900D+00  0.393780D-01
  0.364300D+00 -0.898300D-02
  0.128500D+00  0.238500D-02
   s    10 1.00
  0.823600D+04 -0.113000D-03
  0.123500D+04 -0.878000D-03
  0.280800D+03 -0.454000D-02
  0.792700D+02 -0.181330D-01
  0.255900D+02 -0.557600D-01
  0.899700D+01 -0.126895D+00
  0.331900D+01 -0.170352D+00
  0.905900D+00  0.140382D+00
  0.364300D+00  0.598684D+00
  0.128500D+00  0.395389D+00
   s     1 1.00
  0.905900D+00  0.100000D+01
   s     1 1.00
  0.364300D+00  0.100000D+01
   p     5 1.00
  0.187100D+02  0.140310D-01
  0.413300D+01  0.868660D-01
  0.120000D+01  0.290216D+00
  0.382700D+00  0.501008D+00
  0.120900D+00  0.343406D+00
   p     1 1.00
  0.382700D+00  0.100000D+01
   p     1 1.00
  0.120900D+00  0.100000D+01
   d     1 1.00
  0.109700D+01  0.100000D+01
   d     1 1.00
  0.318000D+00  0.100000D+01
   f     1 1.00
  0.761000D+00  0.100000D+01
  
  6  0
   s    10 1.00
  0.823600D+04  0.531000D-03
  0.123500D+04  0.410800D-02
  0.280800D+03  0.210870D-01
  0.792700D+02  0.818530D-01
  0.255900D+02  0.234817D+00
  0.899700D+01  0.434401D+00
  0.331900D+01  0.346129D+00
  0.905900D+00  0.393780D-01
  0.364300D+00 -0.898300D-02
  0.128500D+00  0.238500D-02
   s    10 1.00
  0.823600D+04 -0.113000D-03
  0.123500D+04 -0.878000D-03
  0.280800D+03 -0.454000D-02
  0.792700D+02 -0.181330D-01
  0.255900D+02 -0.557600D-01
  0.899700D+01 -0.126895D+00
  0.331900D+01 -0.170352D+00
  0.905900D+00  0.140382D+00
  0.364300D+00  0.598684D+00
  0.128500D+00  0.395389D+00
   s     1 1.00
  0.905900D+00  0.100000D+01
   s     1 1.00
  0.364300D+00  0.100000D+01
   p     5 1.00
  0.187100D+02  0.140310D-01
  0.413300D+01  0.868660D-01
  0.120000D+01  0.290216D+00
  0.382700D+00  0.501008D+00
  0.120900D+00  0.343406D+00
   p     1 1.00
  0.382700D+00  0.100000D+01
   p     1 1.00
  0.120900D+00  0.100000D+01
   d     1 1.00
  0.109700D+01  0.100000D+01
   d     1 1.00
  0.318000D+00  0.100000D+01
   f     1 1.00
  0.761000D+00  0.100000D+01
  
  7  0
   s    10 1.00
  0.823600D+04  0.531000D-03
  0.123500D+04  0.410800D-02
  0.280800D+03  0.210870D-01
  0.792700D+02  0.818530D-01
  0.255900D+02  0.234817D+00
  0.899700D+01  0.434401D+00
  0.331900D+01  0.346129D+00
  0.905900D+00  0.393780D-01
  0.364300D+00 -0.898300D-02
  0.128500D+00  0.238500D-02
   s    10 1.00
  0.823600D+04 -0.113000D-03
  0.123500D+04 -0.878000D-03
  0.280800D+03 -0.454000D-02
  0.792700D+02 -0.181330D-01
  0.255900D+02 -0.557600D-01
  0.899700D+01 -0.126895D+00
  0.331900D+01 -0.170352D+00
  0.905900D+00  0.140382D+00
  0.364300D+00  0.598684D+00
  0.128500D+00  0.395389D+00
   s     1 1.00
  0.905900D+00  0.100000D+01
   s     1 1.00
  0.364300D+00  0.100000D+01
   p     5 1.00
  0.187100D+02  0.140310D-01
  0.413300D+01  0.868660D-01
  0.120000D+01  0.290216D+00
  0.382700D+00  0.501008D+00
  0.120900D+00  0.343406D+00
   p     1 1.00
  0.382700D+00  0.100000D+01
   p     1 1.00
  0.120900D+00  0.100000D+01
   d     1 1.00
  0.109700D+01  0.100000D+01
   d     1 1.00
  0.318000D+00  0.100000D+01
   f     1 1.00
  0.761000D+00  0.100000D+01
  
  8  0
   s     4 1.00
  0.130100D+02  0.196850D-01
  0.196200D+01  0.137977D+00
  0.444600D+00  0.478148D+00
  0.122000D+00  0.501240D+00
   s     1 1.00
  0.122000D+00  0.100000D+01
   p     1 1.00
  0.727000D+00  0.100000D+01
  
  9  0
   s     4 1.00
  0.130100D+02  0.196850D-01
  0.196200D+01  0.137977D+00
  0.444600D+00  0.478148D+00
  0.122000D+00  0.501240D+00
   s     1 1.00
  0.122000D+00  0.100000D+01
   p     1 1.00
  0.727000D+00  0.100000D+01
  
 10  0
   s     4 1.00
  0.130100D+02  0.196850D-01
  0.196200D+01  0.137977D+00
  0.444600D+00  0.478148D+00
  0.122000D+00  0.501240D+00
   s     1 1.00
  0.122000D+00  0.100000D+01
   p     1 1.00
  0.727000D+00  0.100000D+01
  
 11  0
   s     4 1.00
  0.130100D+02  0.196850D-01
  0.196200D+01  0.137977D+00
  0.444600D+00  0.478148D+00
  0.122000D+00  0.501240D+00
   s     1 1.00
  0.122000D+00  0.100000D+01
   p     1 1.00
  0.727000D+00  0.100000D+01
  
 12  0
   s     4 1.00
  0.130100D+02  0.196850D-01
  0.196200D+01  0.137977D+00
  0.444600D+00  0.478148D+00
  0.122000D+00  0.501240D+00
   s     1 1.00
  0.122000D+00  0.100000D+01
   p     1 1.00
  0.727000D+00  0.100000D+01
  
 13  0
   s     4 1.00
  0.130100D+02  0.196850D-01
  0.196200D+01  0.137977D+00
  0.444600D+00  0.478148D+00
  0.122000D+00  0.501240D+00
   s     1 1.00
  0.122000D+00  0.100000D+01
   p     1 1.00
  0.727000D+00  0.100000D+01
  
 14  0
   s     4 1.00
  0.130100D+02  0.196850D-01
  0.196200D+01  0.137977D+00
  0.444600D+00  0.478148D+00
  0.122000D+00  0.501240D+00
   s     1 1.00
  0.122000D+00  0.100000D+01
   p     1 1.00
  0.727000D+00  0.100000D+01
  
[MO]
 Sym= __1_a__
 Ene=  0.000000000000000E+000
 Spin= Alpha
 Occup=    2.00000000000000     
                     1  4.243849787227170E-005
                     2  0.998771353297408     
                     3  4.151833603979300E-004
                     4  1.165749673292050E-003
                     5  5.514100531925460E-003
                     6  3.030906176176280E-003
                     7  6.678224436433080E-003
                     8  0.000000000000000E+000
                     9 -7.288431558362690E-004
                    10 -6.994812873252990E-004
                    11  0.000000000000000E+000
                    12 -2.022313783911130E-003
                    13 -2.462026202560490E-003
                    14  0.000000000000000E+000
                    15 -1.815776860700536E-005
                    16  0.000000000000000E+000
                    17  0.000000000000000E+000
                    18 -2.600958157344400E-004
                    19  2.841823537736470E-006
                    20  8.831974277308441E-005
                    21  0.000000000000000E+000
                    22  0.000000000000000E+000
                    23 -2.001055384769460E-004
                    24  2.861868456913590E-004
                    25  0.000000000000000E+000
                    26 -1.108216052468732E-005
                    27 -3.942308176418896E-005
                    28  0.000000000000000E+000
                    29  0.000000000000000E+000
                    30  2.109113369803787E-005
                    31 -1.296737189598809E-004
                    32 -2.933080110762800E-004
                    33  8.504178564955880E-004
                    34  3.020115760985030E-004
                    35 -3.472894827736790E-004
                    36 -1.465199821479430E-004
                    37 -3.627258674502770E-003
                    38  0.000000000000000E+000
                    39  5.197486230050170E-004
                    40  3.129793042001950E-005
                    41  0.000000000000000E+000
                    42 -2.329626236612540E-003
                    43  5.667314140622010E-003
                    44  0.000000000000000E+000
                    45 -1.825292737156753E-005
                    46  0.000000000000000E+000
                    47  0.000000000000000E+000
                    48 -1.889593280640788E-004
                    49  1.652956322752230E-007
                    50 -2.187803015334918E-004
                    51  0.000000000000000E+000
                    52  0.000000000000000E+000
                    53 -1.376848814840684E-004
                    54  5.586951768772800E-004
                    55  0.000000000000000E+000
                    56 -1.387201620786355E-005
                    57 -4.879836213310932E-005
                    58  0.000000000000000E+000
                    59  0.000000000000000E+000
                    60  2.934388272077153E-006
                    61 -1.109494365278416E-004
                    62 -5.628425204091000E-004
                    63 -2.310619808025920E-003
                    64 -7.973164903427829E-005
                    65  2.214325118570420E-003
                    66 -5.292426855533620E-004
                    67  3.328019280482710E-004
                    68  0.000000000000000E+000
                    69  4.013012895550500E-004
                    70  7.155661155187090E-004
                    71  0.000000000000000E+000
                    72 -1.933424494432740E-003
                    73  6.948420604900020E-004
                    74  0.000000000000000E+000
                    75 -4.483514502060741E-005
                    76  0.000000000000000E+000
                    77  0.000000000000000E+000
                    78 -6.931657351587540E-005
                    79 -2.630137724638790E-005
                    80 -1.500537098947664E-004
                    81  0.000000000000000E+000
                    82  0.000000000000000E+000
                    83  1.024883763835532E-005
                    84 -7.764613840945370E-006
                    85  0.000000000000000E+000
                    86  2.489539561391650E-006
                    87 -4.182849861320677E-005
                    88  0.000000000000000E+000
                    89  0.000000000000000E+000
                    90 -7.881268713812414E-006
                    91 -1.523147032667900E-004
                    92 -1.662517313082160E-004
                    93 -9.171305295210910E-004
                    94  1.832232827828840E-004
                    95 -3.396274160371230E-005
                    96  3.999002310258160E-004
                    97  4.382320055245690E-004
                    98  0.000000000000000E+000
                    99  3.044511745233680E-004
                   100  1.979207940829620E-004
                   101  0.000000000000000E+000
                   102  7.062793711442740E-004
                   103 -1.474157616704870E-003
                   104  0.000000000000000E+000
                   105 -1.588577132509327E-005
                   106  0.000000000000000E+000
                   107  0.000000000000000E+000
                   108 -4.702368671752380E-005
                   109 -1.196116514114540E-005
                   110  1.499070825460711E-004
                   111  0.000000000000000E+000
                   112  0.000000000000000E+000
                   113 -1.080093234236824E-004
                   114  2.007467781803840E-005
                   115  0.000000000000000E+000
                   116 -2.534215706640709E-005
                   117 -3.343490540382854E-005
                   118  0.000000000000000E+000
                   119  0.000000000000000E+000
                   120  1.360449139116943E-005
                   121 -3.327375082281416E-005
                   122 -3.177920737960500E-004
                   123 -7.845770905758260E-004
                   124  1.659962927671610E-004
                   125  5.450409845186040E-004
                   126 -3.062397713770290E-005
                   127 -4.245078723045330E-004
                   128  0.000000000000000E+000
                   129  2.552351696195230E-004
                   130  5.887128517201940E-004
                   131  0.000000000000000E+000
                   132  3.440342529809830E-004
                   133  2.092780999445250E-003
                   134  0.000000000000000E+000
                   135  6.167876808145267E-006
                   136  0.000000000000000E+000
                   137  0.000000000000000E+000
                   138  4.244879408631200E-005
                   139 -2.676200695325550E-006
                   140  2.148604936873749E-004
                   141  0.000000000000000E+000
                   142  0.000000000000000E+000
                   143  3.569520190644620E-004
                   144  2.268905311264800E-004
                   145  0.000000000000000E+000
                   146 -9.893737370590695E-006
                   147 -5.946482002222079E-005
                   148  0.000000000000000E+000
                   149  0.000000000000000E+000
                   150 -1.735449352725362E-005
                   151 -4.636161397015228E-005
                   152 -2.255155134528870E-004
                   153 -5.184117374344540E-004
                   154  3.493188252696780E-005
                   155  5.543787505127470E-004
                   156 -1.919903353993570E-005
                   157 -3.320122879184340E-004
                   158  0.000000000000000E+000
                   159  2.315600393223810E-006
                   160  1.653419535046210E-005
                   161  0.000000000000000E+000
                   162  6.853097083043690E-004
                   163 -2.477354576625170E-004
                   164  0.000000000000000E+000
                   165 -4.628969194303861E-006
                   166  0.000000000000000E+000
                   167  0.000000000000000E+000
                   168 -4.893773395755540E-006
                   169  8.625631091045839E-006
                   170  6.187198165250958E-005
                   171  0.000000000000000E+000
                   172  0.000000000000000E+000
                   173  5.535789653093520E-006
                   174 -1.789399361343900E-005
                   175  0.000000000000000E+000
                   176  5.650419539294113E-006
                   177 -8.908404952760666E-006
                   178  0.000000000000000E+000
                   179  0.000000000000000E+000
                   180 -2.367778703709113E-005
                   181 -9.158824673019793E-006
                   182 -1.998022752800130E-004
                   183 -5.929708011813450E-004
                   184  6.083133143683280E-005
                   185  3.142366289654590E-004
                   186 -3.880219722262120E-005
                   187 -4.488564427277170E-005
                   188  0.000000000000000E+000
                   189  2.053224581495090E-004
                   190  7.358977092467420E-005
                   191  0.000000000000000E+000
                   192  1.308875014408210E-003
                   193 -2.091054759363770E-004
                   194  0.000000000000000E+000
                   195 -1.554429908998954E-006
                   196  0.000000000000000E+000
                   197  0.000000000000000E+000
                   198 -1.194876926734076E-005
                   199  6.511722902033880E-006
                   200  2.986570415723189E-005
                   201  0.000000000000000E+000
                   202  0.000000000000000E+000
                   203 -8.854405885264720E-005
                   204 -1.883476040186960E-004
                   205  0.000000000000000E+000
                   206 -6.622690447202943E-006
                   207 -6.920809450578567E-006
                   208  0.000000000000000E+000
                   209  0.000000000000000E+000
                   210  1.091098748086617E-005
                   211  6.465848895943720E-007
                   212 -6.095129803872600E-005
                   213  1.257133005911690E-004
                   214  1.085297751975600E-004
                   215  9.791786621168120E-005
                   216  0.000000000000000E+000
                   217 -6.839941757144590E-004
                   218 -1.856012120937450E-004
                   219 -1.306274387093540E-004
                   220  5.167362028525980E-005
                   221  0.000000000000000E+000
                   222 -3.241405780722990E-004
                   223 -7.507909768590210E-004
                   224  6.266309376847990E-006
                   225 -6.695355324048549E-005
                   226  0.000000000000000E+000
                   227 -1.257482285707310E-004
                   228 -6.429616621554870E-004
                   229 -1.166292006065070E-005
                   230 -2.159974648488960E-005
                   231  0.000000000000000E+000
                   232 -1.407041546135380E-005
                   233 -5.973671186521660E-004
                   234  8.060397651924021E-006
                   235 -7.792689588849161E-006
                   236  0.000000000000000E+000
                   237 -1.055699587027610E-004
                   238 -3.834572616450060E-004
                   239  7.525409765201930E-006
                   240  2.833460550256650E-006
                   241  0.000000000000000E+000
                   242  6.708124501683500E-006
                   243 -1.670855907551980E-005
                   244  9.204050471226080E-007
                   245  2.314546661205160E-005
                   246  0.000000000000000E+000
 Sym= __2_a__
 Ene=  0.000000000000000E+000
 Spin= Alpha
 Occup=    2.00000000000000     
                     1 -5.833468052728960E-005
                     2 -3.580710545228220E-004
                     3  3.164511492048530E-003
                     4  1.739899807576470E-004
                     5  1.334350758897380E-003
                     6 -6.597310004684579E-005
                     7  2.774422092642610E-003
                     8  0.000000000000000E+000
                     9 -1.464705018450920E-005
                    10 -1.421260756300900E-004
                    11  0.000000000000000E+000
                    12  7.330207949312000E-006
                    13 -3.243281998039060E-004
                    14  0.000000000000000E+000
                    15  2.930506463780957E-005
                    16  0.000000000000000E+000
                    17  0.000000000000000E+000
                    18 -4.202078711996120E-005
                    19  1.054611412716470E-005
                    20 -1.018101237334952E-004
                    21  0.000000000000000E+000
                    22  0.000000000000000E+000
                    23  7.110589314257139E-005
                    24  7.956428810031139E-009
                    25  0.000000000000000E+000
                    26 -3.868024104432128E-006
                    27  8.477847205265176E-005
                    28  0.000000000000000E+000
                    29  0.000000000000000E+000
                    30 -1.246869787103154E-006
                    31  1.590575835249105E-004
                    32   1.00101217192860     
                    33  9.216592087397130E-003
                    34  2.757517107856630E-003
                    35 -8.168999136156020E-003
                    36 -8.928139075578300E-005
                    37 -3.584326210101010E-003
                    38  0.000000000000000E+000
                    39  1.467648558209870E-004
                    40  5.731708001936440E-004
                    41  0.000000000000000E+000
                    42  1.952058399975010E-005
                    43  4.220267045140670E-003
                    44  0.000000000000000E+000
                    45 -5.702855420953707E-004
                    46  0.000000000000000E+000
                    47  0.000000000000000E+000
                    48 -2.002389737030020E-004
                    49  4.706455509610010E-006
                    50  5.539528793740360E-004
                    51  0.000000000000000E+000
                    52  0.000000000000000E+000
                    53 -8.114135627478941E-004
                    54  3.789538830073940E-005
                    55  0.000000000000000E+000
                    56 -6.639805401400897E-006
                    57  9.246873195584165E-005
                    58  0.000000000000000E+000
                    59  0.000000000000000E+000
                    60  6.707780137114603E-006
                    61  3.902461642248016E-004
                    62  9.401882586025230E-003
                    63 -2.078665863948200E-003
                    64 -2.971402608875770E-004
                    65  3.049835327821360E-003
                    66 -2.963846480442880E-005
                    67  1.242251916958780E-004
                    68  0.000000000000000E+000
                    69  7.235026941467510E-004
                    70  2.986033949081470E-005
                    71  0.000000000000000E+000
                    72 -2.034174480056390E-003
                    73  6.881220791756711E-005
                    74  0.000000000000000E+000
                    75  2.785624393280453E-005
                    76  0.000000000000000E+000
                    77  0.000000000000000E+000
                    78 -2.237056406141980E-006
                    79  3.697968705184610E-006
                    80 -4.186783955040848E-004
                    81  0.000000000000000E+000
                    82  0.000000000000000E+000
                    83 -5.836728834707660E-004
                    84 -3.642008290391240E-004
                    85  0.000000000000000E+000
                    86  3.139905241303758E-005
                    87 -5.933540782975633E-005
                    88  0.000000000000000E+000
                    89  0.000000000000000E+000
                    90  4.855756322444350E-005
                    91  1.384392656662320E-004
                    92  9.579250805611599E-003
                    93 -2.034398110253570E-003
                    94 -2.760665338318460E-004
                    95  2.971318117713220E-003
                    96 -9.603308856360351E-006
                    97  7.947149490977980E-005
                    98  0.000000000000000E+000
                    99 -6.484489915063990E-004
                   100  8.505243579236470E-005
                   101  0.000000000000000E+000
                   102  2.036745532974740E-003
                   103  7.221462312172510E-005
                   104  0.000000000000000E+000
                   105  3.164017381183800E-005
                   106  0.000000000000000E+000
                   107  0.000000000000000E+000
                   108 -5.182252264090980E-006
                   109 -7.173445666633790E-006
                   110 -4.104360803985504E-004
                   111  0.000000000000000E+000
                   112  0.000000000000000E+000
                   113 -6.053083322811960E-004
                   114  3.400986117358910E-004
                   115  0.000000000000000E+000
                   116 -3.308884273207493E-005
                   117 -6.063313434302781E-005
                   118  0.000000000000000E+000
                   119  0.000000000000000E+000
                   120 -4.819020127408564E-005
                   121  1.378032407360682E-004
                   122 -1.465441179468670E-004
                   123 -6.675847737025730E-004
                   124  2.304829399708660E-004
                   125 -1.320896558931990E-004
                   126  1.122800831639400E-006
                   127 -3.499843158853330E-004
                   128  0.000000000000000E+000
                   129 -6.527585101657331E-005
                   130  5.507362528192830E-004
                   131  0.000000000000000E+000
                   132  3.221035129379860E-004
                   133  7.456358480584060E-004
                   134  0.000000000000000E+000
                   135  2.002172842120762E-005
                   136  0.000000000000000E+000
                   137  0.000000000000000E+000
                   138  4.166111026439340E-006
                   139  5.318196105811630E-005
                   140  1.376364828825971E-004
                   141  0.000000000000000E+000
                   142  0.000000000000000E+000
                   143  2.467694993157660E-004
                   144 -1.866332894806990E-004
                   145  0.000000000000000E+000
                   146  6.986167334811476E-006
                   147 -3.369207465267068E-005
                   148  0.000000000000000E+000
                   149  0.000000000000000E+000
                   150 -4.665776956837171E-005
                   151  2.718858438283394E-005
                   152 -1.519310500887720E-004
                   153 -6.793363801988730E-004
                   154  2.317386139970860E-004
                   155 -1.447768126613690E-004
                   156  2.531232205660350E-006
                   157 -3.380490206351870E-004
                   158  0.000000000000000E+000
                   159  5.682634684387230E-005
                   160  5.679809626546720E-004