[Molden Format]
[Atoms] AU
  N     1    7     0.0000000000   -4.2907334100    0.0000000000        
  C     2    6     0.0000000000   -1.7772236300    0.0000000000        
  C     3    6    -2.3389203600   -0.4111016300    0.0000000000        
  C     4    6     2.3389203600   -0.4111016300    0.0000000000        
  C     5    6    -2.2998668500    2.1639215300    0.0000000000        
  C     6    6     2.2998668500    2.1639215300    0.0000000000        
  C     7    6     0.0000000000    3.4755251800    0.0000000000        
  H     8    1    -2.7341110200   -5.9774504400    0.0000000000        
  H     9    1     2.4124509000   -5.7790131500    0.0000000000        
  H    10    1    -4.0745407300   -1.4447408500    0.0000000000        
  H    11    1     4.0745407300   -1.4447408500    0.0000000000        
  H    12    1    -4.0420632100    3.1963889500    0.0000000000        
  H    13    1     4.0420632100    3.1963889500    0.0000000000        
  H    14    1     0.0000000000    5.5020335600    0.0000000000        
[5D]
[7F]
[GTO]
  1  0
   s    12 1.00
  0.114200D+05  0.172695D-04
  0.171200D+04  0.134411D-03
  0.389300D+03  0.694561D-03
  0.110000D+03  0.278531D-02
  0.355700D+02  0.863457D-02
  0.125400D+02  0.199805D-01
  0.464400D+01  0.262908D-01
  0.129300D+01 -0.243845D-01
  0.511800D+00 -0.924934D-01
  0.178700D+00 -0.339683D+00
  0.246240D-01  0.345111D+00
  0.112530D-01  0.752750D+00
   s    10 1.00
  0.114200D+05  0.523000D-03
  0.171200D+04  0.404500D-02
  0.389300D+03  0.207750D-01
  0.110000D+03  0.807269D-01
  0.355700D+02  0.233074D+00
  0.125400D+02  0.433501D+00
  0.464400D+01  0.347472D+00
  0.129300D+01  0.412620D-01
  0.511800D+00 -0.850799D-02
  0.178700D+00  0.238400D-02
   s    10 1.00
  0.114200D+05 -0.115000D-03
  0.171200D+04 -0.895000D-03
  0.389300D+03 -0.462400D-02
  0.110000D+03 -0.185280D-01
  0.355700D+02 -0.573390D-01
  0.125400D+02 -0.132076D+00
  0.464400D+01 -0.172510D+00
  0.129300D+01  0.151814D+00
  0.511800D+00  0.599944D+00
  0.178700D+00  0.387462D+00
   s     1 1.00
  0.129300D+01  0.100000D+01
   s     1 1.00
  0.178700D+00  0.100000D+01
   p     5 1.00
  0.266300D+02  0.146700D-01
  0.594800D+01  0.917640D-01
  0.174200D+01  0.298683D+00
  0.555000D+00  0.498487D+00
  0.172500D+00  0.337023D+00
   p     1 1.00
  0.174200D+01  0.100000D+01
   p     1 1.00
  0.555000D+00  0.100000D+01
   d     1 1.00
  0.165400D+01  0.100000D+01
   d     1 1.00
  0.469000D+00  0.100000D+01
   f     1 1.00
  0.109300D+01  0.100000D+01
  
  2  0
   s    10 1.00
  0.823600D+04  0.531000D-03
  0.123500D+04  0.410800D-02
  0.280800D+03  0.210870D-01
  0.792700D+02  0.818530D-01
  0.255900D+02  0.234817D+00
  0.899700D+01  0.434401D+00
  0.331900D+01  0.346129D+00
  0.905900D+00  0.393780D-01
  0.364300D+00 -0.898300D-02
  0.128500D+00  0.238500D-02
   s    10 1.00
  0.823600D+04 -0.113000D-03
  0.123500D+04 -0.878000D-03
  0.280800D+03 -0.454000D-02
  0.792700D+02 -0.181330D-01
  0.255900D+02 -0.557600D-01
  0.899700D+01 -0.126895D+00
  0.331900D+01 -0.170352D+00
  0.905900D+00  0.140382D+00
  0.364300D+00  0.598684D+00
  0.128500D+00  0.395389D+00
   s     1 1.00
  0.905900D+00  0.100000D+01
   s     1 1.00
  0.364300D+00  0.100000D+01
   p     5 1.00
  0.187100D+02  0.140310D-01
  0.413300D+01  0.868660D-01
  0.120000D+01  0.290216D+00
  0.382700D+00  0.501008D+00
  0.120900D+00  0.343406D+00
   p     1 1.00
  0.382700D+00  0.100000D+01
   p     1 1.00
  0.120900D+00  0.100000D+01
   d     1 1.00
  0.109700D+01  0.100000D+01
   d     1 1.00
  0.318000D+00  0.100000D+01
   f     1 1.00
  0.761000D+00  0.100000D+01
  
  3  0
   s    10 1.00
  0.823600D+04  0.531000D-03
  0.123500D+04  0.410800D-02
  0.280800D+03  0.210870D-01
  0.792700D+02  0.818530D-01
  0.255900D+02  0.234817D+00
  0.899700D+01  0.434401D+00
  0.331900D+01  0.346129D+00
  0.905900D+00  0.393780D-01
  0.364300D+00 -0.898300D-02
  0.128500D+00  0.238500D-02
   s    10 1.00
  0.823600D+04 -0.113000D-03
  0.123500D+04 -0.878000D-03
  0.280800D+03 -0.454000D-02
  0.792700D+02 -0.181330D-01
  0.255900D+02 -0.557600D-01
  0.899700D+01 -0.126895D+00
  0.331900D+01 -0.170352D+00
  0.905900D+00  0.140382D+00
  0.364300D+00  0.598684D+00
  0.128500D+00  0.395389D+00
   s     1 1.00
  0.905900D+00  0.100000D+01
   s     1 1.00
  0.364300D+00  0.100000D+01
   p     5 1.00
  0.187100D+02  0.140310D-01
  0.413300D+01  0.868660D-01
  0.120000D+01  0.290216D+00
  0.382700D+00  0.501008D+00
  0.120900D+00  0.343406D+00
   p     1 1.00
  0.382700D+00  0.100000D+01
   p     1 1.00
  0.120900D+00  0.100000D+01
   d     1 1.00
  0.109700D+01  0.100000D+01
   d     1 1.00
  0.318000D+00  0.100000D+01
   f     1 1.00
  0.761000D+00  0.100000D+01
  
  4  0
   s    10 1.00
  0.823600D+04  0.531000D-03
  0.123500D+04  0.410800D-02
  0.280800D+03  0.210870D-01
  0.792700D+02  0.818530D-01
  0.255900D+02  0.234817D+00
  0.899700D+01  0.434401D+00
  0.331900D+01  0.346129D+00
  0.905900D+00  0.393780D-01
  0.364300D+00 -0.898300D-02
  0.128500D+00  0.238500D-02
   s    10 1.00
  0.823600D+04 -0.113000D-03
  0.123500D+04 -0.878000D-03
  0.280800D+03 -0.454000D-02
  0.792700D+02 -0.181330D-01
  0.255900D+02 -0.557600D-01
  0.899700D+01 -0.126895D+00
  0.331900D+01 -0.170352D+00
  0.905900D+00  0.140382D+00
  0.364300D+00  0.598684D+00
  0.128500D+00  0.395389D+00
   s     1 1.00
  0.905900D+00  0.100000D+01
   s     1 1.00
  0.364300D+00  0.100000D+01
   p     5 1.00
  0.187100D+02  0.140310D-01
  0.413300D+01  0.868660D-01
  0.120000D+01  0.290216D+00
  0.382700D+00  0.501008D+00
  0.120900D+00  0.343406D+00
   p     1 1.00
  0.382700D+00  0.100000D+01
   p     1 1.00
  0.120900D+00  0.100000D+01
   d     1 1.00
  0.109700D+01  0.100000D+01
   d     1 1.00
  0.318000D+00  0.100000D+01
   f     1 1.00
  0.761000D+00  0.100000D+01
  
  5  0
   s    10 1.00
  0.823600D+04  0.531000D-03
  0.123500D+04  0.410800D-02
  0.280800D+03  0.210870D-01
  0.792700D+02  0.818530D-01
  0.255900D+02  0.234817D+00
  0.899700D+01  0.434401D+00
  0.331900D+01  0.346129D+00
  0.905900D+00  0.393780D-01
  0.364300D+00 -0.898300D-02
  0.128500D+00  0.238500D-02
   s    10 1.00
  0.823600D+04 -0.113000D-03
  0.123500D+04 -0.878000D-03
  0.280800D+03 -0.454000D-02
  0.792700D+02 -0.181330D-01
  0.255900D+02 -0.557600D-01
  0.899700D+01 -0.126895D+00
  0.331900D+01 -0.170352D+00
  0.905900D+00  0.140382D+00
  0.364300D+00  0.598684D+00
  0.128500D+00  0.395389D+00
   s     1 1.00
  0.905900D+00  0.100000D+01
   s     1 1.00
  0.364300D+00  0.100000D+01
   p     5 1.00
  0.187100D+02  0.140310D-01
  0.413300D+01  0.868660D-01
  0.120000D+01  0.290216D+00
  0.382700D+00  0.501008D+00
  0.120900D+00  0.343406D+00
   p     1 1.00
  0.382700D+00  0.100000D+01
   p     1 1.00
  0.120900D+00  0.100000D+01
   d     1 1.00
  0.109700D+01  0.100000D+01
   d     1 1.00
  0.318000D+00  0.100000D+01
   f     1 1.00
  0.761000D+00  0.100000D+01
  
  6  0
   s    10 1.00
  0.823600D+04  0.531000D-03
  0.123500D+04  0.410800D-02
  0.280800D+03  0.210870D-01
  0.792700D+02  0.818530D-01
  0.255900D+02  0.234817D+00
  0.899700D+01  0.434401D+00
  0.331900D+01  0.346129D+00
  0.905900D+00  0.393780D-01
  0.364300D+00 -0.898300D-02
  0.128500D+00  0.238500D-02
   s    10 1.00
  0.823600D+04 -0.113000D-03
  0.123500D+04 -0.878000D-03
  0.280800D+03 -0.454000D-02
  0.792700D+02 -0.181330D-01
  0.255900D+02 -0.557600D-01
  0.899700D+01 -0.126895D+00
  0.331900D+01 -0.170352D+00
  0.905900D+00  0.140382D+00
  0.364300D+00  0.598684D+00
  0.128500D+00  0.395389D+00
   s     1 1.00
  0.905900D+00  0.100000D+01
   s     1 1.00
  0.364300D+00  0.100000D+01
   p     5 1.00
  0.187100D+02  0.140310D-01
  0.413300D+01  0.868660D-01
  0.120000D+01  0.290216D+00
  0.382700D+00  0.501008D+00
  0.120900D+00  0.343406D+00
   p     1 1.00
  0.382700D+00  0.100000D+01
   p     1 1.00
  0.120900D+00  0.100000D+01
   d     1 1.00
  0.109700D+01  0.100000D+01
   d     1 1.00
  0.318000D+00  0.100000D+01
   f     1 1.00
  0.761000D+00  0.100000D+01
  
  7  0
   s    10 1.00
  0.823600D+04  0.531000D-03
  0.123500D+04  0.410800D-02
  0.280800D+03  0.210870D-01
  0.792700D+02  0.818530D-01
  0.255900D+02  0.234817D+00
  0.899700D+01  0.434401D+00
  0.331900D+01  0.346129D+00
  0.905900D+00  0.393780D-01
  0.364300D+00 -0.898300D-02
  0.128500D+00  0.238500D-02
   s    10 1.00
  0.823600D+04 -0.113000D-03
  0.123500D+04 -0.878000D-03
  0.280800D+03 -0.454000D-02
  0.792700D+02 -0.181330D-01
  0.255900D+02 -0.557600D-01
  0.899700D+01 -0.126895D+00
  0.331900D+01 -0.170352D+00
  0.905900D+00  0.140382D+00
  0.364300D+00  0.598684D+00
  0.128500D+00  0.395389D+00
   s     1 1.00
  0.905900D+00  0.100000D+01
   s     1 1.00
  0.364300D+00  0.100000D+01
   p     5 1.00
  0.187100D+02  0.140310D-01
  0.413300D+01  0.868660D-01
  0.120000D+01  0.290216D+00
  0.382700D+00  0.501008D+00
  0.120900D+00  0.343406D+00
   p     1 1.00
  0.382700D+00  0.100000D+01
   p     1 1.00
  0.120900D+00  0.100000D+01
   d     1 1.00
  0.109700D+01  0.100000D+01
   d     1 1.00
  0.318000D+00  0.100000D+01
   f     1 1.00
  0.761000D+00  0.100000D+01
  
  8  0
   s     4 1.00
  0.130100D+02  0.196850D-01
  0.196200D+01  0.137977D+00
  0.444600D+00  0.478148D+00
  0.122000D+00  0.501240D+00
   s     1 1.00
  0.122000D+00  0.100000D+01
   p     1 1.00
  0.727000D+00  0.100000D+01
  
  9  0
   s     4 1.00
  0.130100D+02  0.196850D-01
  0.196200D+01  0.137977D+00
  0.444600D+00  0.478148D+00
  0.122000D+00  0.501240D+00
   s     1 1.00
  0.122000D+00  0.100000D+01
   p     1 1.00
  0.727000D+00  0.100000D+01
  
 10  0
   s     4 1.00
  0.130100D+02  0.196850D-01
  0.196200D+01  0.137977D+00
  0.444600D+00  0.478148D+00
  0.122000D+00  0.501240D+00
   s     1 1.00
  0.122000D+00  0.100000D+01
   p     1 1.00
  0.727000D+00  0.100000D+01
  
 11  0
   s     4 1.00
  0.130100D+02  0.196850D-01
  0.196200D+01  0.137977D+00
  0.444600D+00  0.478148D+00
  0.122000D+00  0.501240D+00
   s     1 1.00
  0.122000D+00  0.100000D+01
   p     1 1.00
  0.727000D+00  0.100000D+01
  
 12  0
   s     4 1.00
  0.130100D+02  0.196850D-01
  0.196200D+01  0.137977D+00
  0.444600D+00  0.478148D+00
  0.122000D+00  0.501240D+00
   s     1 1.00
  0.122000D+00  0.100000D+01
   p     1 1.00
  0.727000D+00  0.100000D+01
  
 13  0
   s     4 1.00
  0.130100D+02  0.196850D-01
  0.196200D+01  0.137977D+00
  0.444600D+00  0.478148D+00
  0.122000D+00  0.501240D+00
   s     1 1.00
  0.122000D+00  0.100000D+01
   p     1 1.00
  0.727000D+00  0.100000D+01
  
 14  0
   s     4 1.00
  0.130100D+02  0.196850D-01
  0.196200D+01  0.137977D+00
  0.444600D+00  0.478148D+00
  0.122000D+00  0.501240D+00
   s     1 1.00
  0.122000D+00  0.100000D+01
   p     1 1.00
  0.727000D+00  0.100000D+01
  
[MO]
 Sym= __1_A__
 Ene=   1.00000000000000     
 Spin= Alpha
 Occup=    1.00000000000000     
                     1  4.243849787227168E-005
                     2  0.998771353297408     
                     3  4.151833603979297E-004
                     4  1.165749673292051E-003
                     5  5.514100531925461E-003
                     6  3.030906176176284E-003
                     7  6.678224436433076E-003
                     8  0.000000000000000E+000
                     9 -7.288431558362691E-004
                    10 -6.994812873252987E-004
                    11  0.000000000000000E+000
                    12 -2.022313783911133E-003
                    13 -2.462026202560488E-003
                    14  0.000000000000000E+000
                    15 -1.815776860700537E-005
                    16  0.000000000000000E+000
                    17  0.000000000000000E+000
                    18 -2.600958157344398E-004
                    19  2.841823537736474E-006
                    20  8.831974277308438E-005
                    21  0.000000000000000E+000
                    22  0.000000000000000E+000
                    23 -2.001055384769464E-004
                    24  2.861868456913591E-004
                    25  0.000000000000000E+000
                    26 -1.108216052468733E-005
                    27 -3.942308176418898E-005
                    28  0.000000000000000E+000
                    29  0.000000000000000E+000
                    30  2.109113369803792E-005
                    31 -1.296737189598807E-004
                    32 -2.933080110762797E-004
                    33  8.504178564955876E-004
                    34  3.020115760985030E-004
                    35 -3.472894827736787E-004
                    36 -1.465199821479429E-004
                    37 -3.627258674502771E-003
                    38  0.000000000000000E+000
                    39  5.197486230050175E-004
                    40  3.129793042001950E-005
                    41  0.000000000000000E+000
                    42 -2.329626236612543E-003
                    43  5.667314140622005E-003
                    44  0.000000000000000E+000
                    45 -1.825292737156754E-005
                    46  0.000000000000000E+000
                    47  0.000000000000000E+000
                    48 -1.889593280640789E-004
                    49  1.652956322752228E-007
                    50 -2.187803015334918E-004
                    51  0.000000000000000E+000
                    52  0.000000000000000E+000
                    53 -1.376848814840683E-004
                    54  5.586951768772800E-004
                    55  0.000000000000000E+000
                    56 -1.387201620786359E-005
                    57 -4.879836213310934E-005
                    58  0.000000000000000E+000
                    59  0.000000000000000E+000
                    60  2.934388272077162E-006
                    61 -1.109494365278417E-004
                    62 -5.628425204091000E-004
                    63 -2.310619808025922E-003
                    64 -7.973164903427831E-005
                    65  2.214325118570423E-003
                    66 -5.292426855533623E-004
                    67  3.328019280482707E-004
                    68  0.000000000000000E+000
                    69  4.013012895550496E-004
                    70  7.155661155187088E-004
                    71  0.000000000000000E+000
                    72 -1.933424494432736E-003
                    73  6.948420604900017E-004
                    74  0.000000000000000E+000
                    75 -4.483514502060747E-005
                    76  0.000000000000000E+000
                    77  0.000000000000000E+000
                    78 -6.931657351587545E-005
                    79 -2.630137724638786E-005
                    80 -1.500537098947663E-004
                    81  0.000000000000000E+000
                    82  0.000000000000000E+000
                    83  1.024883763835533E-005
                    84 -7.764613840945375E-006
                    85  0.000000000000000E+000
                    86  2.489539561391651E-006
                    87 -4.182849861320677E-005
                    88  0.000000000000000E+000
                    89  0.000000000000000E+000
                    90 -7.881268713812420E-006
                    91 -1.523147032667901E-004
                    92 -1.662517313082155E-004
                    93 -9.171305295210910E-004
                    94  1.832232827828843E-004
                    95 -3.396274160371231E-005
                    96  3.999002310258160E-004
                    97  4.382320055245689E-004
                    98  0.000000000000000E+000
                    99  3.044511745233681E-004
                   100  1.979207940829616E-004
                   101  0.000000000000000E+000
                   102  7.062793711442738E-004
                   103 -1.474157616704868E-003
                   104  0.000000000000000E+000
                   105 -1.588577132509326E-005
                   106  0.000000000000000E+000
                   107  0.000000000000000E+000
                   108 -4.702368671752380E-005
                   109 -1.196116514114539E-005
                   110  1.499070825460712E-004
                   111  0.000000000000000E+000
                   112  0.000000000000000E+000
                   113 -1.080093234236823E-004
                   114  2.007467781803842E-005
                   115  0.000000000000000E+000
                   116 -2.534215706640712E-005
                   117 -3.343490540382853E-005
                   118  0.000000000000000E+000
                   119  0.000000000000000E+000
                   120  1.360449139116943E-005
                   121 -3.327375082281417E-005
                   122 -3.177920737960505E-004
                   123 -7.845770905758261E-004
                   124  1.659962927671615E-004
                   125  5.450409845186043E-004
                   126 -3.062397713770289E-005
                   127 -4.245078723045326E-004
                   128  0.000000000000000E+000
                   129  2.552351696195227E-004
                   130  5.887128517201944E-004
                   131  0.000000000000000E+000
                   132  3.440342529809835E-004
                   133  2.092780999445245E-003
                   134  0.000000000000000E+000
                   135  6.167876808145280E-006
                   136  0.000000000000000E+000
                   137  0.000000000000000E+000
                   138  4.244879408631204E-005
                   139 -2.676200695325551E-006
                   140  2.148604936873749E-004
                   141  0.000000000000000E+000
                   142  0.000000000000000E+000
                   143  3.569520190644610E-004
                   144  2.268905311264795E-004
                   145  0.000000000000000E+000
                   146 -9.893737370590676E-006
                   147 -5.946482002222083E-005
                   148  0.000000000000000E+000
                   149  0.000000000000000E+000
                   150 -1.735449352725366E-005
                   151 -4.636161397015226E-005
                   152 -2.255155134528875E-004
                   153 -5.184117374344542E-004
                   154  3.493188252696781E-005
                   155  5.543787505127472E-004
                   156 -1.919903353993574E-005
                   157 -3.320122879184339E-004
                   158  0.000000000000000E+000
                   159  2.315600393223808E-006
                   160  1.653419535046212E-005
                   161  0.000000000000000E+000
                   162  6.853097083043691E-004
                   163 -2.477354576625174E-004
                   164  0.000000000000000E+000
                   165 -4.628969194303872E-006
                   166  0.000000000000000E+000
                   167  0.000000000000000E+000
                   168 -4.893773395755534E-006
                   169  8.625631091045839E-006
                   170  6.187198165250962E-005
                   171  0.000000000000000E+000
                   172  0.000000000000000E+000
                   173  5.535789653093524E-006
                   174 -1.789399361343899E-005
                   175  0.000000000000000E+000
                   176  5.650419539294109E-006
                   177 -8.908404952760684E-006
                   178  0.000000000000000E+000
                   179  0.000000000000000E+000
                   180 -2.367778703709107E-005
                   181 -9.158824673019793E-006
                   182 -1.998022752800133E-004
                   183 -5.929708011813446E-004
                   184  6.083133143683280E-005
                   185  3.142366289654591E-004
                   186 -3.880219722262124E-005
                   187 -4.488564427277168E-005
                   188  0.000000000000000E+000
                   189  2.053224581495094E-004
                   190  7.358977092467416E-005
                   191  0.000000000000000E+000
                   192  1.308875014408210E-003
                   193 -2.091054759363766E-004
                   194  0.000000000000000E+000
                   195 -1.554429908998955E-006
                   196  0.000000000000000E+000
                   197  0.000000000000000E+000
                   198 -1.194876926734076E-005
                   199  6.511722902033877E-006
                   200  2.986570415723189E-005
                   201  0.000000000000000E+000
                   202  0.000000000000000E+000
                   203 -8.854405885264728E-005
                   204 -1.883476040186956E-004
                   205  0.000000000000000E+000
                   206 -6.622690447202911E-006
                   207 -6.920809450578562E-006
                   208  0.000000000000000E+000
                   209  0.000000000000000E+000
                   210  1.091098748086618E-005
                   211  6.465848895943715E-007
                   212 -6.095129803872596E-005
                   213  1.257133005911691E-004
                   214  1.085297751975605E-004
                   215  9.791786621168120E-005
                   216  0.000000000000000E+000
                   217 -6.839941757144588E-004
                   218 -1.856012120937447E-004
                   219 -1.306274387093536E-004
                   220  5.167362028525981E-005
                   221  0.000000000000000E+000
                   222 -3.241405780722994E-004
                   223 -7.507909768590206E-004
                   224  6.266309376847988E-006
                   225 -6.695355324048547E-005
                   226  0.000000000000000E+000
                   227 -1.257482285707306E-004
                   228 -6.429616621554874E-004
                   229 -1.166292006065068E-005
                   230 -2.159974648488962E-005
                   231  0.000000000000000E+000
                   232 -1.407041546135376E-005
                   233 -5.973671186521657E-004
                   234  8.060397651924016E-006
                   235 -7.792689588849157E-006
                   236  0.000000000000000E+000
                   237 -1.055699587027608E-004
                   238 -3.834572616450059E-004
                   239  7.525409765201935E-006
                   240  2.833460550256654E-006
                   241  0.000000000000000E+000
                   242  6.708124501683501E-006
                   243 -1.670855907551978E-005
                   244  9.204050471226080E-007
                   245  2.314546661205161E-005
                   246  0.000000000000000E+000
 Sym= __2_A__
 Ene=   2.00000000000000     
 Spin= Alpha
 Occup=    1.00000000000000     
                     1 -5.833468052728963E-005
                     2 -3.580710545228216E-004
                     3  3.164511492048528E-003
                     4  1.739899807576467E-004
                     5  1.334350758897380E-003
                     6 -6.597310004684578E-005
                     7  2.774422092642614E-003
                     8  0.000000000000000E+000
                     9 -1.464705018450919E-005
                    10 -1.421260756300900E-004
                    11  0.000000000000000E+000
                    12  7.330207949312003E-006
                    13 -3.243281998039059E-004
                    14  0.000000000000000E+000
                    15  2.930506463780957E-005
                    16  0.000000000000000E+000
                    17  0.000000000000000E+000
                    18 -4.202078711996124E-005
                    19  1.054611412716468E-005
                    20 -1.018101237334953E-004
                    21  0.000000000000000E+000
                    22  0.000000000000000E+000
                    23  7.110589314257133E-005
                    24  7.956428810031143E-009
                    25  0.000000000000000E+000
                    26 -3.868024104432127E-006
                    27  8.477847205265164E-005
                    28  0.000000000000000E+000
                    29  0.000000000000000E+000
                    30 -1.246869787103154E-006
                    31  1.590575835249103E-004
                    32   1.00101217192860     
                    33  9.216592087397130E-003
                    34  2.757517107856631E-003
                    35 -8.168999136156017E-003
                    36 -8.928139075578298E-005
                    37 -3.584326210101009E-003
                    38  0.000000000000000E+000
                    39  1.467648558209873E-004
                    40  5.731708001936439E-004
                    41  0.000000000000000E+000
                    42  1.952058399975010E-005
                    43  4.220267045140674E-003
                    44  0.000000000000000E+000
                    45 -5.702855420953714E-004
                    46  0.000000000000000E+000
                    47  0.000000000000000E+000
                    48 -2.002389737030010E-004
                    49  4.706455509610007E-006
                    50  5.539528793740342E-004
                    51  0.000000000000000E+000
                    52  0.000000000000000E+000
                    53 -8.114135627478946E-004
                    54  3.789538830073936E-005
                    55  0.000000000000000E+000
                    56 -6.639805401400867E-006
                    57  9.246873195584139E-005
                    58  0.000000000000000E+000
                    59  0.000000000000000E+000
                    60  6.707780137114605E-006
                    61  3.902461642248017E-004
                    62  9.401882586025227E-003
                    63 -2.078665863948199E-003
                    64 -2.971402608875766E-004
                    65  3.049835327821356E-003
                    66 -2.963846480442879E-005
                    67  1.242251916958781E-004
                    68  0.000000000000000E+000
                    69  7.235026941467508E-004
                    70  2.986033949081471E-005
                    71  0.000000000000000E+000
                    72 -2.034174480056392E-003
                    73  6.881220791756708E-005
                    74  0.000000000000000E+000
                    75  2.785624393280453E-005
                    76  0.000000000000000E+000
                    77  0.000000000000000E+000
                    78 -2.237056406141984E-006
                    79  3.697968705184614E-006
                    80 -4.186783955040841E-004
                    81  0.000000000000000E+000
                    82  0.000000000000000E+000
                    83 -5.836728834707666E-004
                    84 -3.642008290391244E-004
                    85  0.000000000000000E+000
                    86  3.139905241303760E-005
                    87 -5.933540782975636E-005
                    88  0.000000000000000E+000
                    89  0.000000000000000E+000
                    90  4.855756322444357E-005
                    91  1.384392656662321E-004
                    92  9.579250805611604E-003
                    93 -2.034398110253567E-003
                    94 -2.760665338318461E-004
                    95  2.971318117713221E-003
                    96 -9.603308856360349E-006
                    97  7.947149490977980E-005
                    98  0.000000000000000E+000
                    99 -6.484489915063985E-004
                   100  8.505243579236470E-005
                   101  0.000000000000000E+000
                   102  2.036745532974739E-003
                   103  7.221462312172513E-005
                   104  0.000000000000000E+000
                   105  3.164017381183801E-005
                   106  0.000000000000000E+000
                   107  0.000000000000000E+000
                   108 -5.182252264090974E-006
                   109 -7.173445666633787E-006
                   110 -4.104360803985514E-004
                   111  0.000000000000000E+000
                   112  0.000000000000000E+000
                   113 -6.053083322811954E-004
                   114  3.400986117358908E-004
                   115  0.000000000000000E+000
                   116 -3.308884273207494E-005
                   117 -6.063313434302781E-005
                   118  0.000000000000000E+000
                   119  0.000000000000000E+000
                   120 -4.819020127408561E-005
                   121  1.378032407360682E-004
                   122 -1.465441179468671E-004
                   123 -6.675847737025731E-004
                   124  2.304829399708664E-004
                   125 -1.320896558931987E-004
                   126  1.122800831639404E-006
                   127 -3.499843158853334E-004
                   128  0.000000000000000E+000
                   129 -6.527585101657335E-005
                   130  5.507362528192830E-004
                   131  0.000000000000000E+000
                   132  3.221035129379864E-004
                   133  7.456358480584062E-004
                   134  0.000000000000000E+000
                   135  2.002172842120761E-005
                   136  0.000000000000000E+000
                   137  0.000000000000000E+000
                   138  4.166111026439334E-006
                   139  5.318196105811627E-005
                   140  1.376364828825971E-004
                   141  0.000000000000000E+000
                   142  0.000000000000000E+000
                   143  2.467694993157662E-004
                   144 -1.866332894806992E-004
                   145  0.000000000000000E+000
                   146  6.986167334811483E-006
                   147 -3.369207465267070E-005
                   148  0.000000000000000E+000
                   149  0.000000000000000E+000
                   150 -4.665776956837173E-005
                   151  2.718858438283394E-005
                   152 -1.519310500887721E-004
                   153 -6.793363801988729E-004
                   154  2.317386139970865E-004
                   155 -1.447768126613691E-004
                   156  2.531232205660348E-006
                   157 -3.380490206351873E-004
                   158  0.000000000000000E+000
                   159  5.682634684387230E-005
                   160  5.679809626546715E-004