[Molden Format]
[Atoms] AU
  N     1    7     0.0000000000    0.0000000000   -4.2961875400        
  C     2    6     0.0000000000    0.0000000000   -1.7764651600        
  C     3    6     0.0000000000   -2.3362793300   -0.4112233600        
  C     4    6     0.0000000000    2.3362793300   -0.4112233600        
  C     5    6     0.0000000000   -2.2978561300    2.1662209700        
  C     6    6     0.0000000000    2.2978561300    2.1662209700        
  C     7    6     0.0000000000    0.0000000000    3.4763662700        
  H     8    1     0.0000000000   -1.6614690400   -5.3178997700        
  H     9    1     0.0000000000    1.6614690400   -5.3178997700        
  H    10    1     0.0000000000   -4.0722224600   -1.4440179700        
  H    11    1     0.0000000000    4.0722224600   -1.4440179700        
  H    12    1     0.0000000000   -4.0406186400    3.1979899600        
  H    13    1     0.0000000000    4.0406186400    3.1979899600        
  H    14    1     0.0000000000    0.0000000000    5.5031041500        
[5D]
[7F]
[GTO]
  1  0
   s    12 1.00
  0.114200D+05  0.172695D-04
  0.171200D+04  0.134411D-03
  0.389300D+03  0.694561D-03
  0.110000D+03  0.278531D-02
  0.355700D+02  0.863457D-02
  0.125400D+02  0.199805D-01
  0.464400D+01  0.262908D-01
  0.129300D+01 -0.243845D-01
  0.511800D+00 -0.924934D-01
  0.178700D+00 -0.339683D+00
  0.246240D-01  0.345111D+00
  0.112530D-01  0.752750D+00
   s    10 1.00
  0.114200D+05  0.523000D-03
  0.171200D+04  0.404500D-02
  0.389300D+03  0.207750D-01
  0.110000D+03  0.807269D-01
  0.355700D+02  0.233074D+00
  0.125400D+02  0.433501D+00
  0.464400D+01  0.347472D+00
  0.129300D+01  0.412620D-01
  0.511800D+00 -0.850799D-02
  0.178700D+00  0.238400D-02
   s    10 1.00
  0.114200D+05 -0.115000D-03
  0.171200D+04 -0.895000D-03
  0.389300D+03 -0.462400D-02
  0.110000D+03 -0.185280D-01
  0.355700D+02 -0.573390D-01
  0.125400D+02 -0.132076D+00
  0.464400D+01 -0.172510D+00
  0.129300D+01  0.151814D+00
  0.511800D+00  0.599944D+00
  0.178700D+00  0.387462D+00
   s     1 1.00
  0.129300D+01  0.100000D+01
   s     1 1.00
  0.178700D+00  0.100000D+01
   p     5 1.00
  0.266300D+02  0.146700D-01
  0.594800D+01  0.917640D-01
  0.174200D+01  0.298683D+00
  0.555000D+00  0.498487D+00
  0.172500D+00  0.337023D+00
   p     1 1.00
  0.174200D+01  0.100000D+01
   p     1 1.00
  0.555000D+00  0.100000D+01
   d     1 1.00
  0.165400D+01  0.100000D+01
   d     1 1.00
  0.469000D+00  0.100000D+01
   f     1 1.00
  0.109300D+01  0.100000D+01
  
  2  0
   s    10 1.00
  0.823600D+04  0.531000D-03
  0.123500D+04  0.410800D-02
  0.280800D+03  0.210870D-01
  0.792700D+02  0.818530D-01
  0.255900D+02  0.234817D+00
  0.899700D+01  0.434401D+00
  0.331900D+01  0.346129D+00
  0.905900D+00  0.393780D-01
  0.364300D+00 -0.898300D-02
  0.128500D+00  0.238500D-02
   s    10 1.00
  0.823600D+04 -0.113000D-03
  0.123500D+04 -0.878000D-03
  0.280800D+03 -0.454000D-02
  0.792700D+02 -0.181330D-01
  0.255900D+02 -0.557600D-01
  0.899700D+01 -0.126895D+00
  0.331900D+01 -0.170352D+00
  0.905900D+00  0.140382D+00
  0.364300D+00  0.598684D+00
  0.128500D+00  0.395389D+00
   s     1 1.00
  0.905900D+00  0.100000D+01
   s     1 1.00
  0.364300D+00  0.100000D+01
   p     5 1.00
  0.187100D+02  0.140310D-01
  0.413300D+01  0.868660D-01
  0.120000D+01  0.290216D+00
  0.382700D+00  0.501008D+00
  0.120900D+00  0.343406D+00
   p     1 1.00
  0.382700D+00  0.100000D+01
   p     1 1.00
  0.120900D+00  0.100000D+01
   d     1 1.00
  0.109700D+01  0.100000D+01
   d     1 1.00
  0.318000D+00  0.100000D+01
   f     1 1.00
  0.761000D+00  0.100000D+01
  
  3  0
   s    10 1.00
  0.823600D+04  0.531000D-03
  0.123500D+04  0.410800D-02
  0.280800D+03  0.210870D-01
  0.792700D+02  0.818530D-01
  0.255900D+02  0.234817D+00
  0.899700D+01  0.434401D+00
  0.331900D+01  0.346129D+00
  0.905900D+00  0.393780D-01
  0.364300D+00 -0.898300D-02
  0.128500D+00  0.238500D-02
   s    10 1.00
  0.823600D+04 -0.113000D-03
  0.123500D+04 -0.878000D-03
  0.280800D+03 -0.454000D-02
  0.792700D+02 -0.181330D-01
  0.255900D+02 -0.557600D-01
  0.899700D+01 -0.126895D+00
  0.331900D+01 -0.170352D+00
  0.905900D+00  0.140382D+00
  0.364300D+00  0.598684D+00
  0.128500D+00  0.395389D+00
   s     1 1.00
  0.905900D+00  0.100000D+01
   s     1 1.00
  0.364300D+00  0.100000D+01
   p     5 1.00
  0.187100D+02  0.140310D-01
  0.413300D+01  0.868660D-01
  0.120000D+01  0.290216D+00
  0.382700D+00  0.501008D+00
  0.120900D+00  0.343406D+00
   p     1 1.00
  0.382700D+00  0.100000D+01
   p     1 1.00
  0.120900D+00  0.100000D+01
   d     1 1.00
  0.109700D+01  0.100000D+01
   d     1 1.00
  0.318000D+00  0.100000D+01
   f     1 1.00
  0.761000D+00  0.100000D+01
  
  4  0
   s    10 1.00
  0.823600D+04  0.531000D-03
  0.123500D+04  0.410800D-02
  0.280800D+03  0.210870D-01
  0.792700D+02  0.818530D-01
  0.255900D+02  0.234817D+00
  0.899700D+01  0.434401D+00
  0.331900D+01  0.346129D+00
  0.905900D+00  0.393780D-01
  0.364300D+00 -0.898300D-02
  0.128500D+00  0.238500D-02
   s    10 1.00
  0.823600D+04 -0.113000D-03
  0.123500D+04 -0.878000D-03
  0.280800D+03 -0.454000D-02
  0.792700D+02 -0.181330D-01
  0.255900D+02 -0.557600D-01
  0.899700D+01 -0.126895D+00
  0.331900D+01 -0.170352D+00
  0.905900D+00  0.140382D+00
  0.364300D+00  0.598684D+00
  0.128500D+00  0.395389D+00
   s     1 1.00
  0.905900D+00  0.100000D+01
   s     1 1.00
  0.364300D+00  0.100000D+01
   p     5 1.00
  0.187100D+02  0.140310D-01
  0.413300D+01  0.868660D-01
  0.120000D+01  0.290216D+00
  0.382700D+00  0.501008D+00
  0.120900D+00  0.343406D+00
   p     1 1.00
  0.382700D+00  0.100000D+01
   p     1 1.00
  0.120900D+00  0.100000D+01
   d     1 1.00
  0.109700D+01  0.100000D+01
   d     1 1.00
  0.318000D+00  0.100000D+01
   f     1 1.00
  0.761000D+00  0.100000D+01
  
  5  0
   s    10 1.00
  0.823600D+04  0.531000D-03
  0.123500D+04  0.410800D-02
  0.280800D+03  0.210870D-01
  0.792700D+02  0.818530D-01
  0.255900D+02  0.234817D+00
  0.899700D+01  0.434401D+00
  0.331900D+01  0.346129D+00
  0.905900D+00  0.393780D-01
  0.364300D+00 -0.898300D-02
  0.128500D+00  0.238500D-02
   s    10 1.00
  0.823600D+04 -0.113000D-03
  0.123500D+04 -0.878000D-03
  0.280800D+03 -0.454000D-02
  0.792700D+02 -0.181330D-01
  0.255900D+02 -0.557600D-01
  0.899700D+01 -0.126895D+00
  0.331900D+01 -0.170352D+00
  0.905900D+00  0.140382D+00
  0.364300D+00  0.598684D+00
  0.128500D+00  0.395389D+00
   s     1 1.00
  0.905900D+00  0.100000D+01
   s     1 1.00
  0.364300D+00  0.100000D+01
   p     5 1.00
  0.187100D+02  0.140310D-01
  0.413300D+01  0.868660D-01
  0.120000D+01  0.290216D+00
  0.382700D+00  0.501008D+00
  0.120900D+00  0.343406D+00
   p     1 1.00
  0.382700D+00  0.100000D+01
   p     1 1.00
  0.120900D+00  0.100000D+01
   d     1 1.00
  0.109700D+01  0.100000D+01
   d     1 1.00
  0.318000D+00  0.100000D+01
   f     1 1.00
  0.761000D+00  0.100000D+01
  
  6  0
   s    10 1.00
  0.823600D+04  0.531000D-03
  0.123500D+04  0.410800D-02
  0.280800D+03  0.210870D-01
  0.792700D+02  0.818530D-01
  0.255900D+02  0.234817D+00
  0.899700D+01  0.434401D+00
  0.331900D+01  0.346129D+00
  0.905900D+00  0.393780D-01
  0.364300D+00 -0.898300D-02
  0.128500D+00  0.238500D-02
   s    10 1.00
  0.823600D+04 -0.113000D-03
  0.123500D+04 -0.878000D-03
  0.280800D+03 -0.454000D-02
  0.792700D+02 -0.181330D-01
  0.255900D+02 -0.557600D-01
  0.899700D+01 -0.126895D+00
  0.331900D+01 -0.170352D+00
  0.905900D+00  0.140382D+00
  0.364300D+00  0.598684D+00
  0.128500D+00  0.395389D+00
   s     1 1.00
  0.905900D+00  0.100000D+01
   s     1 1.00
  0.364300D+00  0.100000D+01
   p     5 1.00
  0.187100D+02  0.140310D-01
  0.413300D+01  0.868660D-01
  0.120000D+01  0.290216D+00
  0.382700D+00  0.501008D+00
  0.120900D+00  0.343406D+00
   p     1 1.00
  0.382700D+00  0.100000D+01
   p     1 1.00
  0.120900D+00  0.100000D+01
   d     1 1.00
  0.109700D+01  0.100000D+01
   d     1 1.00
  0.318000D+00  0.100000D+01
   f     1 1.00
  0.761000D+00  0.100000D+01
  
  7  0
   s    10 1.00
  0.823600D+04  0.531000D-03
  0.123500D+04  0.410800D-02
  0.280800D+03  0.210870D-01
  0.792700D+02  0.818530D-01
  0.255900D+02  0.234817D+00
  0.899700D+01  0.434401D+00
  0.331900D+01  0.346129D+00
  0.905900D+00  0.393780D-01
  0.364300D+00 -0.898300D-02
  0.128500D+00  0.238500D-02
   s    10 1.00
  0.823600D+04 -0.113000D-03
  0.123500D+04 -0.878000D-03
  0.280800D+03 -0.454000D-02
  0.792700D+02 -0.181330D-01
  0.255900D+02 -0.557600D-01
  0.899700D+01 -0.126895D+00
  0.331900D+01 -0.170352D+00
  0.905900D+00  0.140382D+00
  0.364300D+00  0.598684D+00
  0.128500D+00  0.395389D+00
   s     1 1.00
  0.905900D+00  0.100000D+01
   s     1 1.00
  0.364300D+00  0.100000D+01
   p     5 1.00
  0.187100D+02  0.140310D-01
  0.413300D+01  0.868660D-01
  0.120000D+01  0.290216D+00
  0.382700D+00  0.501008D+00
  0.120900D+00  0.343406D+00
   p     1 1.00
  0.382700D+00  0.100000D+01
   p     1 1.00
  0.120900D+00  0.100000D+01
   d     1 1.00
  0.109700D+01  0.100000D+01
   d     1 1.00
  0.318000D+00  0.100000D+01
   f     1 1.00
  0.761000D+00  0.100000D+01
  
  8  0
   s     4 1.00
  0.130100D+02  0.196850D-01
  0.196200D+01  0.137977D+00
  0.444600D+00  0.478148D+00
  0.122000D+00  0.501240D+00
   s     1 1.00
  0.122000D+00  0.100000D+01
   p     1 1.00
  0.727000D+00  0.100000D+01
  
  9  0
   s     4 1.00
  0.130100D+02  0.196850D-01
  0.196200D+01  0.137977D+00
  0.444600D+00  0.478148D+00
  0.122000D+00  0.501240D+00
   s     1 1.00
  0.122000D+00  0.100000D+01
   p     1 1.00
  0.727000D+00  0.100000D+01
  
 10  0
   s     4 1.00
  0.130100D+02  0.196850D-01
  0.196200D+01  0.137977D+00
  0.444600D+00  0.478148D+00
  0.122000D+00  0.501240D+00
   s     1 1.00
  0.122000D+00  0.100000D+01
   p     1 1.00
  0.727000D+00  0.100000D+01
  
 11  0
   s     4 1.00
  0.130100D+02  0.196850D-01
  0.196200D+01  0.137977D+00
  0.444600D+00  0.478148D+00
  0.122000D+00  0.501240D+00
   s     1 1.00
  0.122000D+00  0.100000D+01
   p     1 1.00
  0.727000D+00  0.100000D+01
  
 12  0
   s     4 1.00
  0.130100D+02  0.196850D-01
  0.196200D+01  0.137977D+00
  0.444600D+00  0.478148D+00
  0.122000D+00  0.501240D+00
   s     1 1.00
  0.122000D+00  0.100000D+01
   p     1 1.00
  0.727000D+00  0.100000D+01
  
 13  0
   s     4 1.00
  0.130100D+02  0.196850D-01
  0.196200D+01  0.137977D+00
  0.444600D+00  0.478148D+00
  0.122000D+00  0.501240D+00
   s     1 1.00
  0.122000D+00  0.100000D+01
   p     1 1.00
  0.727000D+00  0.100000D+01
  
 14  0
   s     4 1.00
  0.130100D+02  0.196850D-01
  0.196200D+01  0.137977D+00
  0.444600D+00  0.478148D+00
  0.122000D+00  0.501240D+00
   s     1 1.00
  0.122000D+00  0.100000D+01
   p     1 1.00
  0.727000D+00  0.100000D+01
  
[MO]
 Sym= __1_a__
 Ene=  0.000000000000000E+000
 Spin= Alpha
 Occup=    2.00000000000000     
                     1  4.021058637981550E-005
                     2  0.998087074365402     
                     3  9.055009109305231E-003
                     4  2.047243258272700E-003
                     5  1.581202073457910E-003
                     6 -5.981657806148720E-012
                     7  2.913432103009990E-010
                     8  4.457965925713600E-003
                     9  5.572107927480600E-012
                    10  1.286593712431400E-008
                    11 -1.208130460592510E-004
                    12 -1.860245342743270E-013
                    13 -6.245045530528890E-008
                    14 -1.063053196716070E-004
                    15  2.622237907883801E-004
                    16 -1.764959210111750E-012
                    17 -1.195297139611770E-010
                    18 -1.119434693092942E-004
                    19 -2.219324689410740E-013
                    20  1.546333766662565E-004
                    21 -2.111762988036650E-012
                    22 -1.111112535729100E-008
                    23  5.805419898161800E-004
                    24  7.414918902833870E-013
                    25 -1.829095549673015E-004
                    26 -3.272461300698973E-012
                    27 -4.664846491474318E-009
                    28  8.668576923055379E-005
                    29 -1.909795972141420E-013
                    30  9.733675282839116E-013
                    31  2.391627841439228E-010
                    32 -3.610570502717660E-004
                    33  2.670308964158470E-003
                    34  1.358940628743300E-004
                    35 -2.260144184551730E-004
                    36  2.348855203432820E-012
                    37  2.789047179206920E-008
                    38 -6.995853315430740E-003
                    39 -3.002490211564840E-013
                    40 -1.087190865847450E-007
                    41  3.401885335309900E-004
                    42 -2.690093936396220E-012
                    43 -1.197932485771750E-007
                    44  4.390349331010230E-003
                    45  3.482005733716081E-004
                    46 -8.962310655136490E-013
                    47  7.707145027079139E-009
                    48  1.371358412211260E-004
                    49  3.946145444512490E-012
                    50  6.333526916356663E-005
                    51 -3.962013851296370E-012
                    52 -1.715155779753490E-007
                    53 -4.490892291670520E-004
                    54 -1.953105197622740E-012
                    55 -1.071452754394393E-004
                    56  7.480427295067204E-014
                    57  3.211632706565990E-009
                    58  7.776525362307400E-005
                    59 -2.448314785272450E-013
                    60  1.522007843700333E-012
                    61  2.738941386613603E-009
                    62 -2.104325023198200E-004
                    63 -1.665804542972660E-003
                    64  5.817998344839780E-005
                    65  5.581124606790731E-004
                    66  5.909819180428860E-012
                    67 -8.299961076093910E-004
                    68  1.000923015751760E-003
                    69 -4.137343228257110E-012
                    70 -3.168587741235810E-005
                    71  6.150223846542860E-004
                    72  1.768036245361580E-012
                    73 -5.616451397445770E-004
                    74 -1.432952166286700E-004
                    75  9.162146801720048E-005
                    76 -1.013332080103200E-012
                    77 -8.272242054027360E-006
                    78  4.127952741346880E-005
                    79 -1.479625160576100E-012
                    80 -2.305773271566200E-005
                    81  5.648239781045600E-012
                    82  2.021292683947770E-004
                    83 -3.108147919056280E-005
                    84  3.626695435141790E-012
                    85 -9.337226882734988E-005
                    86  3.505391943878984E-013
                    87 -2.974788979825347E-005
                    88  2.007178903800700E-005
                    89 -1.203856761338100E-012
                    90  6.824134950237015E-013
                    91  1.256668939584099E-005
                    92 -2.104150326150530E-004
                    93 -1.665720468722370E-003
                    94  5.835108865830920E-005
                    95  5.575543492528480E-004
                    96 -2.355972724767230E-012
                    97  8.300318081812470E-004
                    98  1.001050833581580E-003
                    99 -1.825584321399710E-013
                   100  3.148458539965100E-005
                   101  6.142597979998010E-004
                   102  5.426861703371890E-012
                   103  5.610496443436960E-004
                   104 -1.434324396411650E-004
                   105  9.158621733830885E-005
                   106  1.170573398489300E-012
                   107  8.287544158756539E-006
                   108  4.128257257945020E-005
                   109  1.322517743959500E-012
                   110 -2.354225208098996E-005
                   111  8.881171727176510E-014
                   112 -2.021938238900840E-004
                   113 -3.120370574321400E-005
                   114 -1.049392993007700E-012
                   115 -9.330419972257999E-005
                   116  8.382292428094057E-013
                   117  2.973252993943083E-005
                   118  2.007299706263460E-005
                   119 -1.649605369078600E-012
                   120  4.982545892394769E-013
                   121 -1.256508605449013E-005
                   122 -1.461413902574950E-004
                   123  5.864580003144240E-006
                   124  1.095862544430590E-004
                   125  1.303982131899090E-004
                   126  9.922559082619129E-012
                   127  3.951472633057940E-005
                   128 -7.914350753926280E-004
                   129 -1.472840541043100E-011
                   130  2.444035048790210E-005
                   131  3.489059715050890E-004
                   132 -8.181685251598370E-012
                   133 -1.758227012506590E-004
                   134  7.042689597883370E-004
                   135 -1.726571276883055E-005
                   136  5.070328968134520E-013
                   137  1.600309241509410E-006
                   138  1.216663421107946E-006
                   139  1.393473641936470E-012
                   140 -1.884205737117635E-004
                   141  3.002507933085390E-012
                   142  1.674858143592640E-004
                   143  1.361289271273878E-005
                   144 -3.059169309324880E-012
                   145 -3.933887271070451E-005
                   146 -7.881565739192588E-013
                   147  1.596358102386697E-006
                   148 -9.745205298331080E-006
                   149 -1.085865147197340E-012
                   150 -9.987560852765394E-013
                   151 -3.698943672234146E-006
                   152 -1.465610359203290E-004
                   153  4.376523702393700E-006
                   154  1.091756616336720E-004
                   155  1.329909018048430E-004
                   156 -4.866749782158100E-013
                   157 -3.955433602574550E-005
                   158 -7.913516585114590E-004
                   159  3.291515614782180E-012
                   160 -2.442717227647520E-005
                   161  3.483086171545810E-004
                   162 -3.861787540956970E-012
                   163  1.764569852775540E-004
                   164  7.041422746940200E-004
                   165 -1.721357998559398E-005
                   166 -1.354891518329500E-012
                   167 -1.594028854894060E-006
                   168  1.182769669199386E-006
                   169 -3.762183887484460E-013
                   170 -1.881781755279646E-004
                   171  3.913945757123390E-014
                   172 -1.676045836211400E-004
                   173  1.364148030681206E-005
                   174  1.953614897994740E-012
                   175 -3.925549426451491E-005
                   176 -4.085148266041226E-013
                   177 -1.568290147456012E-006
                   178 -9.777915164508501E-006
                   179  3.149211723618870E-013
                   180 -1.276388074185634E-012
                   181  3.693134443534461E-006
                   182 -1.191656585595570E-004
                   183 -3.203383568175450E-004
                   184  3.222125034461820E-005
                   185  1.424590592145560E-004
                   186 -1.382960233352560E-012
                   187  1.290461814314040E-008
                   188 -3.915323858407060E-005
                   189  1.519925688438610E-012
                   190 -1.285530701853560E-007
                   191  1.888544909053850E-005
                   192  2.318290067622610E-012
                   193  1.385362795270840E-007
                   194  4.944698362882140E-005
                   195  1.930160019507277E-005
                   196 -1.189105874876370E-013
                   197  1.051386738072600E-008
                   198  9.134127787905099E-006
                   199  2.222821548360710E-012
                   200  5.821128625348927E-005
                   201 -5.588191747928110E-013
                   202  7.101707168416360E-008
                   203  5.098134817937860E-005
                   204 -2.662028521328390E-012
                   205 -1.120784680095276E-005
                   206  4.050108136542477E-013
                   207 -9.455836945343386E-009
                   208  2.668150663017160E-006
                   209  1.351408271842680E-012
                   210 -7.548418810219588E-014
                   211  8.366278139121252E-009
                   212  3.774785108999060E-003
                   213 -2.284626587619120E-003
                   214  2.313250736462390E-012
                   215  4.658688908236460E-004
                   216  3.774584561846370E-004
                   217  3.774830042736260E-003
                   218 -2.284640603998700E-003
                   219  5.139193923601150E-013
                   220 -4.658931555701470E-004
                   221  3.774696452746120E-004
                   222 -6.601402885575350E-004
                   223 -1.249054773318280E-004
                   224  1.866654594631360E-012
                   225 -1.655028701057460E-005
                   226 -4.480033798038180E-005
                   227 -6.602182140652590E-004
                   228 -1.246070879859350E-004
                   229 -1.837633972804010E-012
                   230  1.652730804605440E-005
                   231 -4.483096529654840E-005
                   232 -2.291825822978230E-004
                   233 -4.078327456659210E-004
                   234  1.440159690163090E-012
                   235 -5.294707849533030E-006
                   236  5.396168632040620E-006
                   237 -2.293011198430680E-004
                   238 -4.079183833668830E-004
                   239 -5.038623114969260E-013
                   240  5.361358241822610E-006
                   241  5.433369163392270E-006
                   242  7.074304308291091E-005
                   243 -1.272407911943930E-004
                   244 -1.014563154114400E-012
                   245 -6.767224424082320E-009
                   246  1.407238533826430E-005
 Sym= __2_a__
 Ene=  0.000000000000000E+000
 Spin= Alpha
 Occup=    2.00000000000000     
                     1 -4.680688160428520E-005
                     2 -2.090698811524480E-004
                     3  2.288618412123300E-003
                     4  9.748209038835681E-005
                     5  1.256909150691110E-003
                     6 -3.882481617573700E-012
                     7  5.324881662398600E-009
                     8  2.986393171528850E-003
                     9  8.765085253183070E-013
                    10 -3.691767058245010E-009
                    11 -5.206686079167480E-005
                    12  1.602480955256230E-012
                    13  4.583037996534640E-009
                    14 -5.305046893437570E-004
                    15  4.410367204201546E-005
                    16 -5.571453797225780E-013
                    17  4.112016267109590E-010
                    18  6.530158130599100E-005
                    19  1.710896580215160E-013
                    20 -2.779595160500955E-004
                    21 -2.774918026638050E-012
                    22  2.615898422042680E-010
                    23 -3.338684972034600E-004
                    24  3.774777236880400E-012
                    25  1.819658924173840E-004
                    26  4.962529419418278E-013
                    27 -8.590310437205810E-010
                    28 -1.326349379988952E-006
                    29  1.806796587598410E-012
                    30 -9.464651234595380E-013
                    31  7.843226699138255E-010
                    32   1.00106223483539     
                    33  9.276098901975260E-003
                    34  2.628691580657140E-003
                    35 -7.768443061227770E-003
                    36  1.820425851523730E-013
                    37 -5.282137268810640E-009
                    38 -4.115092216110860E-003
                    39 -5.506706624424980E-012
                    40  1.761497650539800E-009
                    41  1.017675293154260E-003
                    42 -1.313485631637680E-011
                    43 -6.035243698206580E-008
                    44  4.417915356531570E-003
                    45  4.666716496853888E-004
                    46  1.227267409907850E-012
                    47 -2.970845189204600E-009
                    48 -4.333520837537500E-004
                    49 -2.565004388698870E-012
                    50  5.785365425801412E-004
                    51 -1.782975159679620E-012
                    52  1.037714576647680E-008
                    53  9.418056598304460E-004
                    54 -4.055709379889100E-013
                    55  3.825589384851103E-004
                    56 -6.712714736594735E-013
                    57 -5.560541806982198E-010
                    58 -2.068154102553120E-004
                    59  2.169234181796340E-012
                    60 -1.087226270961556E-012
                    61  1.538390989546262E-009
                    62  7.289952203879070E-003
                    63 -2.054260315898000E-003
                    64 -2.768522667973020E-004
                    65  3.041855432472110E-003
                    66 -1.252528869521050E-011
                    67  9.873542206699479E-005
                    68 -1.044026360536320E-005
                    69  3.436075111912760E-012
                    70  5.959083779197130E-004
                    71  1.631830625086220E-005
                    72  1.027625513147490E-011
                    73 -2.089391377449130E-003
                    74  9.860991887549210E-005
                    75 -1.534026864525851E-005
                    76 -2.736918857527500E-014
                    77  1.442910661505050E-005
                    78  2.930417405252620E-005
                    79 -4.235070316516120E-012
                    80  7.688755127935193E-004
                    81 -1.400944875562290E-011
                    82 -4.245875788517410E-004
                    83 -9.966257315415500E-006
                    84  4.862393713369010E-012
                    85  7.263248908161735E-005
                    86 -1.346791497875916E-012
                    87  4.527589559072971E-005
                    88 -1.265217363479628E-004
                    89  3.066966920064670E-012
                    90  1.699766692357930E-013
                    91  5.037940633640487E-005
                    92  7.289926420008230E-003
                    93 -2.054346486999650E-003
                    94 -2.768951313285580E-004
                    95  3.042059317648620E-003
                    96 -9.755988215346520E-012
                    97 -9.873674713806800E-005
                    98 -1.046307182950060E-005
                    99  1.038364481299340E-011
                   100 -5.959058309204180E-004
                   101  1.645007777014320E-005
                   102  1.756752586236410E-011
                   103  2.089520081471260E-003
                   104  9.846618577533800E-005
                   105 -1.532549076628959E-005
                   106  6.731791258117150E-013
                   107 -1.443538189133080E-005
                   108  2.930270018969720E-005
                   109 -3.065790815222640E-012
                   110  7.689355227507410E-004
                   111  3.476200470418280E-012
                   112  4.246353330053850E-004
                   113 -9.947041254607320E-006
                   114 -3.807196194305060E-012
                   115  7.261925268338309E-005
                   116  4.234322455563996E-012
                   117 -4.527327044576658E-005
                   118 -1.265192542246204E-004
                   119  7.012359644686900E-012
                   120  4.378393439317951E-012
                   121 -5.037801054323217E-005
                   122 -2.315682380614470E-004
                   123 -7.514006380630250E-004
                   124  2.250977851747670E-004
                   125 -1.170061275850560E-004
                   126  7.084269014832390E-012
                   127 -1.908698413582130E-005
                   128 -2.549716010156660E-004
                   129 -4.598776472332280E-012
                   130 -7.072928098055990E-006
                   131  5.370790275972650E-004
                   132  1.440484844506610E-012
                   133  3.295936131019610E-004
                   134  7.451413466832990E-004
                   135 -1.433030284534705E-005
                   136  9.627876976599930E-013
                   137  5.125548029559380E-005
                   138  1.398648752687536E-005
                   139 -4.002409380007850E-012
                   140 -2.901624140310712E-004
                   141 -9.300222855424510E-012
                   142 -2.200054068710290E-004
                   143 -1.401880593534886E-005
                   144 -2.019523586986980E-012
                   145  9.701590947439650E-007
                   146 -2.728783406423694E-012
                   147 -4.046403552682508E-005
                   148 -3.931427621199700E-005
                   149  3.714418961545210E-013
                   150 -2.782595709776887E-012
                   151 -5.559698281945140E-006
                   152 -2.312871163854940E-004
                   153 -7.504664224930340E-004
                   154  2.251611068659990E-004
                   155 -1.179912595130820E-004
                   156 -9.614728148913080E-012
                   157  1.907907259212250E-005
                   158 -2.549758829442780E-004
                   159  1.145566793198430E-011
                   160  7.109367415217260E-006