[Molden Format]
[Atoms] AU
  N     1    7     0.0000000000    0.0000000000   -4.2961875400        
  C     2    6     0.0000000000    0.0000000000   -1.7764651600        
  C     3    6     0.0000000000   -2.3362793300   -0.4112233600        
  C     4    6     0.0000000000    2.3362793300   -0.4112233600        
  C     5    6     0.0000000000   -2.2978561300    2.1662209700        
  C     6    6     0.0000000000    2.2978561300    2.1662209700        
  C     7    6     0.0000000000    0.0000000000    3.4763662700        
  H     8    1     0.0000000000   -1.6614690400   -5.3178997700        
  H     9    1     0.0000000000    1.6614690400   -5.3178997700        
  H    10    1     0.0000000000   -4.0722224600   -1.4440179700        
  H    11    1     0.0000000000    4.0722224600   -1.4440179700        
  H    12    1     0.0000000000   -4.0406186400    3.1979899600        
  H    13    1     0.0000000000    4.0406186400    3.1979899600        
  H    14    1     0.0000000000    0.0000000000    5.5031041500        
[5D]
[7F]
[GTO]
  1  0
   s    12 1.00
  0.114200D+05  0.172695D-04
  0.171200D+04  0.134411D-03
  0.389300D+03  0.694561D-03
  0.110000D+03  0.278531D-02
  0.355700D+02  0.863457D-02
  0.125400D+02  0.199805D-01
  0.464400D+01  0.262908D-01
  0.129300D+01 -0.243845D-01
  0.511800D+00 -0.924934D-01
  0.178700D+00 -0.339683D+00
  0.246240D-01  0.345111D+00
  0.112530D-01  0.752750D+00
   s    10 1.00
  0.114200D+05  0.523000D-03
  0.171200D+04  0.404500D-02
  0.389300D+03  0.207750D-01
  0.110000D+03  0.807269D-01
  0.355700D+02  0.233074D+00
  0.125400D+02  0.433501D+00
  0.464400D+01  0.347472D+00
  0.129300D+01  0.412620D-01
  0.511800D+00 -0.850799D-02
  0.178700D+00  0.238400D-02
   s    10 1.00
  0.114200D+05 -0.115000D-03
  0.171200D+04 -0.895000D-03
  0.389300D+03 -0.462400D-02
  0.110000D+03 -0.185280D-01
  0.355700D+02 -0.573390D-01
  0.125400D+02 -0.132076D+00
  0.464400D+01 -0.172510D+00
  0.129300D+01  0.151814D+00
  0.511800D+00  0.599944D+00
  0.178700D+00  0.387462D+00
   s     1 1.00
  0.129300D+01  0.100000D+01
   s     1 1.00
  0.178700D+00  0.100000D+01
   p     5 1.00
  0.266300D+02  0.146700D-01
  0.594800D+01  0.917640D-01
  0.174200D+01  0.298683D+00
  0.555000D+00  0.498487D+00
  0.172500D+00  0.337023D+00
   p     1 1.00
  0.174200D+01  0.100000D+01
   p     1 1.00
  0.555000D+00  0.100000D+01
   d     1 1.00
  0.165400D+01  0.100000D+01
   d     1 1.00
  0.469000D+00  0.100000D+01
   f     1 1.00
  0.109300D+01  0.100000D+01
  
  2  0
   s    10 1.00
  0.823600D+04  0.531000D-03
  0.123500D+04  0.410800D-02
  0.280800D+03  0.210870D-01
  0.792700D+02  0.818530D-01
  0.255900D+02  0.234817D+00
  0.899700D+01  0.434401D+00
  0.331900D+01  0.346129D+00
  0.905900D+00  0.393780D-01
  0.364300D+00 -0.898300D-02
  0.128500D+00  0.238500D-02
   s    10 1.00
  0.823600D+04 -0.113000D-03
  0.123500D+04 -0.878000D-03
  0.280800D+03 -0.454000D-02
  0.792700D+02 -0.181330D-01
  0.255900D+02 -0.557600D-01
  0.899700D+01 -0.126895D+00
  0.331900D+01 -0.170352D+00
  0.905900D+00  0.140382D+00
  0.364300D+00  0.598684D+00
  0.128500D+00  0.395389D+00
   s     1 1.00
  0.905900D+00  0.100000D+01
   s     1 1.00
  0.364300D+00  0.100000D+01
   p     5 1.00
  0.187100D+02  0.140310D-01
  0.413300D+01  0.868660D-01
  0.120000D+01  0.290216D+00
  0.382700D+00  0.501008D+00
  0.120900D+00  0.343406D+00
   p     1 1.00
  0.382700D+00  0.100000D+01
   p     1 1.00
  0.120900D+00  0.100000D+01
   d     1 1.00
  0.109700D+01  0.100000D+01
   d     1 1.00
  0.318000D+00  0.100000D+01
   f     1 1.00
  0.761000D+00  0.100000D+01
  
  3  0
   s    10 1.00
  0.823600D+04  0.531000D-03
  0.123500D+04  0.410800D-02
  0.280800D+03  0.210870D-01
  0.792700D+02  0.818530D-01
  0.255900D+02  0.234817D+00
  0.899700D+01  0.434401D+00
  0.331900D+01  0.346129D+00
  0.905900D+00  0.393780D-01
  0.364300D+00 -0.898300D-02
  0.128500D+00  0.238500D-02
   s    10 1.00
  0.823600D+04 -0.113000D-03
  0.123500D+04 -0.878000D-03
  0.280800D+03 -0.454000D-02
  0.792700D+02 -0.181330D-01
  0.255900D+02 -0.557600D-01
  0.899700D+01 -0.126895D+00
  0.331900D+01 -0.170352D+00
  0.905900D+00  0.140382D+00
  0.364300D+00  0.598684D+00
  0.128500D+00  0.395389D+00
   s     1 1.00
  0.905900D+00  0.100000D+01
   s     1 1.00
  0.364300D+00  0.100000D+01
   p     5 1.00
  0.187100D+02  0.140310D-01
  0.413300D+01  0.868660D-01
  0.120000D+01  0.290216D+00
  0.382700D+00  0.501008D+00
  0.120900D+00  0.343406D+00
   p     1 1.00
  0.382700D+00  0.100000D+01
   p     1 1.00
  0.120900D+00  0.100000D+01
   d     1 1.00
  0.109700D+01  0.100000D+01
   d     1 1.00
  0.318000D+00  0.100000D+01
   f     1 1.00
  0.761000D+00  0.100000D+01
  
  4  0
   s    10 1.00
  0.823600D+04  0.531000D-03
  0.123500D+04  0.410800D-02
  0.280800D+03  0.210870D-01
  0.792700D+02  0.818530D-01
  0.255900D+02  0.234817D+00
  0.899700D+01  0.434401D+00
  0.331900D+01  0.346129D+00
  0.905900D+00  0.393780D-01
  0.364300D+00 -0.898300D-02
  0.128500D+00  0.238500D-02
   s    10 1.00
  0.823600D+04 -0.113000D-03
  0.123500D+04 -0.878000D-03
  0.280800D+03 -0.454000D-02
  0.792700D+02 -0.181330D-01
  0.255900D+02 -0.557600D-01
  0.899700D+01 -0.126895D+00
  0.331900D+01 -0.170352D+00
  0.905900D+00  0.140382D+00
  0.364300D+00  0.598684D+00
  0.128500D+00  0.395389D+00
   s     1 1.00
  0.905900D+00  0.100000D+01
   s     1 1.00
  0.364300D+00  0.100000D+01
   p     5 1.00
  0.187100D+02  0.140310D-01
  0.413300D+01  0.868660D-01
  0.120000D+01  0.290216D+00
  0.382700D+00  0.501008D+00
  0.120900D+00  0.343406D+00
   p     1 1.00
  0.382700D+00  0.100000D+01
   p     1 1.00
  0.120900D+00  0.100000D+01
   d     1 1.00
  0.109700D+01  0.100000D+01
   d     1 1.00
  0.318000D+00  0.100000D+01
   f     1 1.00
  0.761000D+00  0.100000D+01
  
  5  0
   s    10 1.00
  0.823600D+04  0.531000D-03
  0.123500D+04  0.410800D-02
  0.280800D+03  0.210870D-01
  0.792700D+02  0.818530D-01
  0.255900D+02  0.234817D+00
  0.899700D+01  0.434401D+00
  0.331900D+01  0.346129D+00
  0.905900D+00  0.393780D-01
  0.364300D+00 -0.898300D-02
  0.128500D+00  0.238500D-02
   s    10 1.00
  0.823600D+04 -0.113000D-03
  0.123500D+04 -0.878000D-03
  0.280800D+03 -0.454000D-02
  0.792700D+02 -0.181330D-01
  0.255900D+02 -0.557600D-01
  0.899700D+01 -0.126895D+00
  0.331900D+01 -0.170352D+00
  0.905900D+00  0.140382D+00
  0.364300D+00  0.598684D+00
  0.128500D+00  0.395389D+00
   s     1 1.00
  0.905900D+00  0.100000D+01
   s     1 1.00
  0.364300D+00  0.100000D+01
   p     5 1.00
  0.187100D+02  0.140310D-01
  0.413300D+01  0.868660D-01
  0.120000D+01  0.290216D+00
  0.382700D+00  0.501008D+00
  0.120900D+00  0.343406D+00
   p     1 1.00
  0.382700D+00  0.100000D+01
   p     1 1.00
  0.120900D+00  0.100000D+01
   d     1 1.00
  0.109700D+01  0.100000D+01
   d     1 1.00
  0.318000D+00  0.100000D+01
   f     1 1.00
  0.761000D+00  0.100000D+01
  
  6  0
   s    10 1.00
  0.823600D+04  0.531000D-03
  0.123500D+04  0.410800D-02
  0.280800D+03  0.210870D-01
  0.792700D+02  0.818530D-01
  0.255900D+02  0.234817D+00
  0.899700D+01  0.434401D+00
  0.331900D+01  0.346129D+00
  0.905900D+00  0.393780D-01
  0.364300D+00 -0.898300D-02
  0.128500D+00  0.238500D-02
   s    10 1.00
  0.823600D+04 -0.113000D-03
  0.123500D+04 -0.878000D-03
  0.280800D+03 -0.454000D-02
  0.792700D+02 -0.181330D-01
  0.255900D+02 -0.557600D-01
  0.899700D+01 -0.126895D+00
  0.331900D+01 -0.170352D+00
  0.905900D+00  0.140382D+00
  0.364300D+00  0.598684D+00
  0.128500D+00  0.395389D+00
   s     1 1.00
  0.905900D+00  0.100000D+01
   s     1 1.00
  0.364300D+00  0.100000D+01
   p     5 1.00
  0.187100D+02  0.140310D-01
  0.413300D+01  0.868660D-01
  0.120000D+01  0.290216D+00
  0.382700D+00  0.501008D+00
  0.120900D+00  0.343406D+00
   p     1 1.00
  0.382700D+00  0.100000D+01
   p     1 1.00
  0.120900D+00  0.100000D+01
   d     1 1.00
  0.109700D+01  0.100000D+01
   d     1 1.00
  0.318000D+00  0.100000D+01
   f     1 1.00
  0.761000D+00  0.100000D+01
  
  7  0
   s    10 1.00
  0.823600D+04  0.531000D-03
  0.123500D+04  0.410800D-02
  0.280800D+03  0.210870D-01
  0.792700D+02  0.818530D-01
  0.255900D+02  0.234817D+00
  0.899700D+01  0.434401D+00
  0.331900D+01  0.346129D+00
  0.905900D+00  0.393780D-01
  0.364300D+00 -0.898300D-02
  0.128500D+00  0.238500D-02
   s    10 1.00
  0.823600D+04 -0.113000D-03
  0.123500D+04 -0.878000D-03
  0.280800D+03 -0.454000D-02
  0.792700D+02 -0.181330D-01
  0.255900D+02 -0.557600D-01
  0.899700D+01 -0.126895D+00
  0.331900D+01 -0.170352D+00
  0.905900D+00  0.140382D+00
  0.364300D+00  0.598684D+00
  0.128500D+00  0.395389D+00
   s     1 1.00
  0.905900D+00  0.100000D+01
   s     1 1.00
  0.364300D+00  0.100000D+01
   p     5 1.00
  0.187100D+02  0.140310D-01
  0.413300D+01  0.868660D-01
  0.120000D+01  0.290216D+00
  0.382700D+00  0.501008D+00
  0.120900D+00  0.343406D+00
   p     1 1.00
  0.382700D+00  0.100000D+01
   p     1 1.00
  0.120900D+00  0.100000D+01
   d     1 1.00
  0.109700D+01  0.100000D+01
   d     1 1.00
  0.318000D+00  0.100000D+01
   f     1 1.00
  0.761000D+00  0.100000D+01
  
  8  0
   s     4 1.00
  0.130100D+02  0.196850D-01
  0.196200D+01  0.137977D+00
  0.444600D+00  0.478148D+00
  0.122000D+00  0.501240D+00
   s     1 1.00
  0.122000D+00  0.100000D+01
   p     1 1.00
  0.727000D+00  0.100000D+01
  
  9  0
   s     4 1.00
  0.130100D+02  0.196850D-01
  0.196200D+01  0.137977D+00
  0.444600D+00  0.478148D+00
  0.122000D+00  0.501240D+00
   s     1 1.00
  0.122000D+00  0.100000D+01
   p     1 1.00
  0.727000D+00  0.100000D+01
  
 10  0
   s     4 1.00
  0.130100D+02  0.196850D-01
  0.196200D+01  0.137977D+00
  0.444600D+00  0.478148D+00
  0.122000D+00  0.501240D+00
   s     1 1.00
  0.122000D+00  0.100000D+01
   p     1 1.00
  0.727000D+00  0.100000D+01
  
 11  0
   s     4 1.00
  0.130100D+02  0.196850D-01
  0.196200D+01  0.137977D+00
  0.444600D+00  0.478148D+00
  0.122000D+00  0.501240D+00
   s     1 1.00
  0.122000D+00  0.100000D+01
   p     1 1.00
  0.727000D+00  0.100000D+01
  
 12  0
   s     4 1.00
  0.130100D+02  0.196850D-01
  0.196200D+01  0.137977D+00
  0.444600D+00  0.478148D+00
  0.122000D+00  0.501240D+00
   s     1 1.00
  0.122000D+00  0.100000D+01
   p     1 1.00
  0.727000D+00  0.100000D+01
  
 13  0
   s     4 1.00
  0.130100D+02  0.196850D-01
  0.196200D+01  0.137977D+00
  0.444600D+00  0.478148D+00
  0.122000D+00  0.501240D+00
   s     1 1.00
  0.122000D+00  0.100000D+01
   p     1 1.00
  0.727000D+00  0.100000D+01
  
 14  0
   s     4 1.00
  0.130100D+02  0.196850D-01
  0.196200D+01  0.137977D+00
  0.444600D+00  0.478148D+00
  0.122000D+00  0.501240D+00
   s     1 1.00
  0.122000D+00  0.100000D+01
   p     1 1.00
  0.727000D+00  0.100000D+01
  
[MO]
 Sym= __1_A__
 Ene=  0.000000000000000E+000
 Spin= Alpha
 Occup=    2.00000000000000     
                     1  4.021058574935109E-005
                     2  0.998087074372833     
                     3  9.055009032352235E-003
                     4  2.047243261197688E-003
                     5  1.581202184618159E-003
                     6 -5.981657894790672E-012
                     7  2.913455227811640E-010
                     8  4.457965904270471E-003
                     9  5.572107938250638E-012
                    10  1.286593712233794E-008
                    11 -1.208130567910754E-004
                    12 -1.860243574048056E-013
                    13 -6.245045577038637E-008
                    14 -1.063053208386753E-004
                    15  2.622237887142258E-004
                    16 -1.764959249074312E-012
                    17 -1.195273714857674E-010
                    18 -1.119434680545342E-004
                    19 -2.219324652777638E-013
                    20  1.546333627486773E-004
                    21 -2.111762924903295E-012
                    22 -1.111112106142607E-008
                    23  5.805419783674512E-004
                    24  7.414918142460514E-013
                    25 -1.829095544523872E-004
                    26 -3.272461290122895E-012
                    27 -4.664847347927443E-009
                    28  8.668577148559663E-005
                    29 -1.909795882063078E-013
                    30  9.733675554163335E-013
                    31  2.391629177573176E-010
                    32 -3.610567612955126E-004
                    33  2.670307338461993E-003
                    34  1.358940868808953E-004
                    35 -2.260144028822406E-004
                    36  2.348855595783462E-012
                    37  2.789072876046959E-008
                    38 -6.995854032591422E-003
                    39 -3.002490089435924E-013
                    40 -1.087190949425547E-007
                    41  3.401885614872556E-004
                    42 -2.690093947643002E-012
                    43 -1.197933159450307E-007
                    44  4.390349389075471E-003
                    45  3.482005749073569E-004
                    46 -8.962310676453255E-013
                    47  7.707152958112287E-009
                    48  1.371358730837187E-004
                    49  3.946145457976572E-012
                    50  6.333526967600397E-005
                    51 -3.962013698804897E-012
                    52 -1.715155670633285E-007
                    53 -4.490891739206130E-004
                    54 -1.953105238817424E-012
                    55 -1.071452951049094E-004
                    56  7.480424256040511E-014
                    57  3.211635222678182E-009
                    58  7.776527655613089E-005
                    59 -2.448314944579212E-013
                    60  1.522007831423571E-012
                    61  2.738939682299746E-009
                    62 -2.104324754498961E-004
                    63 -1.665804827107373E-003
                    64  5.817998683971705E-005
                    65  5.581124380692119E-004
                    66  5.909819319654804E-012
                    67 -8.299969944508259E-004
                    68  1.000923230230225E-003
                    69 -4.137343274466192E-012
                    70 -3.168580301438977E-005
                    71  6.150223332228997E-004
                    72  1.768036179665184E-012
                    73 -5.616448218901260E-004
                    74 -1.432953398698971E-004
                    75  9.162147673021364E-005
                    76 -1.013332089294708E-012
                    77 -8.272217033925355E-006
                    78  4.127954250376154E-005
                    79 -1.479625160995467E-012
                    80 -2.305772976896047E-005
                    81  5.648239726968269E-012
                    82  2.021292659701440E-004
                    83 -3.108145263135204E-005
                    84  3.626695409592890E-012
                    85 -9.337226148256141E-005
                    86  3.505392074425681E-013
                    87 -2.974788862463637E-005
                    88  2.007178198847366E-005
                    89 -1.203856771621165E-012
                    90  6.824134977114143E-013
                    91  1.256669649590748E-005
                    92 -2.104150057310330E-004
                    93 -1.665720752672451E-003
                    94  5.835109204636978E-005
                    95  5.575543266271765E-004
                    96 -2.355972843517875E-012
                    97  8.300326946483205E-004
                    98  1.001051048017181E-003
                    99 -1.825583164836274E-013
                   100  3.148451103293895E-005
                   101  6.142597465597930E-004
                   102  5.426861632369798E-012
                   103  5.610493265203230E-004
                   104 -1.434325628731120E-004
                   105  9.158622605429949E-005
                   106  1.170573409779596E-012
                   107  8.287519152059604E-006
                   108  4.128258766778022E-005
                   109  1.322517739570205E-012
                   110 -2.354224913364273E-005
                   111  8.881162179378112E-014
                   112 -2.021938214625113E-004
                   113 -3.120367919057038E-005
                   114 -1.049392898201148E-012
                   115 -9.330419238026435E-005
                   116  8.382292243507749E-013
                   117  2.973252876291907E-005
                   118  2.007299001646212E-005
                   119 -1.649605391581137E-012
                   120  4.982545997064695E-013
                   121 -1.256509315283929E-005
                   122 -1.461413687115027E-004
                   123  5.864777426024977E-006
                   124  1.095862442938338E-004
                   125  1.303981715561629E-004
                   126  9.922558893516219E-012
                   127  3.951470567151881E-005
                   128 -7.914350960306294E-004
                   129 -1.472840519601733E-011
                   130  2.444034765290052E-005
                   131  3.489059500983182E-004
                   132 -8.181685484204913E-012
                   133 -1.758226683400092E-004
                   134  7.042688326856582E-004
                   135 -1.726571217113462E-005
                   136  5.070328964850296E-013
                   137  1.600322687764745E-006
                   138  1.216662172425779E-006
                   139  1.393473639907323E-012
                   140 -1.884205636517984E-004
                   141  3.002507841032245E-012
                   142  1.674858268121912E-004
                   143  1.361289210625278E-005
                   144 -3.059169306062019E-012
                   145 -3.933887036455363E-005
                   146 -7.881565651401143E-013
                   147  1.596351893812606E-006
                   148 -9.745204733063260E-006
                   149 -1.085865129960179E-012
                   150 -9.987560873594116E-013
                   151 -3.698944478182660E-006
                   152 -1.465610143673591E-004
                   153  4.376721163973948E-006
                   154  1.091756514825559E-004
                   155  1.329908601731112E-004
                   156 -4.866748756299462E-013
                   157 -3.955431532261467E-005
                   158 -7.913516791926559E-004
                   159  3.291515520889791E-012
                   160 -2.442716944728638E-005
                   161  3.483085957476551E-004
                   162 -3.861787548623040E-012
                   163  1.764569523832714E-004
                   164  7.041421476153307E-004
                   165 -1.721357938660319E-005
                   166 -1.354891535803394E-012
                   167 -1.594042294244742E-006
                   168  1.182768420505564E-006
                   169 -3.762183567631257E-013
                   170 -1.881781654621286E-004
                   171  3.913947202734377E-014
                   172 -1.676045960737871E-004
                   173  1.364147970260093E-005
                   174  1.953614958145670E-012
                   175 -3.925549191750688E-005
                   176 -4.085148116938470E-013
                   177 -1.568283940433225E-006
                   178 -9.777914599393004E-006
                   179  3.149211796844368E-013
                   180 -1.276388070399314E-012
                   181  3.693135249088706E-006
                   182 -1.191656339935289E-004
                   183 -3.203381527374054E-004
                   184  3.222124461256449E-005
                   185  1.424590065689161E-004
                   186 -1.382960372436669E-012
                   187  1.290457533098103E-008
                   188 -3.915331164891972E-005
                   189  1.519925796496551E-012
                   190 -1.285530719465303E-007
                   191  1.888545982683969E-005
                   192  2.318290268928409E-012
                   193  1.385362742161421E-007
                   194  4.944697132059747E-005
                   195  1.930159739954225E-005
                   196 -1.189106028366319E-013
                   197  1.051386799467084E-008
                   198  9.134125544438658E-006
                   199  2.222821570020926E-012
                   200  5.821126944757710E-005
                   201 -5.588193132112421E-013
                   202  7.101707353789258E-008
                   203  5.098133971628326E-005
                   204 -2.662028548180940E-012
                   205 -1.120784776674786E-005
                   206  4.050108057581508E-013
                   207 -9.455836358557834E-009
                   208  2.668150924848102E-006
                   209  1.351408287113744E-012
                   210 -7.548417944582005E-014
                   211  8.366278771238784E-009
                   212  3.774785084299833E-003
                   213 -2.284626612067308E-003
                   214  2.313250655921790E-012
                   215  4.658688870121063E-004
                   216  3.774584547838068E-004
                   217  3.774830017999774E-003
                   218 -2.284640628454536E-003
                   219  5.139194082897567E-013
                   220 -4.658931517591375E-004
                   221  3.774696438734206E-004
                   222 -6.601398237375045E-004
                   223 -1.249055327249931E-004
                   224  1.866654663373961E-012
                   225 -1.655026802443093E-005
                   226 -4.480031906727302E-005
                   227 -6.602177494958901E-004
                   228 -1.246071433101810E-004
                   229 -1.837634010639523E-012
                   230  1.652728906842656E-005
                   231 -4.483094639227278E-005
                   232 -2.291825946180056E-004
                   233 -4.078326943226923E-004
                   234  1.440159712026607E-012
                   235 -5.294704868437593E-006
                   236  5.396164374049310E-006
                   237 -2.293011320917168E-004
                   238 -4.079183320423675E-004
                   239 -5.038623463543747E-013
                   240  5.361355258246336E-006
                   241  5.433364903860401E-006
                   242  7.074302425422875E-005
                   243 -1.272407439741292E-004
                   244 -1.014563083486399E-012
                   245 -6.767224991189826E-009
                   246  1.407238344390609E-005
 Sym= __2_A__
 Ene=  0.000000000000000E+000
 Spin= Alpha
 Occup=    2.00000000000000     
                     1 -4.680688087278975E-005
                     2 -2.090701260750940E-004
                     3  2.288618419410642E-003
                     4  9.748208921052926E-005
                     5  1.256909132023338E-003
                     6 -3.882481456269224E-012
                     7  5.324880735921347E-009
                     8  2.986393170059081E-003
                     9  8.765084569845199E-013
                    10 -3.691766566579481E-009
                    11 -5.206686012980414E-005
                    12  1.602480857787191E-012
                    13  4.583036757941344E-009
                    14 -5.305046920642770E-004
                    15  4.410367248268881E-005
                    16 -5.571453771885917E-013
                    17  4.112018143376321E-010
                    18  6.530158083637167E-005
                    19  1.710896623654895E-013
                    20 -2.779595127412545E-004
                    21 -2.774918037992898E-012
                    22  2.615877845723903E-010
                    23 -3.338684974389844E-004
                    24  3.774777257398336E-012
                    25  1.819658915314737E-004
                    26  4.962529504549053E-013
                    27 -8.590309260788893E-010
                    28 -1.326349278441865E-006
                    29  1.806796589922782E-012
                    30 -9.464651425069050E-013
                    31  7.843225495842718E-010
                    32   1.00106223475063     
                    33  9.276099102450920E-003
                    34  2.628691575240805E-003
                    35 -7.768443057052671E-003
                    36  1.820424010436687E-013
                    37 -5.282123346102252E-009
                    38 -4.115092163571178E-003
                    39 -5.506706584832698E-012
                    40  1.761504405318878E-009
                    41  1.017675300304181E-003
                    42 -1.313485648030117E-011
                    43 -6.035244355292763E-008
                    44  4.417915375443609E-003
                    45  4.666716433286081E-004
                    46  1.227267426988691E-012
                    47 -2.970843877430960E-009
                    48 -4.333520900693130E-004
                    49 -2.565004427161635E-012
                    50  5.785365441420091E-004
                    51 -1.782975216780850E-012
                    52  1.037714317649772E-008
                    53  9.418056458208914E-004
                    54 -4.055709357468069E-013
                    55  3.825589396051482E-004
                    56 -6.712714827143641E-013
                    57 -5.560540431301142E-010
                    58 -2.068154113768170E-004
                    59  2.169234170614524E-012
                    60 -1.087226277331420E-012
                    61  1.538391455637002E-009
                    62  7.289956981282946E-003
                    63 -2.054260200416714E-003
                    64 -2.768522512393099E-004
                    65  3.041855388012756E-003
                    66 -1.252528876013797E-011
                    67  9.873537740607385E-005
                    68 -1.044053563267587E-005
                    69  3.436075200532721E-012
                    70  5.959083811636907E-004
                    71  1.631833700737190E-005
                    72  1.027625518950510E-011
                    73 -2.089391392462809E-003
                    74  9.860997882277512E-005
                    75 -1.534027344946730E-005
                    76 -2.736916603073885E-014
                    77  1.442910678265866E-005
                    78  2.930416783265804E-005
                    79 -4.235070329109977E-012
                    80  7.688755137717456E-004
                    81 -1.400944877535568E-011
                    82 -4.245875885743221E-004
                    83 -9.966253317417450E-006
                    84  4.862393730012754E-012
                    85  7.263248854542962E-005
                    86 -1.346791487928026E-012
                    87  4.527589574762336E-005
                    88 -1.265217336372985E-004
                    89  3.066966926378748E-012
                    90  1.699766451992058E-013
                    91  5.037940691422570E-005
                    92  7.289931204492699E-003
                    93 -2.054346371461691E-003
                    94 -2.768951157489773E-004
                    95  3.042059273127910E-003
                    96 -9.755988226730905E-012
                    97 -9.873670253185382E-005
                    98 -1.046334381984866E-005
                    99  1.038364478743909E-011
                   100 -5.959058341545777E-004
                   101  1.645010851732015E-005
                   102  1.756752608479138E-011
                   103  2.089520096479846E-003
                   104  9.846624571968389E-005
                   105 -1.532549556747361E-005
                   106  6.731791140925554E-013
                   107 -1.443538205687541E-005
                   108  2.930269396820860E-005
                   109 -3.065790795433006E-012
                   110  7.689355237219196E-004
                   111  3.476200505375046E-012
                   112  4.246353427188571E-004
                   113 -9.947037257026104E-006
                   114 -3.807196292341462E-012
                   115  7.261925214602581E-005
                   116  4.234322479007493E-012
                   117 -4.527327060230422E-005
                   118 -1.265192515128801E-004
                   119  7.012359670219562E-012
                   120  4.378393430140093E-012
                   121 -5.037801112152730E-005
                   122 -2.315680665329751E-004
                   123 -7.514007298572427E-004
                   124  2.250977872525066E-004
                   125 -1.170061143050862E-004
                   126  7.084269116192310E-012
                   127 -1.908701689272705E-005
                   128 -2.549714091656958E-004
                   129 -4.598776462388381E-012
                   130 -7.072917998229628E-006
                   131  5.370790174856549E-004
                   132  1.440484818842276E-012
                   133  3.295936215790154E-004
                   134  7.451413352647350E-004
                   135 -1.433030907821146E-005
                   136  9.627876893014102E-013
                   137  5.125547988568942E-005
                   138  1.398648625813557E-005
                   139 -4.002409378683498E-012
                   140 -2.901624216019263E-004
                   141 -9.300222854170039E-012
                   142 -2.200054039936129E-004
                   143 -1.401880909775735E-005
                   144 -2.019523561133976E-012
                   145  9.701560831529656E-007
                   146 -2.728783392855831E-012
                   147 -4.046403529810942E-005
                   148 -3.931427626263910E-005
                   149  3.714419062213197E-013
                   150 -2.782595687213101E-012
                   151 -5.559698209850421E-006
                   152 -2.312869445824262E-004
                   153 -7.504665142779982E-004
                   154  2.251611089389420E-004
                   155 -1.179912462025352E-004
                   156 -9.614728298014416E-012
                   157  1.907910536208603E-005
                   158 -2.549756911240832E-004
                   159  1.145566806449463E-011
                   160  7.109357310892267E-006