[Molden Format]
[Atoms] AU
  N     1    7    -0.0985792400   -4.3469516800    0.0000000000        
  C     2    6     0.0280702500   -1.8274634900    0.0000000000        
  C     3    6    -2.2973407900   -0.4276905900    0.0000000000        
  C     4    6     2.3344894000   -0.4028246200    0.0000000000        
  C     5    6    -2.2791324200    2.1563700800    0.0000000000        
  C     6    6     2.2977552300    2.1828850300    0.0000000000        
  C     7    6     0.0027151000    3.4908729500    0.0000000000        
  H     8    1    -3.0886924000   -6.3346054500    0.0000000000        
  H     9    1     1.6912467200   -5.0973417900    0.0000000000        
  H    10    1    -4.0320508300   -1.4696175800    0.0000000000        
  H    11    1     4.0978721300   -1.4069504400    0.0000000000        
  H    12    1    -4.0321647400    3.1785048600    0.0000000000        
  H    13    1     4.0416765000    3.2204118800    0.0000000000        
  H    14    1    -0.0075636900    5.5185342100    0.0000000000        
[5D]
[7F]
[GTO]
  1  0
   s    12 1.00
  0.114200D+05  0.172695D-04
  0.171200D+04  0.134411D-03
  0.389300D+03  0.694561D-03
  0.110000D+03  0.278531D-02
  0.355700D+02  0.863457D-02
  0.125400D+02  0.199805D-01
  0.464400D+01  0.262908D-01
  0.129300D+01 -0.243845D-01
  0.511800D+00 -0.924934D-01
  0.178700D+00 -0.339683D+00
  0.246240D-01  0.345111D+00
  0.112530D-01  0.752750D+00
   s    10 1.00
  0.114200D+05  0.523000D-03
  0.171200D+04  0.404500D-02
  0.389300D+03  0.207750D-01
  0.110000D+03  0.807269D-01
  0.355700D+02  0.233074D+00
  0.125400D+02  0.433501D+00
  0.464400D+01  0.347472D+00
  0.129300D+01  0.412620D-01
  0.511800D+00 -0.850799D-02
  0.178700D+00  0.238400D-02
   s    10 1.00
  0.114200D+05 -0.115000D-03
  0.171200D+04 -0.895000D-03
  0.389300D+03 -0.462400D-02
  0.110000D+03 -0.185280D-01
  0.355700D+02 -0.573390D-01
  0.125400D+02 -0.132076D+00
  0.464400D+01 -0.172510D+00
  0.129300D+01  0.151814D+00
  0.511800D+00  0.599944D+00
  0.178700D+00  0.387462D+00
   s     1 1.00
  0.129300D+01  0.100000D+01
   s     1 1.00
  0.178700D+00  0.100000D+01
   p     5 1.00
  0.266300D+02  0.146700D-01
  0.594800D+01  0.917640D-01
  0.174200D+01  0.298683D+00
  0.555000D+00  0.498487D+00
  0.172500D+00  0.337023D+00
   p     1 1.00
  0.174200D+01  0.100000D+01
   p     1 1.00
  0.555000D+00  0.100000D+01
   d     1 1.00
  0.165400D+01  0.100000D+01
   d     1 1.00
  0.469000D+00  0.100000D+01
   f     1 1.00
  0.109300D+01  0.100000D+01
  
  2  0
   s    10 1.00
  0.823600D+04  0.531000D-03
  0.123500D+04  0.410800D-02
  0.280800D+03  0.210870D-01
  0.792700D+02  0.818530D-01
  0.255900D+02  0.234817D+00
  0.899700D+01  0.434401D+00
  0.331900D+01  0.346129D+00
  0.905900D+00  0.393780D-01
  0.364300D+00 -0.898300D-02
  0.128500D+00  0.238500D-02
   s    10 1.00
  0.823600D+04 -0.113000D-03
  0.123500D+04 -0.878000D-03
  0.280800D+03 -0.454000D-02
  0.792700D+02 -0.181330D-01
  0.255900D+02 -0.557600D-01
  0.899700D+01 -0.126895D+00
  0.331900D+01 -0.170352D+00
  0.905900D+00  0.140382D+00
  0.364300D+00  0.598684D+00
  0.128500D+00  0.395389D+00
   s     1 1.00
  0.905900D+00  0.100000D+01
   s     1 1.00
  0.364300D+00  0.100000D+01
   p     5 1.00
  0.187100D+02  0.140310D-01
  0.413300D+01  0.868660D-01
  0.120000D+01  0.290216D+00
  0.382700D+00  0.501008D+00
  0.120900D+00  0.343406D+00
   p     1 1.00
  0.382700D+00  0.100000D+01
   p     1 1.00
  0.120900D+00  0.100000D+01
   d     1 1.00
  0.109700D+01  0.100000D+01
   d     1 1.00
  0.318000D+00  0.100000D+01
   f     1 1.00
  0.761000D+00  0.100000D+01
  
  3  0
   s    10 1.00
  0.823600D+04  0.531000D-03
  0.123500D+04  0.410800D-02
  0.280800D+03  0.210870D-01
  0.792700D+02  0.818530D-01
  0.255900D+02  0.234817D+00
  0.899700D+01  0.434401D+00
  0.331900D+01  0.346129D+00
  0.905900D+00  0.393780D-01
  0.364300D+00 -0.898300D-02
  0.128500D+00  0.238500D-02
   s    10 1.00
  0.823600D+04 -0.113000D-03
  0.123500D+04 -0.878000D-03
  0.280800D+03 -0.454000D-02
  0.792700D+02 -0.181330D-01
  0.255900D+02 -0.557600D-01
  0.899700D+01 -0.126895D+00
  0.331900D+01 -0.170352D+00
  0.905900D+00  0.140382D+00
  0.364300D+00  0.598684D+00
  0.128500D+00  0.395389D+00
   s     1 1.00
  0.905900D+00  0.100000D+01
   s     1 1.00
  0.364300D+00  0.100000D+01
   p     5 1.00
  0.187100D+02  0.140310D-01
  0.413300D+01  0.868660D-01
  0.120000D+01  0.290216D+00
  0.382700D+00  0.501008D+00
  0.120900D+00  0.343406D+00
   p     1 1.00
  0.382700D+00  0.100000D+01
   p     1 1.00
  0.120900D+00  0.100000D+01
   d     1 1.00
  0.109700D+01  0.100000D+01
   d     1 1.00
  0.318000D+00  0.100000D+01
   f     1 1.00
  0.761000D+00  0.100000D+01
  
  4  0
   s    10 1.00
  0.823600D+04  0.531000D-03
  0.123500D+04  0.410800D-02
  0.280800D+03  0.210870D-01
  0.792700D+02  0.818530D-01
  0.255900D+02  0.234817D+00
  0.899700D+01  0.434401D+00
  0.331900D+01  0.346129D+00
  0.905900D+00  0.393780D-01
  0.364300D+00 -0.898300D-02
  0.128500D+00  0.238500D-02
   s    10 1.00
  0.823600D+04 -0.113000D-03
  0.123500D+04 -0.878000D-03
  0.280800D+03 -0.454000D-02
  0.792700D+02 -0.181330D-01
  0.255900D+02 -0.557600D-01
  0.899700D+01 -0.126895D+00
  0.331900D+01 -0.170352D+00
  0.905900D+00  0.140382D+00
  0.364300D+00  0.598684D+00
  0.128500D+00  0.395389D+00
   s     1 1.00
  0.905900D+00  0.100000D+01
   s     1 1.00
  0.364300D+00  0.100000D+01
   p     5 1.00
  0.187100D+02  0.140310D-01
  0.413300D+01  0.868660D-01
  0.120000D+01  0.290216D+00
  0.382700D+00  0.501008D+00
  0.120900D+00  0.343406D+00
   p     1 1.00
  0.382700D+00  0.100000D+01
   p     1 1.00
  0.120900D+00  0.100000D+01
   d     1 1.00
  0.109700D+01  0.100000D+01
   d     1 1.00
  0.318000D+00  0.100000D+01
   f     1 1.00
  0.761000D+00  0.100000D+01
  
  5  0
   s    10 1.00
  0.823600D+04  0.531000D-03
  0.123500D+04  0.410800D-02
  0.280800D+03  0.210870D-01
  0.792700D+02  0.818530D-01
  0.255900D+02  0.234817D+00
  0.899700D+01  0.434401D+00
  0.331900D+01  0.346129D+00
  0.905900D+00  0.393780D-01
  0.364300D+00 -0.898300D-02
  0.128500D+00  0.238500D-02
   s    10 1.00
  0.823600D+04 -0.113000D-03
  0.123500D+04 -0.878000D-03
  0.280800D+03 -0.454000D-02
  0.792700D+02 -0.181330D-01
  0.255900D+02 -0.557600D-01
  0.899700D+01 -0.126895D+00
  0.331900D+01 -0.170352D+00
  0.905900D+00  0.140382D+00
  0.364300D+00  0.598684D+00
  0.128500D+00  0.395389D+00
   s     1 1.00
  0.905900D+00  0.100000D+01
   s     1 1.00
  0.364300D+00  0.100000D+01
   p     5 1.00
  0.187100D+02  0.140310D-01
  0.413300D+01  0.868660D-01
  0.120000D+01  0.290216D+00
  0.382700D+00  0.501008D+00
  0.120900D+00  0.343406D+00
   p     1 1.00
  0.382700D+00  0.100000D+01
   p     1 1.00
  0.120900D+00  0.100000D+01
   d     1 1.00
  0.109700D+01  0.100000D+01
   d     1 1.00
  0.318000D+00  0.100000D+01
   f     1 1.00
  0.761000D+00  0.100000D+01
  
  6  0
   s    10 1.00
  0.823600D+04  0.531000D-03
  0.123500D+04  0.410800D-02
  0.280800D+03  0.210870D-01
  0.792700D+02  0.818530D-01
  0.255900D+02  0.234817D+00
  0.899700D+01  0.434401D+00
  0.331900D+01  0.346129D+00
  0.905900D+00  0.393780D-01
  0.364300D+00 -0.898300D-02
  0.128500D+00  0.238500D-02
   s    10 1.00
  0.823600D+04 -0.113000D-03
  0.123500D+04 -0.878000D-03
  0.280800D+03 -0.454000D-02
  0.792700D+02 -0.181330D-01
  0.255900D+02 -0.557600D-01
  0.899700D+01 -0.126895D+00
  0.331900D+01 -0.170352D+00
  0.905900D+00  0.140382D+00
  0.364300D+00  0.598684D+00
  0.128500D+00  0.395389D+00
   s     1 1.00
  0.905900D+00  0.100000D+01
   s     1 1.00
  0.364300D+00  0.100000D+01
   p     5 1.00
  0.187100D+02  0.140310D-01
  0.413300D+01  0.868660D-01
  0.120000D+01  0.290216D+00
  0.382700D+00  0.501008D+00
  0.120900D+00  0.343406D+00
   p     1 1.00
  0.382700D+00  0.100000D+01
   p     1 1.00
  0.120900D+00  0.100000D+01
   d     1 1.00
  0.109700D+01  0.100000D+01
   d     1 1.00
  0.318000D+00  0.100000D+01
   f     1 1.00
  0.761000D+00  0.100000D+01
  
  7  0
   s    10 1.00
  0.823600D+04  0.531000D-03
  0.123500D+04  0.410800D-02
  0.280800D+03  0.210870D-01
  0.792700D+02  0.818530D-01
  0.255900D+02  0.234817D+00
  0.899700D+01  0.434401D+00
  0.331900D+01  0.346129D+00
  0.905900D+00  0.393780D-01
  0.364300D+00 -0.898300D-02
  0.128500D+00  0.238500D-02
   s    10 1.00
  0.823600D+04 -0.113000D-03
  0.123500D+04 -0.878000D-03
  0.280800D+03 -0.454000D-02
  0.792700D+02 -0.181330D-01
  0.255900D+02 -0.557600D-01
  0.899700D+01 -0.126895D+00
  0.331900D+01 -0.170352D+00
  0.905900D+00  0.140382D+00
  0.364300D+00  0.598684D+00
  0.128500D+00  0.395389D+00
   s     1 1.00
  0.905900D+00  0.100000D+01
   s     1 1.00
  0.364300D+00  0.100000D+01
   p     5 1.00
  0.187100D+02  0.140310D-01
  0.413300D+01  0.868660D-01
  0.120000D+01  0.290216D+00
  0.382700D+00  0.501008D+00
  0.120900D+00  0.343406D+00
   p     1 1.00
  0.382700D+00  0.100000D+01
   p     1 1.00
  0.120900D+00  0.100000D+01
   d     1 1.00
  0.109700D+01  0.100000D+01
   d     1 1.00
  0.318000D+00  0.100000D+01
   f     1 1.00
  0.761000D+00  0.100000D+01
  
  8  0
   s     4 1.00
  0.130100D+02  0.196850D-01
  0.196200D+01  0.137977D+00
  0.444600D+00  0.478148D+00
  0.122000D+00  0.501240D+00
   s     1 1.00
  0.122000D+00  0.100000D+01
   p     1 1.00
  0.727000D+00  0.100000D+01
  
  9  0
   s     4 1.00
  0.130100D+02  0.196850D-01
  0.196200D+01  0.137977D+00
  0.444600D+00  0.478148D+00
  0.122000D+00  0.501240D+00
   s     1 1.00
  0.122000D+00  0.100000D+01
   p     1 1.00
  0.727000D+00  0.100000D+01
  
 10  0
   s     4 1.00
  0.130100D+02  0.196850D-01
  0.196200D+01  0.137977D+00
  0.444600D+00  0.478148D+00
  0.122000D+00  0.501240D+00
   s     1 1.00
  0.122000D+00  0.100000D+01
   p     1 1.00
  0.727000D+00  0.100000D+01
  
 11  0
   s     4 1.00
  0.130100D+02  0.196850D-01
  0.196200D+01  0.137977D+00
  0.444600D+00  0.478148D+00
  0.122000D+00  0.501240D+00
   s     1 1.00
  0.122000D+00  0.100000D+01
   p     1 1.00
  0.727000D+00  0.100000D+01
  
 12  0
   s     4 1.00
  0.130100D+02  0.196850D-01
  0.196200D+01  0.137977D+00
  0.444600D+00  0.478148D+00
  0.122000D+00  0.501240D+00
   s     1 1.00
  0.122000D+00  0.100000D+01
   p     1 1.00
  0.727000D+00  0.100000D+01
  
 13  0
   s     4 1.00
  0.130100D+02  0.196850D-01
  0.196200D+01  0.137977D+00
  0.444600D+00  0.478148D+00
  0.122000D+00  0.501240D+00
   s     1 1.00
  0.122000D+00  0.100000D+01
   p     1 1.00
  0.727000D+00  0.100000D+01
  
 14  0
   s     4 1.00
  0.130100D+02  0.196850D-01
  0.196200D+01  0.137977D+00
  0.444600D+00  0.478148D+00
  0.122000D+00  0.501240D+00
   s     1 1.00
  0.122000D+00  0.100000D+01
   p     1 1.00
  0.727000D+00  0.100000D+01
  
[MO]
 Sym= __1_a__
 Ene=  0.000000000000000E+000
 Spin= Alpha
 Occup=    2.00000000000000     
                     1  8.123785616377620E-005
                     2  0.998324257894100     
                     3  2.761491721760050E-003
                     4  1.710633801083970E-003
                     5  5.404904556622430E-003
                     6  3.527206287542510E-003
                     7  6.229253172166620E-003
                     8  2.640077657737250E-012
                     9 -6.085655387946540E-004
                    10 -6.081674978761520E-004
                    11 -7.555200420370610E-013
                    12 -2.433480101093570E-003
                    13 -1.632334856331450E-003
                    14 -7.658986030419719E-012
                    15 -1.078532216124670E-004
                    16  8.853595945269760E-013
                    17  3.127857709266100E-013
                    18 -1.797542497650154E-004
                    19 -8.734277709879780E-005
                    20  7.663589285532186E-005
                    21 -1.027895229816530E-014
                    22 -3.651173986173920E-012
                    23 -3.171006841187340E-004
                    24  5.854057515462460E-004
                    25 -1.550899897777422E-012
                    26 -1.524529591744351E-005
                    27 -6.292088578443109E-005
                    28  1.911998203682760E-012
                    29 -1.251023595052660E-012
                    30  3.703708409021840E-005
                    31 -1.541237502653845E-004
                    32 -4.054287376815080E-004
                    33  1.147145074927130E-003
                    34  3.330695087262750E-004
                    35 -3.794705416837250E-004
                    36 -3.461401801788380E-004
                    37 -4.987259743331790E-003
                    38  4.081464982908460E-012
                    39  4.766604836715460E-004
                    40  5.290208174269000E-004
                    41 -2.612242006172490E-013
                    42 -2.195198564979000E-003
                    43  5.517579279859160E-003
                    44 -5.893914344878640E-012
                    45 -1.595016919519512E-005
                    46 -2.964683899441990E-012
                    47 -1.918382875800860E-013
                    48 -2.281771751313720E-004
                    49 -7.938935889598051E-006
                    50 -2.485521172600657E-004
                    51  2.406431303635620E-012
                    52 -6.491184686971490E-012
                    53  4.874768974297000E-005
                    54  8.730722849584390E-004
                    55 -7.450977633830508E-013
                    56 -9.453379742699584E-006
                    57 -5.831228872900863E-005
                    58 -3.254478739222780E-012
                    59 -1.248574241472760E-012
                    60  2.996804200154111E-005
                    61 -1.204304970766264E-004
                    62 -5.033505571046280E-004
                    63 -2.363453817878330E-003
                    64 -8.829955702315470E-005
                    65  2.170010043619570E-003
                    66 -6.854492694526760E-004
                    67  5.572002336737530E-004
                    68  1.101106719829580E-011
                    69  4.414844349498310E-004
                    70  8.495209993243770E-004
                    71 -1.026204564509970E-012
                    72 -1.918447001794340E-003
                    73  8.950383603855940E-004
                    74  3.245434697055200E-012
                    75 -4.116781418545545E-005
                    76 -2.544677894613810E-012
                    77 -4.129527466405970E-012
                    78 -8.624485401654200E-005
                    79 -2.741385462924390E-005
                    80 -1.249956699131289E-004
                    81  4.544176658337430E-012
                    82  6.475417493797340E-012
                    83  5.575107128281060E-005
                    84  8.434737780629680E-005
                    85  1.771848445919532E-012
                    86  1.355467269641043E-005
                    87 -5.048077928780930E-005
                    88 -2.065151347528060E-012
                    89 -6.114396271808910E-013
                    90 -1.786019269195939E-005
                    91 -1.525459172802913E-004
                    92 -1.772016825184500E-004
                    93 -1.257236390970960E-003
                    94  2.110466292690290E-004
                    95 -2.158588665770300E-004
                    96  6.163616580040050E-004
                    97  7.986609369870350E-004
                    98  5.552410714500940E-012
                    99  4.335696343916310E-004
                   100  3.627397569347600E-004
                   101 -6.383554960043060E-012
                   102  4.561721115265740E-004
                   103 -1.844035884239500E-003
                   104  2.451787794720840E-012
                   105  2.500050410102505E-006
                   106  4.718190743482660E-012
                   107 -1.230125463986670E-012
                   108 -8.164197346593140E-005
                   109 -2.431851105026430E-005
                   110  1.013571585794063E-004
                   111 -6.103762036631390E-012
                   112 -1.318671717879900E-012
                   113 -1.910546237728348E-004
                   114 -1.971429527129110E-005
                   115  1.109160397602330E-012
                   116 -2.684970648695765E-005
                   117 -2.614473148723132E-005
                   118 -9.686765079435480E-013
                   119 -8.059458593420560E-013
                   120 -1.806658870778510E-005
                   121 -2.278854835247485E-005
                   122 -2.548786551422220E-004
                   123 -4.728531646322540E-004
                   124  1.731005111817130E-004
                   125  3.320672780184680E-004
                   126 -1.713568619721730E-005
                   127 -6.110839906668470E-004
                   128  1.218344198899250E-011
                   129  1.922171995054310E-004
                   130  6.450523362979790E-004
                   131 -5.908380814009210E-012
                   132  5.859352097156420E-004
                   133  2.171975380676200E-003
                   134 -7.343688914246050E-013
                   135  1.317727615293323E-005
                   136 -2.408812631862360E-012
                   137  9.804411252840050E-014
                   138  3.872003178129340E-005
                   139  2.077661572439510E-006
                   140  1.938373970027537E-004
                   141  5.578759282078410E-012
                   142  4.316743685108730E-012
                   143  3.926564174931740E-004
                   144  2.490222543411920E-004
                   145 -2.463334955194492E-012
                   146 -9.473892043897685E-006
                   147 -6.270584512065845E-005
                   148  2.846442839393300E-013
                   149  4.586370951240660E-013
                   150 -2.035215522106654E-005
                   151 -4.783586528443706E-005
                   152 -1.518682214857350E-004
                   153 -1.398697363556790E-004
                   154  5.372573317930230E-005
                   155  2.254186649055320E-004
                   156 -3.350181355744990E-005
                   157 -5.527886766791900E-004
                   158  4.241048117493240E-012
                   159  4.702339495965520E-005
                   160  5.978364175320560E-005
                   161 -9.109832862982620E-013
                   162  8.116648644326600E-004
                   163 -4.261414415306100E-004
                   164 -2.889590281757010E-013
                   165 -2.140639328933001E-006
                   166  1.398297897122670E-012
                   167  1.325091623653660E-012
                   168 -1.015064565901338E-005
                   169  1.149841994606010E-006
                   170  8.715269987432221E-005
                   171  2.519594186440500E-012
                   172 -2.085571794771800E-012
                   173  2.128302763163020E-005
                   174 -3.489238700860740E-006
                   175  1.723570351161994E-012
                   176  1.233609899786246E-006
                   177 -8.768243408880360E-006
                   178  4.504332724372900E-014
                   179  1.690197468340070E-012
                   180 -1.621120654960087E-005
                   181 -1.823034323235964E-005
                   182 -1.604502711435330E-004
                   183 -4.746658072688010E-004
                   184  3.762175790474940E-005
                   185  2.295873905552610E-004
                   186 -4.663739730225890E-005
                   187 -4.240058119862780E-005
                   188  3.589360760124550E-012
                   189  2.588609848103780E-004
                   190  9.062450922626100E-005
                   191  2.393778171895820E-012
                   192  1.487995647380420E-003
                   193 -2.589091337575340E-004
                   194 -5.543990873841350E-012
                   195  1.390140542479504E-006
                   196 -2.217939860862170E-012
                   197 -2.012008973615460E-012
                   198 -1.197042600749736E-005
                   199  3.939544040802960E-006
                   200 -1.214884066068462E-005
                   201  4.785159157509420E-012
                   202 -2.354272878662190E-012
                   203 -8.341305550370340E-005
                   204 -2.074397415572230E-004
                   205 -1.391107664066777E-012
                   206 -8.995166297515190E-006
                   207 -4.198524165501841E-006
                   208  1.920390224959930E-012
                   209 -3.509436788243600E-012
                   210  9.761542784206319E-006
                   211 -7.823346851265633E-006
                   212 -6.019500958578780E-005
                   213  1.051708467015250E-004
                   214  5.367449426901750E-005
                   215  7.090217686426291E-005
                   216  2.189780908935390E-012
                   217  1.752080895043130E-003
                   218 -1.793114445603640E-003
                   219 -4.552092759451050E-004
                   220  1.675471041445400E-004
                   221  4.643235819008200E-013
                   222 -4.988376312956330E-004
                   223 -6.368452285518370E-004
                   224  3.409059450844510E-006
                   225 -7.061442345504880E-005
                   226 -1.310832774236130E-013
                   227 -3.019709182289080E-004
                   228 -4.712196392362710E-004
                   229 -1.688056926796060E-005
                   230 -1.576991892046830E-005
                   231 -1.259377653860410E-012
                   232 -9.617289030751780E-005
                   233 -4.789875482823510E-004
                   234  1.771307104994770E-006
                   235 -1.366704399710450E-006
                   236  1.975798463454510E-012
                   237 -1.851917555275260E-004
                   238 -3.804504814611070E-004
                   239  4.685441070827600E-006
                   240 -2.633016618619890E-007
                   241 -2.659166248694880E-012
                   242  1.042961046319780E-005
                   243  4.588205944974610E-005
                   244 -6.412196173426340E-007
                   245  2.861703003959360E-005
                   246  2.456284896864690E-012
 Sym= __2_a__
 Ene=  0.000000000000000E+000
 Spin= Alpha
 Occup=    2.00000000000000     
                     1 -5.020612113152520E-005
                     2 -2.805098125811570E-004
                     3  2.696711808068760E-003
                     4  1.293474789616630E-004
                     5  1.361414844135570E-003
                     6 -3.726906131198270E-004
                     7  2.976629441590460E-003
                     8  2.545075310332940E-012
                     9 -4.167349734229380E-005
                    10 -1.158198622460940E-004
                    11  1.385624096085870E-012
                    12 -4.062349087768830E-005
                    13 -3.636098868027300E-004
                    14  1.168733404019350E-012
                    15  3.168255329302090E-005
                    16 -1.684629410370570E-012
                    17 -1.545930844616080E-012
                    18 -4.428887456526560E-005
                    19  2.338264044207040E-005
                    20 -1.115504020865742E-004
                    21 -1.280356652160620E-012
                    22  4.793013927577460E-012
                    23  1.234534996000364E-004
                    24 -1.444714668038270E-004
                    25  1.938045582391613E-012
                    26 -1.720304303016699E-005
                    27  9.322219635919867E-005
                    28 -1.482222511572218E-012
                    29  9.733008789219640E-013
                    30 -6.573524878905151E-005
                    31  1.424678215620383E-004
                    32   1.00101865526991     
                    33  9.275232607441709E-003
                    34  2.685543944750880E-003
                    35 -8.050670352144979E-003
                    36 -2.134758603357190E-005
                    37 -3.277632673544340E-003
                    38  2.134595141159200E-012
                    39 -1.973102615199130E-004
                    40  1.906661348247730E-004
                    41 -4.721580952157720E-013
                    42 -1.452405212123460E-004
                    43  4.103385751412150E-003
                    44 -4.956203888458680E-012
                    45 -5.575822687890252E-004
                    46 -2.145079964438080E-012
                    47  2.731987410923580E-012
                    48 -2.128191349368780E-004
                    49  4.393545343849930E-005
                    50  5.278595031680295E-004
                    51  1.404827545590520E-012
                    52  3.898340663467360E-012
                    53 -6.685241853533400E-004
                    54 -3.876439821990240E-004
                    55 -5.445909247800475E-013
                    56  1.226210129357455E-005
                    57  9.842303303394478E-005
                    58  3.171690297040680E-012
                    59 -4.604140223049730E-013
                    60 -3.446240919388713E-005
                    61  3.940221848977471E-004
                    62  8.931433463285300E-003
                    63 -2.076125997860320E-003
                    64 -2.419197818055450E-004
                    65  2.700035106313940E-003
                    66  7.904336450599879E-006
                    67  8.177801384470990E-005
                    68  4.581260611266530E-012
                    69  5.279078774526840E-004
                    70  1.506380445183510E-004
                    71  4.905170894005410E-012
                    72 -2.119796050442250E-003
                    73  2.983973709754270E-004
                    74 -2.429329050765050E-012
                    75  3.645915594181909E-005
                    76  7.487369099072740E-014
                    77 -4.489081232964940E-012
                    78 -4.192080476853720E-006
                    79  3.820350590561520E-006
                    80 -4.214269413655864E-004
                    81 -2.633027230632000E-012
                    82  7.214938690239310E-013
                    83 -6.480644463935900E-004
                    84 -2.408853614718370E-004
                    85  1.241668203235756E-012
                    86  2.737965012162488E-005
                    87 -5.851630084317810E-005
                    88 -6.509303919366180E-013
                    89  3.556531137613910E-012
                    90  3.914718835567934E-005
                    91  1.506368478001016E-004
                    92  1.083491218983810E-002
                    93 -2.070666010111980E-003
                    94 -3.136127381953470E-004
                    95  3.209236377770550E-003
                    96  6.394714755524939E-005
                    97  4.242474683046530E-005
                    98  1.478926529385050E-012
                    99 -9.375898834488710E-004
                   100  1.804233966158340E-005
                   101  2.366577659543690E-012
                   102  1.757330414098020E-003
                   103  2.275362829649080E-005
                   104  6.775586229050200E-012
                   105  2.339777680586319E-005
                   106  1.363756035386890E-012
                   107 -1.359516267181190E-012
                   108 -2.940201540846020E-006
                   109  1.000491644872160E-005
                   110 -4.230470076924782E-004
                   111 -1.032663173548980E-012
                   112  7.054743524256030E-012
                   113 -3.789535872383340E-004
                   114  2.633458162004240E-004
                   115 -9.698516499497224E-013
                   116 -2.823837449526163E-005
                   117 -6.992277302249748E-005
                   118  7.996511897633119E-014
                   119 -3.567944266424910E-012
                   120 -9.003210694599205E-006
                   121  1.335578056068665E-004
                   122 -1.771696773134730E-004
                   123 -6.920317395217270E-004
                   124  2.283947431486760E-004
                   125 -1.123719070106420E-004
                   126  4.398977929405340E-006
                   127 -3.564198795262410E-004
                   128  7.338748568941220E-012
                   129 -7.917141865765939E-005
                   130  6.094083005135750E-004
                   131 -6.648182539716260E-012
                   132  3.737317607823070E-004
                   133  9.124448775676580E-004
                   134  3.031938779658740E-012
                   135  1.792473231260164E-005
                   136  1.623849540656200E-012
                   137 -3.955339656833830E-013
                   138  4.655755346965960E-006
                   139  4.324849719397530E-005
                   140  1.309261214120616E-004
                   141  2.818378947574370E-012
                   142  5.446092871228420E-012
                   143  2.500659942641120E-004
                   144 -1.046629302258950E-004
                   145 -1.835528550075464E-012
                   146  9.388500305291272E-006
                   147 -3.727250514204546E-005
                   148 -4.144941722312120E-013
                   149  6.923963730011270E-013
                   150 -4.496952834448035E-005
                   151  3.696913610857173E-005
                   152 -1.072157004382040E-004
                   153 -6.840975726737020E-004
                   154  2.309114533058530E-004
                   155 -3.698497210841020E-005
                   156 -3.028061872207220E-005
                   157 -3.467248956972420E-004
                   158  1.721637361421710E-012
                   159  1.366065379215240E-004
                   160  5.340568163950430E-004