[Molden Format]
[Atoms] AU
  N     1    7    -0.0985792400   -4.3469516800    0.0000000000        
  C     2    6     0.0280702500   -1.8274634900    0.0000000000        
  C     3    6    -2.2973407900   -0.4276905900    0.0000000000        
  C     4    6     2.3344894000   -0.4028246200    0.0000000000        
  C     5    6    -2.2791324200    2.1563700800    0.0000000000        
  C     6    6     2.2977552300    2.1828850300    0.0000000000        
  C     7    6     0.0027151000    3.4908729500    0.0000000000        
  H     8    1    -3.0886924000   -6.3346054500    0.0000000000        
  H     9    1     1.6912467200   -5.0973417900    0.0000000000        
  H    10    1    -4.0320508300   -1.4696175800    0.0000000000        
  H    11    1     4.0978721300   -1.4069504400    0.0000000000        
  H    12    1    -4.0321647400    3.1785048600    0.0000000000        
  H    13    1     4.0416765000    3.2204118800    0.0000000000        
  H    14    1    -0.0075636900    5.5185342100    0.0000000000        
[5D]
[7F]
[GTO]
  1  0
   s    12 1.00
  0.114200D+05  0.172695D-04
  0.171200D+04  0.134411D-03
  0.389300D+03  0.694561D-03
  0.110000D+03  0.278531D-02
  0.355700D+02  0.863457D-02
  0.125400D+02  0.199805D-01
  0.464400D+01  0.262908D-01
  0.129300D+01 -0.243845D-01
  0.511800D+00 -0.924934D-01
  0.178700D+00 -0.339683D+00
  0.246240D-01  0.345111D+00
  0.112530D-01  0.752750D+00
   s    10 1.00
  0.114200D+05  0.523000D-03
  0.171200D+04  0.404500D-02
  0.389300D+03  0.207750D-01
  0.110000D+03  0.807269D-01
  0.355700D+02  0.233074D+00
  0.125400D+02  0.433501D+00
  0.464400D+01  0.347472D+00
  0.129300D+01  0.412620D-01
  0.511800D+00 -0.850799D-02
  0.178700D+00  0.238400D-02
   s    10 1.00
  0.114200D+05 -0.115000D-03
  0.171200D+04 -0.895000D-03
  0.389300D+03 -0.462400D-02
  0.110000D+03 -0.185280D-01
  0.355700D+02 -0.573390D-01
  0.125400D+02 -0.132076D+00
  0.464400D+01 -0.172510D+00
  0.129300D+01  0.151814D+00
  0.511800D+00  0.599944D+00
  0.178700D+00  0.387462D+00
   s     1 1.00
  0.129300D+01  0.100000D+01
   s     1 1.00
  0.178700D+00  0.100000D+01
   p     5 1.00
  0.266300D+02  0.146700D-01
  0.594800D+01  0.917640D-01
  0.174200D+01  0.298683D+00
  0.555000D+00  0.498487D+00
  0.172500D+00  0.337023D+00
   p     1 1.00
  0.174200D+01  0.100000D+01
   p     1 1.00
  0.555000D+00  0.100000D+01
   d     1 1.00
  0.165400D+01  0.100000D+01
   d     1 1.00
  0.469000D+00  0.100000D+01
   f     1 1.00
  0.109300D+01  0.100000D+01
  
  2  0
   s    10 1.00
  0.823600D+04  0.531000D-03
  0.123500D+04  0.410800D-02
  0.280800D+03  0.210870D-01
  0.792700D+02  0.818530D-01
  0.255900D+02  0.234817D+00
  0.899700D+01  0.434401D+00
  0.331900D+01  0.346129D+00
  0.905900D+00  0.393780D-01
  0.364300D+00 -0.898300D-02
  0.128500D+00  0.238500D-02
   s    10 1.00
  0.823600D+04 -0.113000D-03
  0.123500D+04 -0.878000D-03
  0.280800D+03 -0.454000D-02
  0.792700D+02 -0.181330D-01
  0.255900D+02 -0.557600D-01
  0.899700D+01 -0.126895D+00
  0.331900D+01 -0.170352D+00
  0.905900D+00  0.140382D+00
  0.364300D+00  0.598684D+00
  0.128500D+00  0.395389D+00
   s     1 1.00
  0.905900D+00  0.100000D+01
   s     1 1.00
  0.364300D+00  0.100000D+01
   p     5 1.00
  0.187100D+02  0.140310D-01
  0.413300D+01  0.868660D-01
  0.120000D+01  0.290216D+00
  0.382700D+00  0.501008D+00
  0.120900D+00  0.343406D+00
   p     1 1.00
  0.382700D+00  0.100000D+01
   p     1 1.00
  0.120900D+00  0.100000D+01
   d     1 1.00
  0.109700D+01  0.100000D+01
   d     1 1.00
  0.318000D+00  0.100000D+01
   f     1 1.00
  0.761000D+00  0.100000D+01
  
  3  0
   s    10 1.00
  0.823600D+04  0.531000D-03
  0.123500D+04  0.410800D-02
  0.280800D+03  0.210870D-01
  0.792700D+02  0.818530D-01
  0.255900D+02  0.234817D+00
  0.899700D+01  0.434401D+00
  0.331900D+01  0.346129D+00
  0.905900D+00  0.393780D-01
  0.364300D+00 -0.898300D-02
  0.128500D+00  0.238500D-02
   s    10 1.00
  0.823600D+04 -0.113000D-03
  0.123500D+04 -0.878000D-03
  0.280800D+03 -0.454000D-02
  0.792700D+02 -0.181330D-01
  0.255900D+02 -0.557600D-01
  0.899700D+01 -0.126895D+00
  0.331900D+01 -0.170352D+00
  0.905900D+00  0.140382D+00
  0.364300D+00  0.598684D+00
  0.128500D+00  0.395389D+00
   s     1 1.00
  0.905900D+00  0.100000D+01
   s     1 1.00
  0.364300D+00  0.100000D+01
   p     5 1.00
  0.187100D+02  0.140310D-01
  0.413300D+01  0.868660D-01
  0.120000D+01  0.290216D+00
  0.382700D+00  0.501008D+00
  0.120900D+00  0.343406D+00
   p     1 1.00
  0.382700D+00  0.100000D+01
   p     1 1.00
  0.120900D+00  0.100000D+01
   d     1 1.00
  0.109700D+01  0.100000D+01
   d     1 1.00
  0.318000D+00  0.100000D+01
   f     1 1.00
  0.761000D+00  0.100000D+01
  
  4  0
   s    10 1.00
  0.823600D+04  0.531000D-03
  0.123500D+04  0.410800D-02
  0.280800D+03  0.210870D-01
  0.792700D+02  0.818530D-01
  0.255900D+02  0.234817D+00
  0.899700D+01  0.434401D+00
  0.331900D+01  0.346129D+00
  0.905900D+00  0.393780D-01
  0.364300D+00 -0.898300D-02
  0.128500D+00  0.238500D-02
   s    10 1.00
  0.823600D+04 -0.113000D-03
  0.123500D+04 -0.878000D-03
  0.280800D+03 -0.454000D-02
  0.792700D+02 -0.181330D-01
  0.255900D+02 -0.557600D-01
  0.899700D+01 -0.126895D+00
  0.331900D+01 -0.170352D+00
  0.905900D+00  0.140382D+00
  0.364300D+00  0.598684D+00
  0.128500D+00  0.395389D+00
   s     1 1.00
  0.905900D+00  0.100000D+01
   s     1 1.00
  0.364300D+00  0.100000D+01
   p     5 1.00
  0.187100D+02  0.140310D-01
  0.413300D+01  0.868660D-01
  0.120000D+01  0.290216D+00
  0.382700D+00  0.501008D+00
  0.120900D+00  0.343406D+00
   p     1 1.00
  0.382700D+00  0.100000D+01
   p     1 1.00
  0.120900D+00  0.100000D+01
   d     1 1.00
  0.109700D+01  0.100000D+01
   d     1 1.00
  0.318000D+00  0.100000D+01
   f     1 1.00
  0.761000D+00  0.100000D+01
  
  5  0
   s    10 1.00
  0.823600D+04  0.531000D-03
  0.123500D+04  0.410800D-02
  0.280800D+03  0.210870D-01
  0.792700D+02  0.818530D-01
  0.255900D+02  0.234817D+00
  0.899700D+01  0.434401D+00
  0.331900D+01  0.346129D+00
  0.905900D+00  0.393780D-01
  0.364300D+00 -0.898300D-02
  0.128500D+00  0.238500D-02
   s    10 1.00
  0.823600D+04 -0.113000D-03
  0.123500D+04 -0.878000D-03
  0.280800D+03 -0.454000D-02
  0.792700D+02 -0.181330D-01
  0.255900D+02 -0.557600D-01
  0.899700D+01 -0.126895D+00
  0.331900D+01 -0.170352D+00
  0.905900D+00  0.140382D+00
  0.364300D+00  0.598684D+00
  0.128500D+00  0.395389D+00
   s     1 1.00
  0.905900D+00  0.100000D+01
   s     1 1.00
  0.364300D+00  0.100000D+01
   p     5 1.00
  0.187100D+02  0.140310D-01
  0.413300D+01  0.868660D-01
  0.120000D+01  0.290216D+00
  0.382700D+00  0.501008D+00
  0.120900D+00  0.343406D+00
   p     1 1.00
  0.382700D+00  0.100000D+01
   p     1 1.00
  0.120900D+00  0.100000D+01
   d     1 1.00
  0.109700D+01  0.100000D+01
   d     1 1.00
  0.318000D+00  0.100000D+01
   f     1 1.00
  0.761000D+00  0.100000D+01
  
  6  0
   s    10 1.00
  0.823600D+04  0.531000D-03
  0.123500D+04  0.410800D-02
  0.280800D+03  0.210870D-01
  0.792700D+02  0.818530D-01
  0.255900D+02  0.234817D+00
  0.899700D+01  0.434401D+00
  0.331900D+01  0.346129D+00
  0.905900D+00  0.393780D-01
  0.364300D+00 -0.898300D-02
  0.128500D+00  0.238500D-02
   s    10 1.00
  0.823600D+04 -0.113000D-03
  0.123500D+04 -0.878000D-03
  0.280800D+03 -0.454000D-02
  0.792700D+02 -0.181330D-01
  0.255900D+02 -0.557600D-01
  0.899700D+01 -0.126895D+00
  0.331900D+01 -0.170352D+00
  0.905900D+00  0.140382D+00
  0.364300D+00  0.598684D+00
  0.128500D+00  0.395389D+00
   s     1 1.00
  0.905900D+00  0.100000D+01
   s     1 1.00
  0.364300D+00  0.100000D+01
   p     5 1.00
  0.187100D+02  0.140310D-01
  0.413300D+01  0.868660D-01
  0.120000D+01  0.290216D+00
  0.382700D+00  0.501008D+00
  0.120900D+00  0.343406D+00
   p     1 1.00
  0.382700D+00  0.100000D+01
   p     1 1.00
  0.120900D+00  0.100000D+01
   d     1 1.00
  0.109700D+01  0.100000D+01
   d     1 1.00
  0.318000D+00  0.100000D+01
   f     1 1.00
  0.761000D+00  0.100000D+01
  
  7  0
   s    10 1.00
  0.823600D+04  0.531000D-03
  0.123500D+04  0.410800D-02
  0.280800D+03  0.210870D-01
  0.792700D+02  0.818530D-01
  0.255900D+02  0.234817D+00
  0.899700D+01  0.434401D+00
  0.331900D+01  0.346129D+00
  0.905900D+00  0.393780D-01
  0.364300D+00 -0.898300D-02
  0.128500D+00  0.238500D-02
   s    10 1.00
  0.823600D+04 -0.113000D-03
  0.123500D+04 -0.878000D-03
  0.280800D+03 -0.454000D-02
  0.792700D+02 -0.181330D-01
  0.255900D+02 -0.557600D-01
  0.899700D+01 -0.126895D+00
  0.331900D+01 -0.170352D+00
  0.905900D+00  0.140382D+00
  0.364300D+00  0.598684D+00
  0.128500D+00  0.395389D+00
   s     1 1.00
  0.905900D+00  0.100000D+01
   s     1 1.00
  0.364300D+00  0.100000D+01
   p     5 1.00
  0.187100D+02  0.140310D-01
  0.413300D+01  0.868660D-01
  0.120000D+01  0.290216D+00
  0.382700D+00  0.501008D+00
  0.120900D+00  0.343406D+00
   p     1 1.00
  0.382700D+00  0.100000D+01
   p     1 1.00
  0.120900D+00  0.100000D+01
   d     1 1.00
  0.109700D+01  0.100000D+01
   d     1 1.00
  0.318000D+00  0.100000D+01
   f     1 1.00
  0.761000D+00  0.100000D+01
  
  8  0
   s     4 1.00
  0.130100D+02  0.196850D-01
  0.196200D+01  0.137977D+00
  0.444600D+00  0.478148D+00
  0.122000D+00  0.501240D+00
   s     1 1.00
  0.122000D+00  0.100000D+01
   p     1 1.00
  0.727000D+00  0.100000D+01
  
  9  0
   s     4 1.00
  0.130100D+02  0.196850D-01
  0.196200D+01  0.137977D+00
  0.444600D+00  0.478148D+00
  0.122000D+00  0.501240D+00
   s     1 1.00
  0.122000D+00  0.100000D+01
   p     1 1.00
  0.727000D+00  0.100000D+01
  
 10  0
   s     4 1.00
  0.130100D+02  0.196850D-01
  0.196200D+01  0.137977D+00
  0.444600D+00  0.478148D+00
  0.122000D+00  0.501240D+00
   s     1 1.00
  0.122000D+00  0.100000D+01
   p     1 1.00
  0.727000D+00  0.100000D+01
  
 11  0
   s     4 1.00
  0.130100D+02  0.196850D-01
  0.196200D+01  0.137977D+00
  0.444600D+00  0.478148D+00
  0.122000D+00  0.501240D+00
   s     1 1.00
  0.122000D+00  0.100000D+01
   p     1 1.00
  0.727000D+00  0.100000D+01
  
 12  0
   s     4 1.00
  0.130100D+02  0.196850D-01
  0.196200D+01  0.137977D+00
  0.444600D+00  0.478148D+00
  0.122000D+00  0.501240D+00
   s     1 1.00
  0.122000D+00  0.100000D+01
   p     1 1.00
  0.727000D+00  0.100000D+01
  
 13  0
   s     4 1.00
  0.130100D+02  0.196850D-01
  0.196200D+01  0.137977D+00
  0.444600D+00  0.478148D+00
  0.122000D+00  0.501240D+00
   s     1 1.00
  0.122000D+00  0.100000D+01
   p     1 1.00
  0.727000D+00  0.100000D+01
  
 14  0
   s     4 1.00
  0.130100D+02  0.196850D-01
  0.196200D+01  0.137977D+00
  0.444600D+00  0.478148D+00
  0.122000D+00  0.501240D+00
   s     1 1.00
  0.122000D+00  0.100000D+01
   p     1 1.00
  0.727000D+00  0.100000D+01
  
[MO]
 Sym= __1_A__
 Ene=  0.000000000000000E+000
 Spin= Alpha
 Occup=    2.00000000000000     
                     1  8.123785615945889E-005
                     2  0.998324257894085     
                     3  2.761491722035018E-003
                     4  1.710633801076650E-003
                     5  5.404904556458875E-003
                     6  3.527206287405315E-003
                     7  6.229253172233199E-003
                     8  2.640077657952688E-012
                     9 -6.085655387991994E-004
                    10 -6.081674978580964E-004
                    11 -7.555200420415081E-013
                    12 -2.433480101100446E-003
                    13 -1.632334856337803E-003
                    14 -7.658986030751414E-012
                    15 -1.078532216152102E-004
                    16  8.853595944862866E-013
                    17  3.127857709257517E-013
                    18 -1.797542497695841E-004
                    19 -8.734277710879470E-005
                    20  7.663589284986085E-005
                    21 -1.027895219278651E-014
                    22 -3.651173986344841E-012
                    23 -3.171006841502562E-004
                    24  5.854057515047204E-004
                    25 -1.550899897773474E-012
                    26 -1.524529591296768E-005
                    27 -6.292088578738534E-005
                    28  1.911998203681057E-012
                    29 -1.251023595052374E-012
                    30  3.703708407872213E-005
                    31 -1.541237502678122E-004
                    32 -4.054287298583488E-004
                    33  1.147145077510882E-003
                    34  3.330695087196867E-004
                    35 -3.794705418370303E-004
                    36 -3.461401810362288E-004
                    37 -4.987259742266732E-003
                    38  4.081464982320101E-012
                    39  4.766604836295941E-004
                    40  5.290208174050623E-004
                    41 -2.612242005870814E-013
                    42 -2.195198565235607E-003
                    43  5.517579279827414E-003
                    44 -5.893914345010998E-012
                    45 -1.595016924213170E-005
                    46 -2.964683899364049E-012
                    47 -1.918382876636598E-013
                    48 -2.281771751082464E-004
                    49 -7.938935884399006E-006
                    50 -2.485521173210999E-004
                    51  2.406431303498139E-012
                    52 -6.491184687193239E-012
                    53  4.874768973310848E-005
                    54  8.730722849004403E-004
                    55 -7.450977634096103E-013
                    56 -9.453379730126045E-006
                    57 -5.831228873870183E-005
                    58 -3.254478739258106E-012
                    59 -1.248574241494298E-012
                    60  2.996804202493592E-005
                    61 -1.204304970292396E-004
                    62 -5.033505574279864E-004
                    63 -2.363453818921689E-003
                    64 -8.829955701526851E-005
                    65  2.170010043794052E-003
                    66 -6.854492680012670E-004
                    67  5.572002311670843E-004
                    68  1.101106719779571E-011
                    69  4.414844347817134E-004
                    70  8.495209995614310E-004
                    71 -1.026204564591085E-012
                    72 -1.918447002377024E-003
                    73  8.950383612438453E-004
                    74  3.245434697180679E-012
                    75 -4.116781417254979E-005
                    76 -2.544677894710478E-012
                    77 -4.129527466480808E-012
                    78 -8.624485392557283E-005
                    79 -2.741385468874583E-005
                    80 -1.249956699157501E-004
                    81  4.544176658298188E-012
                    82  6.475417493625914E-012
                    83  5.575107134669230E-005
                    84  8.434737779860437E-005
                    85  1.771848445927326E-012
                    86  1.355467268714127E-005
                    87 -5.048077926742491E-005
                    88 -2.065151347540736E-012
                    89 -6.114396271276354E-013
                    90 -1.786019269938371E-005
                    91 -1.525459172674809E-004
                    92 -1.772016827337640E-004
                    93 -1.257236388588052E-003
                    94  2.110466292310297E-004
                    95 -2.158588666151603E-004
                    96  6.163616569301332E-004
                    97  7.986609388081790E-004
                    98  5.552410714305674E-012
                    99  4.335696344218193E-004
                   100  3.627397568530083E-004
                   101 -6.383554960091825E-012
                   102  4.561721119650949E-004
                   103 -1.844035884600206E-003
                   104  2.451787794430726E-012
                   105  2.500050364722664E-006
                   106  4.718190743388523E-012
                   107 -1.230125463955173E-012
                   108 -8.164197350972901E-005
                   109 -2.431851103487297E-005
                   110  1.013571585107724E-004
                   111 -6.103762036820032E-012
                   112 -1.318671718010505E-012
                   113 -1.910546238450668E-004
                   114 -1.971429521277681E-005
                   115  1.109160397630840E-012
                   116 -2.684970647852684E-005
                   117 -2.614473150543697E-005
                   118 -9.686765078988960E-013
                   119 -8.059458594001382E-013
                   120 -1.806658870686904E-005
                   121 -2.278854840062601E-005
                   122 -2.548786549527634E-004
                   123 -4.728531665379981E-004
                   124  1.731005112199605E-004
                   125  3.320672781860090E-004
                   126 -1.713568704006510E-005
                   127 -6.110839884705816E-004
                   128  1.218344198847362E-011
                   129  1.922171995623173E-004
                   130  6.450523361264663E-004
                   131 -5.908380814235498E-012
                   132  5.859352097297447E-004
                   133  2.171975380376365E-003
                   134 -7.343688918997016E-013
                   135  1.317727618211459E-005
                   136 -2.408812631820333E-012
                   137  9.804411253918357E-014
                   138  3.872003184704998E-005
                   139  2.077661527738553E-006
                   140  1.938373970638346E-004
                   141  5.578759281884475E-012
                   142  4.316743684783639E-012
                   143  3.926564175481820E-004
                   144  2.490222543031961E-004
                   145 -2.463334955232687E-012
                   146 -9.473892040176122E-006
                   147 -6.270584513893608E-005
                   148  2.846442839374066E-013
                   149  4.586370951830857E-013
                   150 -2.035215521291278E-005
                   151 -4.783586531834185E-005
                   152 -1.518682218193575E-004
                   153 -1.398697356571786E-004
                   154  5.372573318443370E-005
                   155  2.254186648505872E-004
                   156 -3.350181409925378E-005
                   157 -5.527886792170919E-004
                   158  4.241048117393666E-012
                   159  4.702339498363192E-005
                   160  5.978364204335498E-005
                   161 -9.109832861170484E-013
                   162  8.116648643277531E-004
                   163 -4.261414407433055E-004
                   164 -2.889590273736865E-013
                   165 -2.140639342973576E-006
                   166  1.398297897078627E-012
                   167  1.325091623698289E-012
                   168 -1.015064574729092E-005
                   169  1.149841990017556E-006
                   170  8.715269983860719E-005
                   171  2.519594186293201E-012
                   172 -2.085571794675668E-012
                   173  2.128302761073004E-005
                   174 -3.489238636321739E-006
                   175  1.723570351163484E-012
                   176  1.233609901953234E-006
                   177 -8.768243393693439E-006
                   178  4.504332723378678E-014
                   179  1.690197468410025E-012
                   180 -1.621120656199453E-005
                   181 -1.823034321308748E-005
                   182 -1.604502711364975E-004
                   183 -4.746658078799104E-004
                   184  3.762175791563066E-005
                   185  2.295873906798066E-004
                   186 -4.663739744848470E-005
                   187 -4.240058063159181E-005
                   188  3.589360759883267E-012
                   189  2.588609847759816E-004
                   190  9.062450917888329E-005
                   191  2.393778171723025E-012
                   192  1.487995647204880E-003
                   193 -2.589091337794996E-004
                   194 -5.543990873713043E-012
                   195  1.390140548885816E-006
                   196 -2.217939860752403E-012
                   197 -2.012008973537316E-012
                   198 -1.197042602823963E-005
                   199  3.939544012452934E-006
                   200 -1.214884065193473E-005
                   201  4.785159157195840E-012
                   202 -2.354272878612561E-012
                   203 -8.341305551230552E-005
                   204 -2.074397415816488E-004
                   205 -1.391107664012704E-012
                   206 -8.995166289540139E-006
                   207 -4.198524168692475E-006
                   208  1.920390224950272E-012
                   209 -3.509436788268365E-012
                   210  9.761542808807160E-006
                   211 -7.823346845207548E-006
                   212 -6.019500962522057E-005
                   213  1.051708466861189E-004
                   214  5.367449427368492E-005
                   215  7.090217686450368E-005
                   216  2.189780908894880E-012
                   217  1.752080895069642E-003
                   218 -1.793114445442052E-003
                   219 -4.552092759460900E-004
                   220  1.675471041403031E-004
                   221  4.643235816262276E-013
                   222 -4.988376317585469E-004
                   223 -6.368452284867026E-004
                   224  3.409059437622068E-006
                   225 -7.061442350394770E-005
                   226 -1.310832773329676E-013
                   227 -3.019709188077226E-004
                   228 -4.712196393362448E-004
                   229 -1.688056924259104E-005
                   230 -1.576991891397234E-005
                   231 -1.259377653783325E-012
                   232 -9.617288915671368E-005
                   233 -4.789875486087426E-004
                   234  1.771307154484376E-006
                   235 -1.366704400983894E-006
                   236  1.975798463558227E-012
                   237 -1.851917569174242E-004
                   238 -3.804504811182858E-004
                   239  4.685441147645869E-006
                   240 -2.633016447393457E-007
                   241 -2.659166248946813E-012
                   242  1.042961084072499E-005
                   243  4.588205928038758E-005
                   244 -6.412196276210919E-007
                   245  2.861703002757192E-005
                   246  2.456284896797852E-012
 Sym= __2_A__
 Ene=  0.000000000000000E+000
 Spin= Alpha
 Occup=    2.00000000000000     
                     1 -5.020612114574778E-005
                     2 -2.805098204408158E-004
                     3  2.696711808343251E-003
                     4  1.293474789343578E-004
                     5  1.361414843806749E-003
                     6 -3.726906129870030E-004
                     7  2.976629441747845E-003
                     8  2.545075309064921E-012
                     9 -4.167349731037057E-005
                    10 -1.158198622197559E-004
                    11  1.385624094728055E-012
                    12 -4.062349091543656E-005
                    13 -3.636098867598651E-004
                    14  1.168733406611768E-012
                    15  3.168255328379545E-005
                    16 -1.684629409941091E-012
                    17 -1.545930844798274E-012
                    18 -4.428887456713234E-005
                    19  2.338264045365350E-005
                    20 -1.115504020740953E-004
                    21 -1.280356651817646E-012
                    22  4.793013927187050E-012
                    23  1.234534995289215E-004
                    24 -1.444714668071134E-004
                    25  1.938045582649747E-012
                    26 -1.720304302767828E-005
                    27  9.322219636028737E-005
                    28 -1.482222511962401E-012
                    29  9.733008789167200E-013
                    30 -6.573524879338499E-005
                    31  1.424678215518449E-004
                    32   1.00101865526705     
                    33  9.275232610404961E-003
                    34  2.685543944601205E-003
                    35 -8.050670351567590E-003
                    36 -2.134758452536734E-005
                    37 -3.277632672343483E-003
                    38  2.134595139821155E-012
                    39 -1.973102614121620E-004
                    40  1.906661349779047E-004
                    41 -4.721580947501872E-013
                    42 -1.452405220850863E-004
                    43  4.103385751227331E-003
                    44 -4.956203889051527E-012
                    45 -5.575822688332440E-004
                    46 -2.145079964368461E-012
                    47  2.731987410461315E-012
                    48 -2.128191349029274E-004
                    49  4.393545351014572E-005
                    50  5.278595029576301E-004
                    51  1.404827544425793E-012
                    52  3.898340663548113E-012
                    53 -6.685241850949620E-004
                    54 -3.876439822003113E-004
                    55 -5.445909248272646E-013
                    56  1.226210129668800E-005
                    57  9.842303302607119E-005
                    58  3.171690297374280E-012
                    59 -4.604140224443032E-013
                    60 -3.446240917607921E-005
                    61  3.940221849263364E-004
                    62  8.931433461002209E-003
                    63 -2.076125999111893E-003
                    64 -2.419197817442160E-004
                    65  2.700035106411767E-003
                    66  7.904336958822711E-006
                    67  8.177801243221407E-005
                    68  4.581260614761094E-012
                    69  5.279078772804210E-004
                    70  1.506380447928706E-004
                    71  4.905170889731686E-012
                    72 -2.119796050988444E-003
                    73  2.983973716386604E-004
                    74 -2.429329052537955E-012
                    75  3.645915596219286E-005
                    76  7.487369022961582E-014
                    77 -4.489081233693466E-012
                    78 -4.192080418476650E-006
                    79  3.820350571941109E-006
                    80 -4.214269413457222E-004
                    81 -2.633027230296379E-012
                    82  7.214938699144072E-013
                    83 -6.480644463034402E-004
                    84 -2.408853613928579E-004
                    85  1.241668203144289E-012
                    86  2.737965012246956E-005
                    87 -5.851630083566523E-005
                    88 -6.509303921698946E-013
                    89  3.556531137678996E-012
                    90  3.914718834718879E-005
                    91  1.506368478096117E-004
                    92  1.083491242344294E-002
                    93 -2.070666005720907E-003
                    94 -3.136127374877683E-004
                    95  3.209236375597970E-003
                    96  6.394714520263841E-005
                    97  4.242474641223469E-005
                    98  1.478926529374577E-012
                    99 -9.375898831144691E-004
                   100  1.804233980008889E-005
                   101  2.366577660308814E-012
                   102  1.757330414521383E-003
                   103  2.275362855633942E-005
                   104  6.775586230983134E-012
                   105  2.339777666728475E-005
                   106  1.363756035819751E-012
                   107 -1.359516266912275E-012
                   108 -2.940201563363380E-006
                   109  1.000491653144520E-005
                   110 -4.230470076254114E-004
                   111 -1.032663175622801E-012
                   112  7.054743524340632E-012
                   113 -3.789535871468354E-004
                   114  2.633458160036507E-004
                   115 -9.698516494812377E-013
                   116 -2.823837450090884E-005
                   117 -6.992277302051428E-005
                   118  7.996511951973164E-014
                   119 -3.567944266657794E-012
                   120 -9.003210698491625E-006
                   121  1.335578054979991E-004
                   122 -1.771696618234238E-004
                   123 -6.920317408350929E-004
                   124  2.283947432198206E-004
                   125 -1.123719068205909E-004
                   126  4.398977384173318E-006
                   127 -3.564198780554909E-004
                   128  7.338748565337651E-012
                   129 -7.917141863809879E-005
                   130  6.094083004240736E-004
                   131 -6.648182537652814E-012
                   132  3.737317607892097E-004
                   133  9.124448775363581E-004
                   134  3.031938781234704E-012
                   135  1.792473232461817E-005
                   136  1.623849539646568E-012
                   137 -3.955339647413219E-013
                   138  4.655755389013308E-006
                   139  4.324849717244531E-005
                   140  1.309261214548268E-004
                   141  2.818378948832746E-012
                   142  5.446092870232358E-012
                   143  2.500659943093982E-004
                   144 -1.046629302297056E-004
                   145 -1.835528551341519E-012
                   146  9.388500311327275E-006
                   147 -3.727250515769512E-005
                   148 -4.144941719286232E-013
                   149  6.923963728983267E-013
                   150 -4.496952834076270E-005
                   151  3.696913609582494E-005
                   152 -1.072157107690686E-004
                   153 -6.840975731019761E-004
                   154  2.309114532077275E-004
                   155 -3.698497131148962E-005
                   156 -3.028061885576614E-005
                   157 -3.467248966014894E-004
                   158  1.721637361564869E-012
                   159  1.366065378600880E-004
                   160  5.340568164202919E-004