[Molden Format]
[Atoms] AU
  N     1    7    -4.4260464800    0.1219100600    0.0000000000        
  C     2    6    -1.7787413300   -0.0032843500    0.0000000000        
  C     3    6    -0.4364210800    0.0001341700   -2.2729918300        
  C     4    6    -0.4364210800    0.0001341700    2.2729918300        
  C     5    6     2.1892013400   -0.0006047100   -2.2649850600        
  C     6    6     2.1892013400   -0.0006047100    2.2649850600        
  C     7    6     3.5247488100   -0.0008768300    0.0000000000        
  H     8    1    -5.2190533600   -0.6365582800   -1.5715592300        
  H     9    1    -5.2190533600   -0.6365582800    1.5715592300        
  H    10    1    -1.4610612300    0.0098190200   -4.0537910800        
  H    11    1    -1.4610612300    0.0098190200    4.0537910800        
  H    12    1     3.1988427300   -0.0013247000   -4.0526345600        
  H    13    1     3.1988427300   -0.0013247000    4.0526345600        
  H    14    1     5.5752366400   -0.0026191600    0.0000000000        
[5D]
[7F]
[GTO]
  1  0
   s    12 1.00
  0.114200D+05  0.172695D-04
  0.171200D+04  0.134411D-03
  0.389300D+03  0.694561D-03
  0.110000D+03  0.278531D-02
  0.355700D+02  0.863457D-02
  0.125400D+02  0.199805D-01
  0.464400D+01  0.262908D-01
  0.129300D+01 -0.243845D-01
  0.511800D+00 -0.924934D-01
  0.178700D+00 -0.339683D+00
  0.246240D-01  0.345111D+00
  0.112530D-01  0.752750D+00
   s    10 1.00
  0.114200D+05  0.523000D-03
  0.171200D+04  0.404500D-02
  0.389300D+03  0.207750D-01
  0.110000D+03  0.807269D-01
  0.355700D+02  0.233074D+00
  0.125400D+02  0.433501D+00
  0.464400D+01  0.347472D+00
  0.129300D+01  0.412620D-01
  0.511800D+00 -0.850799D-02
  0.178700D+00  0.238400D-02
   s    10 1.00
  0.114200D+05 -0.115000D-03
  0.171200D+04 -0.895000D-03
  0.389300D+03 -0.462400D-02
  0.110000D+03 -0.185280D-01
  0.355700D+02 -0.573390D-01
  0.125400D+02 -0.132076D+00
  0.464400D+01 -0.172510D+00
  0.129300D+01  0.151814D+00
  0.511800D+00  0.599944D+00
  0.178700D+00  0.387462D+00
   s     1 1.00
  0.129300D+01  0.100000D+01
   s     1 1.00
  0.178700D+00  0.100000D+01
   p     5 1.00
  0.266300D+02  0.146700D-01
  0.594800D+01  0.917640D-01
  0.174200D+01  0.298683D+00
  0.555000D+00  0.498487D+00
  0.172500D+00  0.337023D+00
   p     1 1.00
  0.174200D+01  0.100000D+01
   p     1 1.00
  0.555000D+00  0.100000D+01
   d     1 1.00
  0.165400D+01  0.100000D+01
   d     1 1.00
  0.469000D+00  0.100000D+01
   f     1 1.00
  0.109300D+01  0.100000D+01
  
  2  0
   s    10 1.00
  0.823600D+04  0.531000D-03
  0.123500D+04  0.410800D-02
  0.280800D+03  0.210870D-01
  0.792700D+02  0.818530D-01
  0.255900D+02  0.234817D+00
  0.899700D+01  0.434401D+00
  0.331900D+01  0.346129D+00
  0.905900D+00  0.393780D-01
  0.364300D+00 -0.898300D-02
  0.128500D+00  0.238500D-02
   s    10 1.00
  0.823600D+04 -0.113000D-03
  0.123500D+04 -0.878000D-03
  0.280800D+03 -0.454000D-02
  0.792700D+02 -0.181330D-01
  0.255900D+02 -0.557600D-01
  0.899700D+01 -0.126895D+00
  0.331900D+01 -0.170352D+00
  0.905900D+00  0.140382D+00
  0.364300D+00  0.598684D+00
  0.128500D+00  0.395389D+00
   s     1 1.00
  0.905900D+00  0.100000D+01
   s     1 1.00
  0.364300D+00  0.100000D+01
   p     5 1.00
  0.187100D+02  0.140310D-01
  0.413300D+01  0.868660D-01
  0.120000D+01  0.290216D+00
  0.382700D+00  0.501008D+00
  0.120900D+00  0.343406D+00
   p     1 1.00
  0.382700D+00  0.100000D+01
   p     1 1.00
  0.120900D+00  0.100000D+01
   d     1 1.00
  0.109700D+01  0.100000D+01
   d     1 1.00
  0.318000D+00  0.100000D+01
   f     1 1.00
  0.761000D+00  0.100000D+01
  
  3  0
   s    10 1.00
  0.823600D+04  0.531000D-03
  0.123500D+04  0.410800D-02
  0.280800D+03  0.210870D-01
  0.792700D+02  0.818530D-01
  0.255900D+02  0.234817D+00
  0.899700D+01  0.434401D+00
  0.331900D+01  0.346129D+00
  0.905900D+00  0.393780D-01
  0.364300D+00 -0.898300D-02
  0.128500D+00  0.238500D-02
   s    10 1.00
  0.823600D+04 -0.113000D-03
  0.123500D+04 -0.878000D-03
  0.280800D+03 -0.454000D-02
  0.792700D+02 -0.181330D-01
  0.255900D+02 -0.557600D-01
  0.899700D+01 -0.126895D+00
  0.331900D+01 -0.170352D+00
  0.905900D+00  0.140382D+00
  0.364300D+00  0.598684D+00
  0.128500D+00  0.395389D+00
   s     1 1.00
  0.905900D+00  0.100000D+01
   s     1 1.00
  0.364300D+00  0.100000D+01
   p     5 1.00
  0.187100D+02  0.140310D-01
  0.413300D+01  0.868660D-01
  0.120000D+01  0.290216D+00
  0.382700D+00  0.501008D+00
  0.120900D+00  0.343406D+00
   p     1 1.00
  0.382700D+00  0.100000D+01
   p     1 1.00
  0.120900D+00  0.100000D+01
   d     1 1.00
  0.109700D+01  0.100000D+01
   d     1 1.00
  0.318000D+00  0.100000D+01
   f     1 1.00
  0.761000D+00  0.100000D+01
  
  4  0
   s    10 1.00
  0.823600D+04  0.531000D-03
  0.123500D+04  0.410800D-02
  0.280800D+03  0.210870D-01
  0.792700D+02  0.818530D-01
  0.255900D+02  0.234817D+00
  0.899700D+01  0.434401D+00
  0.331900D+01  0.346129D+00
  0.905900D+00  0.393780D-01
  0.364300D+00 -0.898300D-02
  0.128500D+00  0.238500D-02
   s    10 1.00
  0.823600D+04 -0.113000D-03
  0.123500D+04 -0.878000D-03
  0.280800D+03 -0.454000D-02
  0.792700D+02 -0.181330D-01
  0.255900D+02 -0.557600D-01
  0.899700D+01 -0.126895D+00
  0.331900D+01 -0.170352D+00
  0.905900D+00  0.140382D+00
  0.364300D+00  0.598684D+00
  0.128500D+00  0.395389D+00
   s     1 1.00
  0.905900D+00  0.100000D+01
   s     1 1.00
  0.364300D+00  0.100000D+01
   p     5 1.00
  0.187100D+02  0.140310D-01
  0.413300D+01  0.868660D-01
  0.120000D+01  0.290216D+00
  0.382700D+00  0.501008D+00
  0.120900D+00  0.343406D+00
   p     1 1.00
  0.382700D+00  0.100000D+01
   p     1 1.00
  0.120900D+00  0.100000D+01
   d     1 1.00
  0.109700D+01  0.100000D+01
   d     1 1.00
  0.318000D+00  0.100000D+01
   f     1 1.00
  0.761000D+00  0.100000D+01
  
  5  0
   s    10 1.00
  0.823600D+04  0.531000D-03
  0.123500D+04  0.410800D-02
  0.280800D+03  0.210870D-01
  0.792700D+02  0.818530D-01
  0.255900D+02  0.234817D+00
  0.899700D+01  0.434401D+00
  0.331900D+01  0.346129D+00
  0.905900D+00  0.393780D-01
  0.364300D+00 -0.898300D-02
  0.128500D+00  0.238500D-02
   s    10 1.00
  0.823600D+04 -0.113000D-03
  0.123500D+04 -0.878000D-03
  0.280800D+03 -0.454000D-02
  0.792700D+02 -0.181330D-01
  0.255900D+02 -0.557600D-01
  0.899700D+01 -0.126895D+00
  0.331900D+01 -0.170352D+00
  0.905900D+00  0.140382D+00
  0.364300D+00  0.598684D+00
  0.128500D+00  0.395389D+00
   s     1 1.00
  0.905900D+00  0.100000D+01
   s     1 1.00
  0.364300D+00  0.100000D+01
   p     5 1.00
  0.187100D+02  0.140310D-01
  0.413300D+01  0.868660D-01
  0.120000D+01  0.290216D+00
  0.382700D+00  0.501008D+00
  0.120900D+00  0.343406D+00
   p     1 1.00
  0.382700D+00  0.100000D+01
   p     1 1.00
  0.120900D+00  0.100000D+01
   d     1 1.00
  0.109700D+01  0.100000D+01
   d     1 1.00
  0.318000D+00  0.100000D+01
   f     1 1.00
  0.761000D+00  0.100000D+01
  
  6  0
   s    10 1.00
  0.823600D+04  0.531000D-03
  0.123500D+04  0.410800D-02
  0.280800D+03  0.210870D-01
  0.792700D+02  0.818530D-01
  0.255900D+02  0.234817D+00
  0.899700D+01  0.434401D+00
  0.331900D+01  0.346129D+00
  0.905900D+00  0.393780D-01
  0.364300D+00 -0.898300D-02
  0.128500D+00  0.238500D-02
   s    10 1.00
  0.823600D+04 -0.113000D-03
  0.123500D+04 -0.878000D-03
  0.280800D+03 -0.454000D-02
  0.792700D+02 -0.181330D-01
  0.255900D+02 -0.557600D-01
  0.899700D+01 -0.126895D+00
  0.331900D+01 -0.170352D+00
  0.905900D+00  0.140382D+00
  0.364300D+00  0.598684D+00
  0.128500D+00  0.395389D+00
   s     1 1.00
  0.905900D+00  0.100000D+01
   s     1 1.00
  0.364300D+00  0.100000D+01
   p     5 1.00
  0.187100D+02  0.140310D-01
  0.413300D+01  0.868660D-01
  0.120000D+01  0.290216D+00
  0.382700D+00  0.501008D+00
  0.120900D+00  0.343406D+00
   p     1 1.00
  0.382700D+00  0.100000D+01
   p     1 1.00
  0.120900D+00  0.100000D+01
   d     1 1.00
  0.109700D+01  0.100000D+01
   d     1 1.00
  0.318000D+00  0.100000D+01
   f     1 1.00
  0.761000D+00  0.100000D+01
  
  7  0
   s    10 1.00
  0.823600D+04  0.531000D-03
  0.123500D+04  0.410800D-02
  0.280800D+03  0.210870D-01
  0.792700D+02  0.818530D-01
  0.255900D+02  0.234817D+00
  0.899700D+01  0.434401D+00
  0.331900D+01  0.346129D+00
  0.905900D+00  0.393780D-01
  0.364300D+00 -0.898300D-02
  0.128500D+00  0.238500D-02
   s    10 1.00
  0.823600D+04 -0.113000D-03
  0.123500D+04 -0.878000D-03
  0.280800D+03 -0.454000D-02
  0.792700D+02 -0.181330D-01
  0.255900D+02 -0.557600D-01
  0.899700D+01 -0.126895D+00
  0.331900D+01 -0.170352D+00
  0.905900D+00  0.140382D+00
  0.364300D+00  0.598684D+00
  0.128500D+00  0.395389D+00
   s     1 1.00
  0.905900D+00  0.100000D+01
   s     1 1.00
  0.364300D+00  0.100000D+01
   p     5 1.00
  0.187100D+02  0.140310D-01
  0.413300D+01  0.868660D-01
  0.120000D+01  0.290216D+00
  0.382700D+00  0.501008D+00
  0.120900D+00  0.343406D+00
   p     1 1.00
  0.382700D+00  0.100000D+01
   p     1 1.00
  0.120900D+00  0.100000D+01
   d     1 1.00
  0.109700D+01  0.100000D+01
   d     1 1.00
  0.318000D+00  0.100000D+01
   f     1 1.00
  0.761000D+00  0.100000D+01
  
  8  0
   s     4 1.00
  0.130100D+02  0.196850D-01
  0.196200D+01  0.137977D+00
  0.444600D+00  0.478148D+00
  0.122000D+00  0.501240D+00
   s     1 1.00
  0.122000D+00  0.100000D+01
   p     1 1.00
  0.727000D+00  0.100000D+01
  
  9  0
   s     4 1.00
  0.130100D+02  0.196850D-01
  0.196200D+01  0.137977D+00
  0.444600D+00  0.478148D+00
  0.122000D+00  0.501240D+00
   s     1 1.00
  0.122000D+00  0.100000D+01
   p     1 1.00
  0.727000D+00  0.100000D+01
  
 10  0
   s     4 1.00
  0.130100D+02  0.196850D-01
  0.196200D+01  0.137977D+00
  0.444600D+00  0.478148D+00
  0.122000D+00  0.501240D+00
   s     1 1.00
  0.122000D+00  0.100000D+01
   p     1 1.00
  0.727000D+00  0.100000D+01
  
 11  0
   s     4 1.00
  0.130100D+02  0.196850D-01
  0.196200D+01  0.137977D+00
  0.444600D+00  0.478148D+00
  0.122000D+00  0.501240D+00
   s     1 1.00
  0.122000D+00  0.100000D+01
   p     1 1.00
  0.727000D+00  0.100000D+01
  
 12  0
   s     4 1.00
  0.130100D+02  0.196850D-01
  0.196200D+01  0.137977D+00
  0.444600D+00  0.478148D+00
  0.122000D+00  0.501240D+00
   s     1 1.00
  0.122000D+00  0.100000D+01
   p     1 1.00
  0.727000D+00  0.100000D+01
  
 13  0
   s     4 1.00
  0.130100D+02  0.196850D-01
  0.196200D+01  0.137977D+00
  0.444600D+00  0.478148D+00
  0.122000D+00  0.501240D+00
   s     1 1.00
  0.122000D+00  0.100000D+01
   p     1 1.00
  0.727000D+00  0.100000D+01
  
 14  0
   s     4 1.00
  0.130100D+02  0.196850D-01
  0.196200D+01  0.137977D+00
  0.444600D+00  0.478148D+00
  0.122000D+00  0.501240D+00
   s     1 1.00
  0.122000D+00  0.100000D+01
   p     1 1.00
  0.727000D+00  0.100000D+01
  
[MO]
 Sym= __1_A__
 Ene=  0.000000000000000E+000
 Spin= Alpha
 Occup=    2.00000000000000     
                     1  1.289581128010819E-004
                     2  0.998248634791420     
                     3 -2.355551085123640E-003
                     4  2.023874171666761E-003
                     5  5.648496914677848E-003
                     6  4.527923514119621E-003
                     7 -3.389058907371794E-003
                     8 -2.643020141346426E-009
                     9 -4.651986131974548E-004
                    10  2.811861499237719E-004
                    11  1.364708830712701E-009
                    12 -1.150338234346883E-003
                    13  2.567574177382656E-003
                    14 -5.248280677927988E-009
                    15 -3.245162928520263E-005
                    16 -7.732948056783545E-010
                    17  5.218658938357356E-011
                    18  7.854415255574158E-005
                    19  3.837774254349550E-005
                    20 -2.334822418797971E-004
                    21  4.224506790022744E-009
                    22  2.155046960962667E-009
                    23 -9.712816571336322E-005
                    24 -3.681413694760083E-004
                    25  4.333863431323845E-009
                    26 -1.077965702758304E-004
                    27 -4.756367391608325E-005
                    28  6.352704849128688E-009
                    29 -1.086913957609782E-009
                    30 -5.889893004761395E-005
                    31 -4.312684543144395E-005
                    32 -2.685136195599899E-004
                    33  4.760489322752109E-004
                    34  1.730945774551734E-004
                    35  5.494687492471013E-005
                    36 -2.470290816370550E-003
                    37 -1.113139907899422E-005
                    38  3.285610429041305E-009
                    39 -1.855110089859621E-004
                    40  2.303343341066934E-005
                    41 -1.218658743389105E-009
                    42  4.023446998935452E-003
                    43  6.558268263535293E-004
                    44  5.291243010831781E-008
                    45 -1.511640421254304E-004
                    46  1.980909721888261E-009
                    47 -1.111117220599178E-011
                    48  1.277568281427550E-004
                    49  3.981769647771784E-005
                    50  2.474558940594747E-004
                    51 -8.994951283802975E-009
                    52 -3.327349778197274E-010
                    53  9.001216442629652E-005
                    54 -3.033128970579280E-004
                    55 -4.810981601129986E-009
                    56 -7.571523853237785E-005
                    57  7.041116230490272E-006
                    58 -3.595688383171096E-009
                    59  4.388100726362062E-010
                    60 -4.871540814917258E-005
                    61  3.615957776451623E-005
                    62 -3.028496729051818E-004
                    63 -1.213581999991537E-003
                    64  5.301560179329966E-005
                    65  8.021683407897513E-004
                    66  8.717085386380221E-005
                    67 -7.207025858428897E-005
                    68 -2.867259897033583E-004
                    69  5.135197573307528E-004
                    70  6.587311496439320E-005
                    71  7.925104741418338E-005
                    72 -4.087346700175870E-004
                    73 -2.913313813426311E-004
                    74 -7.589389068602418E-004
                    75 -3.580377124355475E-005
                    76 -1.170045425844408E-005
                    77  1.616757458467835E-005
                    78  4.812318466796850E-005
                    79 -6.934420648078934E-006
                    80  1.173862545229665E-004
                    81  3.808475666958778E-005
                    82 -2.596252859815693E-005
                    83 -6.422671175847292E-005
                    84  3.890384160125543E-005
                    85 -1.344189121296605E-005
                    86 -7.129998285461079E-005
                    87  1.697887535644697E-005
                    88 -1.912462189122356E-005
                    89  1.070875514246609E-005
                    90 -4.889571919588324E-005
                    91 -8.683081988112903E-006
                    92 -3.028409318695260E-004
                    93 -1.213548810962041E-003
                    94  5.304397275718488E-005
                    95  8.020706669261419E-004
                    96  8.718713992276923E-005
                    97 -7.207039560906965E-005
                    98  2.867270475942033E-004
                    99  5.134342425181832E-004
                   100  6.587326390426840E-005
                   101 -7.926183701693823E-005
                   102 -4.086287276891272E-004
                   103 -2.913316609916856E-004
                   104  7.588513561446346E-004
                   105 -3.580064893087640E-005
                   106  1.170308362493365E-005
                   107 -1.616748519533543E-005
                   108  4.811790449056072E-005
                   109 -6.934383959540798E-006
                   110  1.174288140661030E-004
                   111 -3.811621528222652E-005
                   112  2.596255102464053E-005
                   113 -6.427922464837203E-005
                   114  3.890359738516749E-005
                   115  1.344471692711783E-005
                   116 -7.129094952389471E-005
                   117  1.697873167414987E-005
                   118  1.912627604726162E-005
                   119 -1.070876451000717E-005
                   120 -4.888719407385752E-005
                   121 -8.683089669148395E-006
                   122 -1.592211839286809E-004
                   123 -4.017089439372849E-004
                   124  6.102473632375160E-005
                   125  4.103185717041436E-004
                   126 -2.119314665413488E-004
                   127 -1.927588435351718E-005
                   128 -5.547825412799300E-006
                   129  2.207318296174171E-004
                   130 -1.662421898783040E-005
                   131  7.349552182835043E-005
                   132  6.909518438537059E-004
                   133  1.229718829865774E-004
                   134 -2.393716538134718E-004
                   135  1.250967552027117E-005
                   136 -6.626266006968021E-006
                   137 -2.626416665543426E-006
                   138 -9.159742754989070E-006
                   139  7.896437314028733E-006
                   140  7.614664621464375E-005
                   141  1.254359139791664E-004
                   142  6.391921766604919E-006
                   143 -1.824628418127206E-004
                   144 -1.425863414070880E-005
                   145 -3.056798027557833E-006
                   146 -2.086655503982538E-005
                   147  2.201872610621640E-006
                   148  5.486767806129596E-006
                   149 -2.051566608764011E-006
                   150 -4.388946094885686E-005
                   151 -1.075451337398051E-006
                   152 -1.593441648040515E-004
                   153 -4.021374902855972E-004
                   154  6.093274398661291E-005
                   155  4.109817912916243E-004
                   156 -2.119328221607560E-004
                   157 -1.927583685768637E-005
                   158  5.562446295302923E-006
                   159  2.207090493661948E-004
                   160 -1.662425504682983E-005
                   161 -7.358933632799156E-005
                   162  6.910458300782410E-004
                   163  1.229718750674794E-004
                   164  2.394635314815415E-004
                   165  1.251507556634576E-005
                   166  6.624223693250705E-006
                   167  2.625960699070540E-006
                   168 -9.145584885543021E-006
                   169  7.896324678250303E-006
                   170  7.615411717676887E-005
                   171 -1.254973358249582E-004
                   172 -6.391423720747114E-006
                   173 -1.824452389754344E-004
                   174 -1.425891430086811E-005
                   175  3.057383870621386E-006
                   176 -2.084630034457930E-005
                   177  2.201843905239619E-006
                   178 -5.489186475233370E-006
                   179  2.051610565477842E-006
                   180 -4.388374937122852E-005
                   181 -1.075436181458987E-006
                   182 -1.005603283637801E-004
                   183 -2.991898290029380E-004
                   184  2.690952674303904E-005
                   185  1.266668493047524E-004
                   186 -3.942263939611847E-005
                   187 -2.232657066578680E-005
                   188  2.046267328915635E-008
                   189  9.461559621871872E-005
                   190  2.023696813624767E-005
                   191 -1.082329939290241E-007
                   192 -2.889780658048469E-004
                   193 -8.529110646849692E-005
                   194 -3.505660627608543E-008
                   195 -5.240445521982130E-006
                   196  6.124125012991737E-009
                   197 -3.708400064695552E-011
                   198  2.402369136383102E-006
                   199 -2.443012257795421E-006
                   200 -8.718664589670991E-005
                   201  5.299513105761955E-008
                   202  2.156720687565096E-010
                   203  3.726638563861710E-005
                   204  1.381989187768127E-005
                   205  4.393067444721033E-009
                   206  2.869704911152459E-006
                   207  3.091589042384725E-006
                   208 -4.906294574737410E-009
                   209  2.256317559818402E-012
                   210 -5.273260663276639E-006
                   211 -2.102149659371749E-006
                   212  2.037256847298976E-004
                   213 -8.896834547044276E-004
                   214  9.307655965215883E-005
                   215  1.587236345963821E-004
                   216  1.488078849591598E-004
                   217  2.037340047855714E-004
                   218 -8.896896692330800E-004
                   219  9.307999391829700E-005
                   220  1.587244565013982E-004
                   221 -1.488103918945898E-004
                   222 -1.926438553136084E-004
                   223 -3.630088226356311E-004
                   224 -4.940819651151609E-005
                   225  8.095139380455815E-006
                   226  3.511230455340445E-005
                   227 -1.926571208469318E-004
                   228 -3.629308797089015E-004
                   229 -4.941139476767426E-005
                   230  8.095128584003257E-006
                   231 -3.511376786833652E-005
                   232 -5.258712994663052E-007
                   233 -4.100355206812811E-004
                   234  3.756388529423981E-007
                   235 -1.461486560671848E-006
                   236  2.877465870050650E-006
                   237 -5.350603856428646E-007
                   238 -4.100723745070822E-004
                   239  3.865777227435707E-007
                   240 -1.461526466084264E-006
                   241 -2.868059652647679E-006
                   242 -3.077964072489360E-005
                   243  7.438095832440765E-005
                   244  2.547931625899943E-005
                   245  1.615959676209733E-006
                   246 -5.155699337053864E-009
 Sym= __2_A__
 Ene=  0.000000000000000E+000
 Spin= Alpha
 Occup=    2.00000000000000     
                     1 -3.003804782264856E-005
                     2 -1.203622573597302E-004
                     3  1.894568553207670E-003
                     4 -2.475209266501615E-006
                     5  1.257295766647831E-003
                     6  2.150150380920598E-003
                     7  2.081322685702905E-004
                     8  4.269963973876470E-009
                     9 -1.420028933717543E-004
                    10  8.147221596782301E-005
                    11 -2.867526378684452E-009
                    12 -2.999702085664304E-005
                    13  1.127724410849040E-005
                    14  3.800744322029414E-009
                    15 -7.597686162221668E-005
                    16  5.628884896242079E-010
                    17 -7.322402596413521E-011
                    18  3.369927883359798E-005
                    19 -2.548625124071263E-006
                    20  2.442157673033652E-004
                    21 -4.659874597968978E-009
                    22 -1.777971455829287E-009
                    23  5.522910711422378E-005
                    24 -3.854294969931835E-005
                    25 -2.725791077973536E-009
                    26  1.478603657802880E-004
                    27 -5.820888256083856E-005
                    28 -4.628064828571452E-009
                    29  7.943966066745665E-010
                    30  1.428014846466380E-004
                    31  2.927977404626847E-005
                    32   1.00095778641017     
                    33  8.826080600354596E-003
                    34  2.844787036660405E-003
                    35 -8.105104913858317E-003
                    36 -3.132108304111732E-003
                    37  5.743199759259110E-004
                    38 -5.503535351919957E-009
                    39  1.409301123219608E-003
                    40 -2.211871856214255E-004
                    41  1.938476763577716E-009
                    42  3.703372983081138E-003
                    43 -1.285823450875417E-004
                    44 -5.743493350961772E-008
                    45  2.720571552647127E-004
                    46 -1.859916790489642E-009
                    47  7.699573029671539E-011
                    48  4.549019172572286E-004
                    49 -1.767744177024107E-005
                    50 -1.038082289837944E-003
                    51  2.477895909679571E-009
                    52  9.825296921973328E-012
                    53 -1.126690147216000E-004
                    54  1.859222771938761E-005
                    55  3.090207954219114E-009
                    56  3.417923594031231E-004
                    57 -8.719479523455578E-006
                    58  1.697885367500898E-009
                    59 -3.046530866565860E-010
                    60  8.849681994389776E-005
                    61  1.473208873433351E-005
                    62  1.062525545785944E-002
                    63 -1.950398777559932E-003
                    64 -3.022495875245117E-004
                    65  3.153532183715975E-003
                    66 -1.636442488935137E-004
                    67  8.604953342222824E-005
                    68  2.441081396154608E-004
                    69  4.208755520819558E-005
                    70  6.788624564003155E-006
                    71  4.880568720541574E-004
                    72  1.849994469457736E-004
                    73 -1.879115546073591E-005
                    74 -1.864757765017571E-003
                    75 -1.412907141495059E-005
                    76  2.878480168060144E-005
                    77  6.162446577542302E-006
                    78 -3.846516666478290E-005
                    79 -3.777527679258239E-006
                    80 -4.349990883450349E-004
                    81 -4.661818199183326E-004
                    82  5.206831547507332E-006
                    83  7.639996198230058E-004
                    84 -4.174402026647822E-006
                    85  5.778994066442930E-005
                    86  1.118882611303014E-004
                    87  9.108821150694003E-007
                    88 -1.027866519567754E-005
                    89 -5.580478438436171E-006
                    90 -2.699859322062821E-005
                    91  4.024293853505664E-006
                    92  1.062524640673946E-002
                    93 -1.950452279954056E-003
                    94 -3.022788120175510E-004
                    95  3.153660644771736E-003
                    96 -1.636603260831576E-004
                    97  8.604951958060313E-005
                    98 -2.441084330871987E-004
                    99  4.216964368685467E-005
                   100  6.788751077457397E-006
                   101 -4.880556947021128E-004
                   102  1.848828455472372E-004
                   103 -1.879102435093656E-005
                   104  1.864841786657488E-003
                   105 -1.413286514998911E-005
                   106 -2.878838288535195E-005
                   107 -6.162511242826234E-006
                   108 -3.845720635372144E-005
                   109 -3.777551806801742E-006
                   110 -4.350327861115630E-004
                   111  4.662155931304392E-004
                   112 -5.206975600673801E-006
                   113  7.640340691658672E-004
                   114 -4.174377220589205E-006
                   115 -5.779035545601833E-005
                   116  1.118802297954719E-004
                   117  9.109940748844733E-007
                   118  1.027830004441078E-005
                   119  5.580554435092952E-006
                   120 -2.700560990482876E-005
                   121  4.024297236297244E-006
                   122 -2.023991920045276E-004
                   123 -7.603003147519499E-004
                   124  2.534307323886029E-004
                   125 -2.885167219075140E-004
                   126 -1.754693514570751E-004
                   127  1.756507435633663E-005
                   128 -4.214850972379157E-005
                   129  5.967533516857816E-004
                   130 -3.807890981556522E-006
                   131  3.453435578887357E-005
                   132  5.909427823892841E-004
                   133  3.002049052676751E-007
                   134  3.521664198502238E-004
                   135 -1.689305608463688E-007
                   136  4.274345618248328E-005
                   137  2.000900990700157E-007
                   138 -3.288930966431538E-005
                   139 -9.256580917922072E-007
                   140  2.013983406428237E-004
                   141 -2.653030769761502E-004
                   142 -1.494288792100695E-007
                   143 -2.685040581238344E-004
                   144 -1.122216980637462E-006
                   145 -1.861685401769004E-005
                   146  1.465235682559611E-005
                   147  1.775870246172675E-007
                   148 -1.515863111381383E-005
                   149 -1.247792701659574E-006
                   150 -2.482987748071794E-005
                   151 -9.651995168493566E-007
                   152 -2.021951535545756E-004
                   153 -7.596152845869815E-004
                   154  2.534849537692769E-004
                   155 -2.892718028882443E-004
                   156 -1.754700206310848E-004
                   157  1.756502517412259E-005
                   158  4.213941621230595E-005
                   159  5.967805457783698E-004
                   160 -3.807835102783246E-006