[Molden Format]
[Atoms] AU
  N     1    7    -4.4260464800    0.1219100600    0.0000000000        
  C     2    6    -1.7787413300   -0.0032843500    0.0000000000        
  C     3    6    -0.4364210800    0.0001341700   -2.2729918300        
  C     4    6    -0.4364210800    0.0001341700    2.2729918300        
  C     5    6     2.1892013400   -0.0006047100   -2.2649850600        
  C     6    6     2.1892013400   -0.0006047100    2.2649850600        
  C     7    6     3.5247488100   -0.0008768300    0.0000000000        
  H     8    1    -5.2190533600   -0.6365582800   -1.5715592300        
  H     9    1    -5.2190533600   -0.6365582800    1.5715592300        
  H    10    1    -1.4610612300    0.0098190200   -4.0537910800        
  H    11    1    -1.4610612300    0.0098190200    4.0537910800        
  H    12    1     3.1988427300   -0.0013247000   -4.0526345600        
  H    13    1     3.1988427300   -0.0013247000    4.0526345600        
  H    14    1     5.5752366400   -0.0026191600    0.0000000000        
[5D]
[7F]
[GTO]
  1  0
   s    12 1.00
  0.114200D+05  0.172695D-04
  0.171200D+04  0.134411D-03
  0.389300D+03  0.694561D-03
  0.110000D+03  0.278531D-02
  0.355700D+02  0.863457D-02
  0.125400D+02  0.199805D-01
  0.464400D+01  0.262908D-01
  0.129300D+01 -0.243845D-01
  0.511800D+00 -0.924934D-01
  0.178700D+00 -0.339683D+00
  0.246240D-01  0.345111D+00
  0.112530D-01  0.752750D+00
   s    10 1.00
  0.114200D+05  0.523000D-03
  0.171200D+04  0.404500D-02
  0.389300D+03  0.207750D-01
  0.110000D+03  0.807269D-01
  0.355700D+02  0.233074D+00
  0.125400D+02  0.433501D+00
  0.464400D+01  0.347472D+00
  0.129300D+01  0.412620D-01
  0.511800D+00 -0.850799D-02
  0.178700D+00  0.238400D-02
   s    10 1.00
  0.114200D+05 -0.115000D-03
  0.171200D+04 -0.895000D-03
  0.389300D+03 -0.462400D-02
  0.110000D+03 -0.185280D-01
  0.355700D+02 -0.573390D-01
  0.125400D+02 -0.132076D+00
  0.464400D+01 -0.172510D+00
  0.129300D+01  0.151814D+00
  0.511800D+00  0.599944D+00
  0.178700D+00  0.387462D+00
   s     1 1.00
  0.129300D+01  0.100000D+01
   s     1 1.00
  0.178700D+00  0.100000D+01
   p     5 1.00
  0.266300D+02  0.146700D-01
  0.594800D+01  0.917640D-01
  0.174200D+01  0.298683D+00
  0.555000D+00  0.498487D+00
  0.172500D+00  0.337023D+00
   p     1 1.00
  0.174200D+01  0.100000D+01
   p     1 1.00
  0.555000D+00  0.100000D+01
   d     1 1.00
  0.165400D+01  0.100000D+01
   d     1 1.00
  0.469000D+00  0.100000D+01
   f     1 1.00
  0.109300D+01  0.100000D+01
  
  2  0
   s    10 1.00
  0.823600D+04  0.531000D-03
  0.123500D+04  0.410800D-02
  0.280800D+03  0.210870D-01
  0.792700D+02  0.818530D-01
  0.255900D+02  0.234817D+00
  0.899700D+01  0.434401D+00
  0.331900D+01  0.346129D+00
  0.905900D+00  0.393780D-01
  0.364300D+00 -0.898300D-02
  0.128500D+00  0.238500D-02
   s    10 1.00
  0.823600D+04 -0.113000D-03
  0.123500D+04 -0.878000D-03
  0.280800D+03 -0.454000D-02
  0.792700D+02 -0.181330D-01
  0.255900D+02 -0.557600D-01
  0.899700D+01 -0.126895D+00
  0.331900D+01 -0.170352D+00
  0.905900D+00  0.140382D+00
  0.364300D+00  0.598684D+00
  0.128500D+00  0.395389D+00
   s     1 1.00
  0.905900D+00  0.100000D+01
   s     1 1.00
  0.364300D+00  0.100000D+01
   p     5 1.00
  0.187100D+02  0.140310D-01
  0.413300D+01  0.868660D-01
  0.120000D+01  0.290216D+00
  0.382700D+00  0.501008D+00
  0.120900D+00  0.343406D+00
   p     1 1.00
  0.382700D+00  0.100000D+01
   p     1 1.00
  0.120900D+00  0.100000D+01
   d     1 1.00
  0.109700D+01  0.100000D+01
   d     1 1.00
  0.318000D+00  0.100000D+01
   f     1 1.00
  0.761000D+00  0.100000D+01
  
  3  0
   s    10 1.00
  0.823600D+04  0.531000D-03
  0.123500D+04  0.410800D-02
  0.280800D+03  0.210870D-01
  0.792700D+02  0.818530D-01
  0.255900D+02  0.234817D+00
  0.899700D+01  0.434401D+00
  0.331900D+01  0.346129D+00
  0.905900D+00  0.393780D-01
  0.364300D+00 -0.898300D-02
  0.128500D+00  0.238500D-02
   s    10 1.00
  0.823600D+04 -0.113000D-03
  0.123500D+04 -0.878000D-03
  0.280800D+03 -0.454000D-02
  0.792700D+02 -0.181330D-01
  0.255900D+02 -0.557600D-01
  0.899700D+01 -0.126895D+00
  0.331900D+01 -0.170352D+00
  0.905900D+00  0.140382D+00
  0.364300D+00  0.598684D+00
  0.128500D+00  0.395389D+00
   s     1 1.00
  0.905900D+00  0.100000D+01
   s     1 1.00
  0.364300D+00  0.100000D+01
   p     5 1.00
  0.187100D+02  0.140310D-01
  0.413300D+01  0.868660D-01
  0.120000D+01  0.290216D+00
  0.382700D+00  0.501008D+00
  0.120900D+00  0.343406D+00
   p     1 1.00
  0.382700D+00  0.100000D+01
   p     1 1.00
  0.120900D+00  0.100000D+01
   d     1 1.00
  0.109700D+01  0.100000D+01
   d     1 1.00
  0.318000D+00  0.100000D+01
   f     1 1.00
  0.761000D+00  0.100000D+01
  
  4  0
   s    10 1.00
  0.823600D+04  0.531000D-03
  0.123500D+04  0.410800D-02
  0.280800D+03  0.210870D-01
  0.792700D+02  0.818530D-01
  0.255900D+02  0.234817D+00
  0.899700D+01  0.434401D+00
  0.331900D+01  0.346129D+00
  0.905900D+00  0.393780D-01
  0.364300D+00 -0.898300D-02
  0.128500D+00  0.238500D-02
   s    10 1.00
  0.823600D+04 -0.113000D-03
  0.123500D+04 -0.878000D-03
  0.280800D+03 -0.454000D-02
  0.792700D+02 -0.181330D-01
  0.255900D+02 -0.557600D-01
  0.899700D+01 -0.126895D+00
  0.331900D+01 -0.170352D+00
  0.905900D+00  0.140382D+00
  0.364300D+00  0.598684D+00
  0.128500D+00  0.395389D+00
   s     1 1.00
  0.905900D+00  0.100000D+01
   s     1 1.00
  0.364300D+00  0.100000D+01
   p     5 1.00
  0.187100D+02  0.140310D-01
  0.413300D+01  0.868660D-01
  0.120000D+01  0.290216D+00
  0.382700D+00  0.501008D+00
  0.120900D+00  0.343406D+00
   p     1 1.00
  0.382700D+00  0.100000D+01
   p     1 1.00
  0.120900D+00  0.100000D+01
   d     1 1.00
  0.109700D+01  0.100000D+01
   d     1 1.00
  0.318000D+00  0.100000D+01
   f     1 1.00
  0.761000D+00  0.100000D+01
  
  5  0
   s    10 1.00
  0.823600D+04  0.531000D-03
  0.123500D+04  0.410800D-02
  0.280800D+03  0.210870D-01
  0.792700D+02  0.818530D-01
  0.255900D+02  0.234817D+00
  0.899700D+01  0.434401D+00
  0.331900D+01  0.346129D+00
  0.905900D+00  0.393780D-01
  0.364300D+00 -0.898300D-02
  0.128500D+00  0.238500D-02
   s    10 1.00
  0.823600D+04 -0.113000D-03
  0.123500D+04 -0.878000D-03
  0.280800D+03 -0.454000D-02
  0.792700D+02 -0.181330D-01
  0.255900D+02 -0.557600D-01
  0.899700D+01 -0.126895D+00
  0.331900D+01 -0.170352D+00
  0.905900D+00  0.140382D+00
  0.364300D+00  0.598684D+00
  0.128500D+00  0.395389D+00
   s     1 1.00
  0.905900D+00  0.100000D+01
   s     1 1.00
  0.364300D+00  0.100000D+01
   p     5 1.00
  0.187100D+02  0.140310D-01
  0.413300D+01  0.868660D-01
  0.120000D+01  0.290216D+00
  0.382700D+00  0.501008D+00
  0.120900D+00  0.343406D+00
   p     1 1.00
  0.382700D+00  0.100000D+01
   p     1 1.00
  0.120900D+00  0.100000D+01
   d     1 1.00
  0.109700D+01  0.100000D+01
   d     1 1.00
  0.318000D+00  0.100000D+01
   f     1 1.00
  0.761000D+00  0.100000D+01
  
  6  0
   s    10 1.00
  0.823600D+04  0.531000D-03
  0.123500D+04  0.410800D-02
  0.280800D+03  0.210870D-01
  0.792700D+02  0.818530D-01
  0.255900D+02  0.234817D+00
  0.899700D+01  0.434401D+00
  0.331900D+01  0.346129D+00
  0.905900D+00  0.393780D-01
  0.364300D+00 -0.898300D-02
  0.128500D+00  0.238500D-02
   s    10 1.00
  0.823600D+04 -0.113000D-03
  0.123500D+04 -0.878000D-03
  0.280800D+03 -0.454000D-02
  0.792700D+02 -0.181330D-01
  0.255900D+02 -0.557600D-01
  0.899700D+01 -0.126895D+00
  0.331900D+01 -0.170352D+00
  0.905900D+00  0.140382D+00
  0.364300D+00  0.598684D+00
  0.128500D+00  0.395389D+00
   s     1 1.00
  0.905900D+00  0.100000D+01
   s     1 1.00
  0.364300D+00  0.100000D+01
   p     5 1.00
  0.187100D+02  0.140310D-01
  0.413300D+01  0.868660D-01
  0.120000D+01  0.290216D+00
  0.382700D+00  0.501008D+00
  0.120900D+00  0.343406D+00
   p     1 1.00
  0.382700D+00  0.100000D+01
   p     1 1.00
  0.120900D+00  0.100000D+01
   d     1 1.00
  0.109700D+01  0.100000D+01
   d     1 1.00
  0.318000D+00  0.100000D+01
   f     1 1.00
  0.761000D+00  0.100000D+01
  
  7  0
   s    10 1.00
  0.823600D+04  0.531000D-03
  0.123500D+04  0.410800D-02
  0.280800D+03  0.210870D-01
  0.792700D+02  0.818530D-01
  0.255900D+02  0.234817D+00
  0.899700D+01  0.434401D+00
  0.331900D+01  0.346129D+00
  0.905900D+00  0.393780D-01
  0.364300D+00 -0.898300D-02
  0.128500D+00  0.238500D-02
   s    10 1.00
  0.823600D+04 -0.113000D-03
  0.123500D+04 -0.878000D-03
  0.280800D+03 -0.454000D-02
  0.792700D+02 -0.181330D-01
  0.255900D+02 -0.557600D-01
  0.899700D+01 -0.126895D+00
  0.331900D+01 -0.170352D+00
  0.905900D+00  0.140382D+00
  0.364300D+00  0.598684D+00
  0.128500D+00  0.395389D+00
   s     1 1.00
  0.905900D+00  0.100000D+01
   s     1 1.00
  0.364300D+00  0.100000D+01
   p     5 1.00
  0.187100D+02  0.140310D-01
  0.413300D+01  0.868660D-01
  0.120000D+01  0.290216D+00
  0.382700D+00  0.501008D+00
  0.120900D+00  0.343406D+00
   p     1 1.00
  0.382700D+00  0.100000D+01
   p     1 1.00
  0.120900D+00  0.100000D+01
   d     1 1.00
  0.109700D+01  0.100000D+01
   d     1 1.00
  0.318000D+00  0.100000D+01
   f     1 1.00
  0.761000D+00  0.100000D+01
  
  8  0
   s     4 1.00
  0.130100D+02  0.196850D-01
  0.196200D+01  0.137977D+00
  0.444600D+00  0.478148D+00
  0.122000D+00  0.501240D+00
   s     1 1.00
  0.122000D+00  0.100000D+01
   p     1 1.00
  0.727000D+00  0.100000D+01
  
  9  0
   s     4 1.00
  0.130100D+02  0.196850D-01
  0.196200D+01  0.137977D+00
  0.444600D+00  0.478148D+00
  0.122000D+00  0.501240D+00
   s     1 1.00
  0.122000D+00  0.100000D+01
   p     1 1.00
  0.727000D+00  0.100000D+01
  
 10  0
   s     4 1.00
  0.130100D+02  0.196850D-01
  0.196200D+01  0.137977D+00
  0.444600D+00  0.478148D+00
  0.122000D+00  0.501240D+00
   s     1 1.00
  0.122000D+00  0.100000D+01
   p     1 1.00
  0.727000D+00  0.100000D+01
  
 11  0
   s     4 1.00
  0.130100D+02  0.196850D-01
  0.196200D+01  0.137977D+00
  0.444600D+00  0.478148D+00
  0.122000D+00  0.501240D+00
   s     1 1.00
  0.122000D+00  0.100000D+01
   p     1 1.00
  0.727000D+00  0.100000D+01
  
 12  0
   s     4 1.00
  0.130100D+02  0.196850D-01
  0.196200D+01  0.137977D+00
  0.444600D+00  0.478148D+00
  0.122000D+00  0.501240D+00
   s     1 1.00
  0.122000D+00  0.100000D+01
   p     1 1.00
  0.727000D+00  0.100000D+01
  
 13  0
   s     4 1.00
  0.130100D+02  0.196850D-01
  0.196200D+01  0.137977D+00
  0.444600D+00  0.478148D+00
  0.122000D+00  0.501240D+00
   s     1 1.00
  0.122000D+00  0.100000D+01
   p     1 1.00
  0.727000D+00  0.100000D+01
  
 14  0
   s     4 1.00
  0.130100D+02  0.196850D-01
  0.196200D+01  0.137977D+00
  0.444600D+00  0.478148D+00
  0.122000D+00  0.501240D+00
   s     1 1.00
  0.122000D+00  0.100000D+01
   p     1 1.00
  0.727000D+00  0.100000D+01
  
[MO]
 Sym= __1_A__
 Ene=   1.00000000000000     
 Spin= Alpha
 Occup=    1.00000000000000     
                     1  1.289581127874541E-004
                     2  0.998248634791446     
                     3 -2.355551085196707E-003
                     4  2.023874171669344E-003
                     5  5.648496914791238E-003
                     6  4.527923514165397E-003
                     7 -3.389058907439263E-003
                     8 -2.643028185951395E-009
                     9 -4.651986132166140E-004
                    10  2.811861499369364E-004
                    11  1.364708112283587E-009
                    12 -1.150338234339878E-003
                    13  2.567574177391387E-003
                    14 -5.248281299645665E-009
                    15 -3.245162928516703E-005
                    16 -7.732983666713843E-010
                    17  5.218592811355038E-011
                    18  7.854415255140455E-005
                    19  3.837774254201769E-005
                    20 -2.334822418669771E-004
                    21  4.224489273219615E-009
                    22  2.155047863276789E-009
                    23 -9.712816573463082E-005
                    24 -3.681413694734181E-004
                    25  4.333861393479543E-009
                    26 -1.077965702761004E-004
                    27 -4.756367391584144E-005
                    28  6.352702091581194E-009
                    29 -1.086913090309664E-009
                    30 -5.889893004370380E-005
                    31 -4.312684543090357E-005
                    32 -2.685136194344176E-004
                    33  4.760489295466478E-004
                    34  1.730945774811598E-004
                    35  5.494687507957048E-005
                    36 -2.470290817343829E-003
                    37 -1.113139912565157E-005
                    38  3.285129393156735E-009
                    39 -1.855110089619996E-004
                    40  2.303343341416672E-005
                    41 -1.218641100091051E-009
                    42  4.023446998823817E-003
                    43  6.558268263434251E-004
                    44  5.291248969713188E-008
                    45 -1.511640422019343E-004
                    46  1.980902569443849E-009
                    47 -1.111156182227266E-011
                    48  1.277568281382570E-004
                    49  3.981769647716006E-005
                    50  2.474558940008701E-004
                    51 -8.994971345412544E-009
                    52 -3.327336308726824E-010
                    53  9.001216436756442E-005
                    54 -3.033128970609657E-004
                    55 -4.810973079091490E-009
                    56 -7.571523857936785E-005
                    57  7.041116229650404E-006
                    58 -3.595688719104092E-009
                    59  4.388101421459684E-010
                    60 -4.871540815072015E-005
                    61  3.615957776262269E-005
                    62 -3.028496742685159E-004
                    63 -1.213582000674462E-003
                    64  5.301560179577069E-005
                    65  8.021683407730953E-004
                    66  8.717085494341406E-005
                    67 -7.207025860977954E-005
                    68 -2.867259903049040E-004
                    69  5.135197571713473E-004
                    70  6.587311496599699E-005
                    71  7.925104745454815E-005
                    72 -4.087346703069140E-004
                    73 -2.913313813379335E-004
                    74 -7.589389064304443E-004
                    75 -3.580377128820667E-005
                    76 -1.170045424203887E-005
                    77  1.616757458381916E-005
                    78  4.812318467656582E-005
                    79 -6.934420647651853E-006
                    80  1.173862545285636E-004
                    81  3.808475674280143E-005
                    82 -2.596252859745405E-005
                    83 -6.422671179242537E-005
                    84  3.890384159987600E-005
                    85 -1.344189120876337E-005
                    86 -7.129998283726349E-005
                    87  1.697887535630787E-005
                    88 -1.912462189554571E-005
                    89  1.070875514242731E-005
                    90 -4.889571919847251E-005
                    91 -8.683081988266075E-006
                    92 -3.028409304399568E-004
                    93 -1.213548811440963E-003
                    94  5.304397275935865E-005
                    95  8.020706669168092E-004
                    96  8.718714210725973E-005
                    97 -7.207039563493306E-005
                    98  2.867270484555297E-004
                    99  5.134342422835804E-004
                   100  6.587326390365427E-005
                   101 -7.926183708101129E-005
                   102 -4.086287282363941E-004
                   103 -2.913316609839368E-004
                   104  7.588513556622835E-004
                   105 -3.580064899911224E-005
                   106  1.170308359054335E-005
                   107 -1.616748519444975E-005
                   108  4.811790451740846E-005
                   109 -6.934383959004815E-006
                   110  1.174288140589313E-004
                   111 -3.811621536682729E-005
                   112  2.596255102459766E-005
                   113 -6.427922467048950E-005
                   114  3.890359738340251E-005
                   115  1.344471692084529E-005
                   116 -7.129094950980828E-005
                   117  1.697873167395449E-005
                   118  1.912627605412047E-005
                   119 -1.070876451013744E-005
                   120 -4.888719408613718E-005
                   121 -8.683089669304466E-006
                   122 -1.592211864867897E-004
                   123 -4.017089432534838E-004
                   124  6.102473628603610E-005
                   125  4.103185717060040E-004
                   126 -2.119314670263776E-004
                   127 -1.927588435427621E-005
                   128 -5.547825511529520E-006
                   129  2.207318295896801E-004
                   130 -1.662421898759730E-005
                   131  7.349552182584646E-005
                   132  6.909518437307812E-004
                   133  1.229718829878746E-004
                   134 -2.393716538411300E-004
                   135  1.250967551544475E-005
                   136 -6.626266002954157E-006
                   137 -2.626416665392333E-006
                   138 -9.159742739507932E-006
                   139  7.896437314537468E-006
                   140  7.614664617400909E-005
                   141  1.254359140196157E-004
                   142  6.391921766468884E-006
                   143 -1.824628417674827E-004
                   144 -1.425863414019614E-005
                   145 -3.056798032946258E-006
                   146 -2.086655503104043E-005
                   147  2.201872610655680E-006
                   148  5.486767802476412E-006
                   149 -2.051566608584925E-006
                   150 -4.388946093876480E-005
                   151 -1.075451337465357E-006
                   152 -1.593441621922392E-004
                   153 -4.021374893561910E-004
                   154  6.093274395745558E-005
                   155  4.109817912440096E-004
                   156 -2.119328237131744E-004
                   157 -1.927583685740622E-005
                   158  5.562446079725636E-006
                   159  2.207090494284440E-004
                   160 -1.662425504606993E-005
                   161 -7.358933627919629E-005
                   162  6.910458301358988E-004
                   163  1.229718750671202E-004
                   164  2.394635314886194E-004
                   165  1.251507553536268E-005
                   166  6.624223678950397E-006
                   167  2.625960698926498E-006
                   168 -9.145584848868058E-006
                   169  7.896324678696374E-006
                   170  7.615411713355064E-005
                   171 -1.254973358436903E-004
                   172 -6.391423720505962E-006
                   173 -1.824452389137155E-004
                   174 -1.425891430014463E-005
                   175  3.057383875982550E-006
                   176 -2.084630032984022E-005
                   177  2.201843905245263E-006
                   178 -5.489186471141420E-006
                   179  2.051610565309758E-006
                   180 -4.388374935247634E-005
                   181 -1.075436181453949E-006
                   182 -1.005603283443912E-004
                   183 -2.991898291453160E-004
                   184  2.690952674338536E-005
                   185  1.266668492506998E-004
                   186 -3.942263953185140E-005
                   187 -2.232657065661593E-005
                   188  2.046253045761372E-008
                   189  9.461559622221616E-005
                   190  2.023696813642447E-005
                   191 -1.082329768576792E-007
                   192 -2.889780656778300E-004
                   193 -8.529110646594117E-005
                   194 -3.505657597938450E-008
                   195 -5.240445538884563E-006
                   196  6.124122090349041E-009
                   197 -3.708400862962505E-011
                   198  2.402369143404214E-006
                   199 -2.443012257805608E-006
                   200 -8.718664593328044E-005
                   201  5.299512306562248E-008
                   202  2.156722461596344E-010
                   203  3.726638564240384E-005
                   204  1.381989187766564E-005
                   205  4.393073648408487E-009
                   206  2.869704918536005E-006
                   207  3.091589042452739E-006
                   208 -4.906293352708498E-009
                   209  2.256310364660116E-012
                   210 -5.273260660493973E-006
                   211 -2.102149659341052E-006
                   212  2.037256846431189E-004
                   213 -8.896834547682614E-004
                   214  9.307655965255911E-005
                   215  1.587236345940216E-004
                   216  1.488078849580768E-004
                   217  2.037340047438210E-004
                   218 -8.896896692550494E-004
                   219  9.307999391726394E-005
                   220  1.587244564973078E-004
                   221 -1.488103918914545E-004
                   222 -1.926438557573296E-004
                   223 -3.630088223273142E-004
                   224 -4.940819651133589E-005
                   225  8.095139380301359E-006
                   226  3.511230452398417E-005
                   227 -1.926571214578836E-004
                   228 -3.629308793477947E-004
                   229 -4.941139476115681E-005
                   230  8.095128583800757E-006
                   231 -3.511376782236071E-005
                   232 -5.258712079124193E-007
                   233 -4.100355206983706E-004
                   234  3.756388402162658E-007
                   235 -1.461486560676171E-006
                   236  2.877465878459541E-006
                   237 -5.350610253208775E-007
                   238 -4.100723743002332E-004
                   239  3.865777196251567E-007
                   240 -1.461526466014552E-006
                   241 -2.868059620407346E-006
                   242 -3.077964079553716E-005
                   243  7.438095845054137E-005
                   244  2.547931626410986E-005
                   245  1.615959676393463E-006
                   246 -5.155703681789911E-009
 Sym= __2_A__
 Ene=   2.00000000000000     
 Spin= Alpha
 Occup=    1.00000000000000     
                     1 -3.003804783972339E-005
                     2 -1.203622573979983E-004
                     3  1.894568553253938E-003
                     4 -2.475209264521707E-006
                     5  1.257295766565119E-003
                     6  2.150150380937404E-003
                     7  2.081322685618748E-004
                     8  4.269950513707986E-009
                     9 -1.420028933619389E-004
                    10  8.147221596963960E-005
                    11 -2.867522865284076E-009
                    12 -2.999702084678371E-005
                    13  1.127724410741952E-005
                    14  3.800734387527944E-009
                    15 -7.597686162100412E-005
                    16  5.628845328460802E-010
                    17 -7.322478567029678E-011
                    18  3.369927883446900E-005
                    19 -2.548625124402337E-006
                    20  2.442157672854022E-004
                    21 -4.659905169536012E-009
                    22 -1.777970918073750E-009
                    23  5.522910710185198E-005
                    24 -3.854294970095288E-005
                    25 -2.725794948321212E-009
                    26  1.478603657739304E-004
                    27 -5.820888256035121E-005
                    28 -4.628068917430018E-009
                    29  7.943979349357130E-010
                    30  1.428014846506929E-004
                    31  2.927977404713693E-005
                    32   1.00095778640758     
                    33  8.826080599813955E-003
                    34  2.844787036557312E-003
                    35 -8.105104913099048E-003
                    36 -3.132108304109510E-003
                    37  5.743199759191702E-004
                    38 -5.504171478753070E-009
                    39  1.409301123324632E-003
                    40 -2.211871856200781E-004
                    41  1.938497571098268E-009
                    42  3.703372982906300E-003
                    43 -1.285823450873685E-004
                    44 -5.743491816191379E-008
                    45  2.720571552438314E-004
                    46 -1.859930989719627E-009
                    47  7.699507583558451E-011
                    48  4.549019172561688E-004
                    49 -1.767744177011220E-005
                    50 -1.038082289630810E-003
                    51  2.477833390964460E-009
                    52  9.828731966524104E-012
                    53 -1.126690147171023E-004
                    54  1.859222771776877E-005
                    55  3.090218111216695E-009
                    56  3.417923593734693E-004
                    57 -8.719479523260054E-006
                    58  1.697877156071167E-009
                    59 -3.046532579221126E-010
                    60  8.849681994182245E-005
                    61  1.473208873462207E-005
                    62  1.062525553727403E-002
                    63 -1.950398777056271E-003
                    64 -3.022495872251080E-004
                    65  3.153532182873368E-003
                    66 -1.636442490171127E-004
                    67  8.604953341475807E-005
                    68  2.441081401173213E-004
                    69  4.208755524677498E-005
                    70  6.788624568439675E-006
                    71  4.880568718616185E-004
                    72  1.849994471029658E-004
                    73 -1.879115546014961E-005
                    74 -1.864757765031783E-003
                    75 -1.412907141208173E-005
                    76  2.878480165586319E-005
                    77  6.162446577341029E-006
                    78 -3.846516663421936E-005
                    79 -3.777527679140578E-006
                    80 -4.349990883154346E-004
                    81 -4.661818197490532E-004
                    82  5.206831548122647E-006
                    83  7.639996197325264E-004
                    84 -4.174402028104722E-006
                    85  5.778994067048843E-005
                    86  1.118882611036773E-004
                    87  9.108821153224400E-007
                    88 -1.027866519966425E-005
                    89 -5.580478438480348E-006
                    90 -2.699859322859091E-005
                    91  4.024293853629137E-006
                    92  1.062524654473524E-002
                    93 -1.950452278690482E-003
                    94 -3.022788115816323E-004
                    95  3.153660643625359E-003
                    96 -1.636603251589285E-004
                    97  8.604951957266377E-005
                    98 -2.441084328471923E-004
                    99  4.216964370703060E-005
                   100  6.788751079185028E-006
                   101 -4.880556945933436E-004
                   102  1.848828453881478E-004
                   103 -1.879102434781215E-005
                   104  1.864841786510193E-003
                   105 -1.413286515708974E-005
                   106 -2.878838288655140E-005
                   107 -6.162511242498409E-006
                   108 -3.845720628472784E-005
                   109 -3.777551806757208E-006
                   110 -4.350327860858541E-004
                   111  4.662155929663627E-004
                   112 -5.206975599901564E-006
                   113  7.640340690762648E-004
                   114 -4.174377220782211E-006
                   115 -5.779035546202323E-005
                   116  1.118802297588891E-004
                   117  9.109940751273984E-007
                   118  1.027830005714533E-005
                   119  5.580554434714941E-006
                   120 -2.700560991893490E-005
                   121  4.024297236385302E-006
                   122 -2.023992218282652E-004
                   123 -7.603003150135134E-004
                   124  2.534307322644267E-004
                   125 -2.885167212861021E-004
                   126 -1.754693512875050E-004
                   127  1.756507435821276E-005
                   128 -4.214850970071604E-005
                   129  5.967533516077027E-004
                   130 -3.807890981894683E-006
                   131  3.453435581190929E-005
                   132  5.909427824841068E-004
                   133  3.002049059128576E-007
                   134  3.521664196792240E-004
                   135 -1.689305597104802E-007
                   136  4.274345617196694E-005
                   137  2.000900991670722E-007
                   138 -3.288930967872856E-005
                   139 -9.256580915888778E-007
                   140  2.013983406393747E-004
                   141 -2.653030768645431E-004
                   142 -1.494288794979895E-007
                   143 -2.685040580568910E-004
                   144 -1.122216981078645E-006
                   145 -1.861685401878492E-005
                   146  1.465235681971956E-005
                   147  1.775870246114775E-007
                   148 -1.515863110841075E-005
                   149 -1.247792701649145E-006
                   150 -2.482987749002623E-005
                   151 -9.651995168682226E-007
                   152 -2.021951178357981E-004
                   153 -7.596152842557281E-004
                   154  2.534849538128425E-004
                   155 -2.892718027049989E-004
                   156 -1.754700216069513E-004
                   157  1.756502517610224E-005
                   158  4.213941617030466E-005
                   159  5.967805457974566E-004
                   160 -3.807835101815119E-006