[Molden Format]
[Atoms] AU
  N     1    7     0.0000000000    0.0000000000   -4.2907334100        
  C     2    6     0.0000000000    0.0000000000   -1.7772236300        
  C     3    6     0.0000000000   -2.3389203600   -0.4111016300        
  C     4    6     0.0000000000    2.3389203600   -0.4111016300        
  C     5    6     0.0000000000   -2.2998668500    2.1639215300        
  C     6    6     0.0000000000    2.2998668500    2.1639215300        
  C     7    6     0.0000000000    0.0000000000    3.4755251800        
  H     8    1     0.0000000000   -2.4124509000   -5.7790131500        
  H     9    1     0.0000000000    2.0907907800   -5.5805758500        
  H    10    1     0.0000000000   -4.0745407300   -1.4447408500        
  H    11    1     0.0000000000    4.0745407300   -1.4447408500        
  H    12    1     0.0000000000   -4.0420632100    3.1963889500        
  H    13    1     0.0000000000    4.0420632100    3.1963889500        
  H    14    1     0.0000000000    0.0000000000    5.5020335600        
[5D]
[7F]
[GTO]
  1  0
   s    12 1.00
  0.114200D+05  0.172695D-04
  0.171200D+04  0.134411D-03
  0.389300D+03  0.694561D-03
  0.110000D+03  0.278531D-02
  0.355700D+02  0.863457D-02
  0.125400D+02  0.199805D-01
  0.464400D+01  0.262908D-01
  0.129300D+01 -0.243845D-01
  0.511800D+00 -0.924934D-01
  0.178700D+00 -0.339683D+00
  0.246240D-01  0.345111D+00
  0.112530D-01  0.752750D+00
   s    10 1.00
  0.114200D+05  0.523000D-03
  0.171200D+04  0.404500D-02
  0.389300D+03  0.207750D-01
  0.110000D+03  0.807269D-01
  0.355700D+02  0.233074D+00
  0.125400D+02  0.433501D+00
  0.464400D+01  0.347472D+00
  0.129300D+01  0.412620D-01
  0.511800D+00 -0.850799D-02
  0.178700D+00  0.238400D-02
   s    10 1.00
  0.114200D+05 -0.115000D-03
  0.171200D+04 -0.895000D-03
  0.389300D+03 -0.462400D-02
  0.110000D+03 -0.185280D-01
  0.355700D+02 -0.573390D-01
  0.125400D+02 -0.132076D+00
  0.464400D+01 -0.172510D+00
  0.129300D+01  0.151814D+00
  0.511800D+00  0.599944D+00
  0.178700D+00  0.387462D+00
   s     1 1.00
  0.129300D+01  0.100000D+01
   s     1 1.00
  0.178700D+00  0.100000D+01
   p     5 1.00
  0.266300D+02  0.146700D-01
  0.594800D+01  0.917640D-01
  0.174200D+01  0.298683D+00
  0.555000D+00  0.498487D+00
  0.172500D+00  0.337023D+00
   p     1 1.00
  0.174200D+01  0.100000D+01
   p     1 1.00
  0.555000D+00  0.100000D+01
   d     1 1.00
  0.165400D+01  0.100000D+01
   d     1 1.00
  0.469000D+00  0.100000D+01
   f     1 1.00
  0.109300D+01  0.100000D+01
  
  2  0
   s    10 1.00
  0.823600D+04  0.531000D-03
  0.123500D+04  0.410800D-02
  0.280800D+03  0.210870D-01
  0.792700D+02  0.818530D-01
  0.255900D+02  0.234817D+00
  0.899700D+01  0.434401D+00
  0.331900D+01  0.346129D+00
  0.905900D+00  0.393780D-01
  0.364300D+00 -0.898300D-02
  0.128500D+00  0.238500D-02
   s    10 1.00
  0.823600D+04 -0.113000D-03
  0.123500D+04 -0.878000D-03
  0.280800D+03 -0.454000D-02
  0.792700D+02 -0.181330D-01
  0.255900D+02 -0.557600D-01
  0.899700D+01 -0.126895D+00
  0.331900D+01 -0.170352D+00
  0.905900D+00  0.140382D+00
  0.364300D+00  0.598684D+00
  0.128500D+00  0.395389D+00
   s     1 1.00
  0.905900D+00  0.100000D+01
   s     1 1.00
  0.364300D+00  0.100000D+01
   p     5 1.00
  0.187100D+02  0.140310D-01
  0.413300D+01  0.868660D-01
  0.120000D+01  0.290216D+00
  0.382700D+00  0.501008D+00
  0.120900D+00  0.343406D+00
   p     1 1.00
  0.382700D+00  0.100000D+01
   p     1 1.00
  0.120900D+00  0.100000D+01
   d     1 1.00
  0.109700D+01  0.100000D+01
   d     1 1.00
  0.318000D+00  0.100000D+01
   f     1 1.00
  0.761000D+00  0.100000D+01
  
  3  0
   s    10 1.00
  0.823600D+04  0.531000D-03
  0.123500D+04  0.410800D-02
  0.280800D+03  0.210870D-01
  0.792700D+02  0.818530D-01
  0.255900D+02  0.234817D+00
  0.899700D+01  0.434401D+00
  0.331900D+01  0.346129D+00
  0.905900D+00  0.393780D-01
  0.364300D+00 -0.898300D-02
  0.128500D+00  0.238500D-02
   s    10 1.00
  0.823600D+04 -0.113000D-03
  0.123500D+04 -0.878000D-03
  0.280800D+03 -0.454000D-02
  0.792700D+02 -0.181330D-01
  0.255900D+02 -0.557600D-01
  0.899700D+01 -0.126895D+00
  0.331900D+01 -0.170352D+00
  0.905900D+00  0.140382D+00
  0.364300D+00  0.598684D+00
  0.128500D+00  0.395389D+00
   s     1 1.00
  0.905900D+00  0.100000D+01
   s     1 1.00
  0.364300D+00  0.100000D+01
   p     5 1.00
  0.187100D+02  0.140310D-01
  0.413300D+01  0.868660D-01
  0.120000D+01  0.290216D+00
  0.382700D+00  0.501008D+00
  0.120900D+00  0.343406D+00
   p     1 1.00
  0.382700D+00  0.100000D+01
   p     1 1.00
  0.120900D+00  0.100000D+01
   d     1 1.00
  0.109700D+01  0.100000D+01
   d     1 1.00
  0.318000D+00  0.100000D+01
   f     1 1.00
  0.761000D+00  0.100000D+01
  
  4  0
   s    10 1.00
  0.823600D+04  0.531000D-03
  0.123500D+04  0.410800D-02
  0.280800D+03  0.210870D-01
  0.792700D+02  0.818530D-01
  0.255900D+02  0.234817D+00
  0.899700D+01  0.434401D+00
  0.331900D+01  0.346129D+00
  0.905900D+00  0.393780D-01
  0.364300D+00 -0.898300D-02
  0.128500D+00  0.238500D-02
   s    10 1.00
  0.823600D+04 -0.113000D-03
  0.123500D+04 -0.878000D-03
  0.280800D+03 -0.454000D-02
  0.792700D+02 -0.181330D-01
  0.255900D+02 -0.557600D-01
  0.899700D+01 -0.126895D+00
  0.331900D+01 -0.170352D+00
  0.905900D+00  0.140382D+00
  0.364300D+00  0.598684D+00
  0.128500D+00  0.395389D+00
   s     1 1.00
  0.905900D+00  0.100000D+01
   s     1 1.00
  0.364300D+00  0.100000D+01
   p     5 1.00
  0.187100D+02  0.140310D-01
  0.413300D+01  0.868660D-01
  0.120000D+01  0.290216D+00
  0.382700D+00  0.501008D+00
  0.120900D+00  0.343406D+00
   p     1 1.00
  0.382700D+00  0.100000D+01
   p     1 1.00
  0.120900D+00  0.100000D+01
   d     1 1.00
  0.109700D+01  0.100000D+01
   d     1 1.00
  0.318000D+00  0.100000D+01
   f     1 1.00
  0.761000D+00  0.100000D+01
  
  5  0
   s    10 1.00
  0.823600D+04  0.531000D-03
  0.123500D+04  0.410800D-02
  0.280800D+03  0.210870D-01
  0.792700D+02  0.818530D-01
  0.255900D+02  0.234817D+00
  0.899700D+01  0.434401D+00
  0.331900D+01  0.346129D+00
  0.905900D+00  0.393780D-01
  0.364300D+00 -0.898300D-02
  0.128500D+00  0.238500D-02
   s    10 1.00
  0.823600D+04 -0.113000D-03
  0.123500D+04 -0.878000D-03
  0.280800D+03 -0.454000D-02
  0.792700D+02 -0.181330D-01
  0.255900D+02 -0.557600D-01
  0.899700D+01 -0.126895D+00
  0.331900D+01 -0.170352D+00
  0.905900D+00  0.140382D+00
  0.364300D+00  0.598684D+00
  0.128500D+00  0.395389D+00
   s     1 1.00
  0.905900D+00  0.100000D+01
   s     1 1.00
  0.364300D+00  0.100000D+01
   p     5 1.00
  0.187100D+02  0.140310D-01
  0.413300D+01  0.868660D-01
  0.120000D+01  0.290216D+00
  0.382700D+00  0.501008D+00
  0.120900D+00  0.343406D+00
   p     1 1.00
  0.382700D+00  0.100000D+01
   p     1 1.00
  0.120900D+00  0.100000D+01
   d     1 1.00
  0.109700D+01  0.100000D+01
   d     1 1.00
  0.318000D+00  0.100000D+01
   f     1 1.00
  0.761000D+00  0.100000D+01
  
  6  0
   s    10 1.00
  0.823600D+04  0.531000D-03
  0.123500D+04  0.410800D-02
  0.280800D+03  0.210870D-01
  0.792700D+02  0.818530D-01
  0.255900D+02  0.234817D+00
  0.899700D+01  0.434401D+00
  0.331900D+01  0.346129D+00
  0.905900D+00  0.393780D-01
  0.364300D+00 -0.898300D-02
  0.128500D+00  0.238500D-02
   s    10 1.00
  0.823600D+04 -0.113000D-03
  0.123500D+04 -0.878000D-03
  0.280800D+03 -0.454000D-02
  0.792700D+02 -0.181330D-01
  0.255900D+02 -0.557600D-01
  0.899700D+01 -0.126895D+00
  0.331900D+01 -0.170352D+00
  0.905900D+00  0.140382D+00
  0.364300D+00  0.598684D+00
  0.128500D+00  0.395389D+00
   s     1 1.00
  0.905900D+00  0.100000D+01
   s     1 1.00
  0.364300D+00  0.100000D+01
   p     5 1.00
  0.187100D+02  0.140310D-01
  0.413300D+01  0.868660D-01
  0.120000D+01  0.290216D+00
  0.382700D+00  0.501008D+00
  0.120900D+00  0.343406D+00
   p     1 1.00
  0.382700D+00  0.100000D+01
   p     1 1.00
  0.120900D+00  0.100000D+01
   d     1 1.00
  0.109700D+01  0.100000D+01
   d     1 1.00
  0.318000D+00  0.100000D+01
   f     1 1.00
  0.761000D+00  0.100000D+01
  
  7  0
   s    10 1.00
  0.823600D+04  0.531000D-03
  0.123500D+04  0.410800D-02
  0.280800D+03  0.210870D-01
  0.792700D+02  0.818530D-01
  0.255900D+02  0.234817D+00
  0.899700D+01  0.434401D+00
  0.331900D+01  0.346129D+00
  0.905900D+00  0.393780D-01
  0.364300D+00 -0.898300D-02
  0.128500D+00  0.238500D-02
   s    10 1.00
  0.823600D+04 -0.113000D-03
  0.123500D+04 -0.878000D-03
  0.280800D+03 -0.454000D-02
  0.792700D+02 -0.181330D-01
  0.255900D+02 -0.557600D-01
  0.899700D+01 -0.126895D+00
  0.331900D+01 -0.170352D+00
  0.905900D+00  0.140382D+00
  0.364300D+00  0.598684D+00
  0.128500D+00  0.395389D+00
   s     1 1.00
  0.905900D+00  0.100000D+01
   s     1 1.00
  0.364300D+00  0.100000D+01
   p     5 1.00
  0.187100D+02  0.140310D-01
  0.413300D+01  0.868660D-01
  0.120000D+01  0.290216D+00
  0.382700D+00  0.501008D+00
  0.120900D+00  0.343406D+00
   p     1 1.00
  0.382700D+00  0.100000D+01
   p     1 1.00
  0.120900D+00  0.100000D+01
   d     1 1.00
  0.109700D+01  0.100000D+01
   d     1 1.00
  0.318000D+00  0.100000D+01
   f     1 1.00
  0.761000D+00  0.100000D+01
  
  8  0
   s     4 1.00
  0.130100D+02  0.196850D-01
  0.196200D+01  0.137977D+00
  0.444600D+00  0.478148D+00
  0.122000D+00  0.501240D+00
   s     1 1.00
  0.122000D+00  0.100000D+01
   p     1 1.00
  0.727000D+00  0.100000D+01
  
  9  0
   s     4 1.00
  0.130100D+02  0.196850D-01
  0.196200D+01  0.137977D+00
  0.444600D+00  0.478148D+00
  0.122000D+00  0.501240D+00
   s     1 1.00
  0.122000D+00  0.100000D+01
   p     1 1.00
  0.727000D+00  0.100000D+01
  
 10  0
   s     4 1.00
  0.130100D+02  0.196850D-01
  0.196200D+01  0.137977D+00
  0.444600D+00  0.478148D+00
  0.122000D+00  0.501240D+00
   s     1 1.00
  0.122000D+00  0.100000D+01
   p     1 1.00
  0.727000D+00  0.100000D+01
  
 11  0
   s     4 1.00
  0.130100D+02  0.196850D-01
  0.196200D+01  0.137977D+00
  0.444600D+00  0.478148D+00
  0.122000D+00  0.501240D+00
   s     1 1.00
  0.122000D+00  0.100000D+01
   p     1 1.00
  0.727000D+00  0.100000D+01
  
 12  0
   s     4 1.00
  0.130100D+02  0.196850D-01
  0.196200D+01  0.137977D+00
  0.444600D+00  0.478148D+00
  0.122000D+00  0.501240D+00
   s     1 1.00
  0.122000D+00  0.100000D+01
   p     1 1.00
  0.727000D+00  0.100000D+01
  
 13  0
   s     4 1.00
  0.130100D+02  0.196850D-01
  0.196200D+01  0.137977D+00
  0.444600D+00  0.478148D+00
  0.122000D+00  0.501240D+00
   s     1 1.00
  0.122000D+00  0.100000D+01
   p     1 1.00
  0.727000D+00  0.100000D+01
  
 14  0
   s     4 1.00
  0.130100D+02  0.196850D-01
  0.196200D+01  0.137977D+00
  0.444600D+00  0.478148D+00
  0.122000D+00  0.501240D+00
   s     1 1.00
  0.122000D+00  0.100000D+01
   p     1 1.00
  0.727000D+00  0.100000D+01
  
[MO]
 Sym= __1_a__
 Ene=  0.000000000000000E+000
 Spin= Alpha
 Occup=    2.00000000000000     
                     1  2.884629691818140E-005
                     2  0.998719264463058     
                     3  1.466457963258780E-003
                     4  1.339231346456600E-003
                     5  4.567443151858470E-003
                     6  9.911767716513770E-012
                     7  2.906965515914750E-003
                     8  6.364173446115130E-003
                     9 -1.192225221913040E-011
                    10 -6.735192890908610E-004
                    11 -5.419346870116390E-004
                    12 -3.808833693805720E-012
                    13 -1.911916159838880E-003
                    14 -1.907726341224010E-003
                    15  2.402354118056014E-004
                    16  7.816508138897170E-013
                    17 -1.136160846955490E-005
                    18  6.253809021626040E-005
                    19  3.096011098992840E-013
                    20  1.035681483403376E-004
                    21 -2.966749725575470E-012
                    22  3.280877166794770E-004
                    23  2.980316293174060E-004
                    24 -5.438828258118120E-012
                    25 -1.114543397302544E-004
                    26 -1.629968554775442E-012
                    27  1.860088894236833E-005
                    28  2.040837328062620E-005
                    29  7.834012827527320E-013
                    30 -8.115104803139948E-013
                    31  1.394881712515273E-006
                    32 -2.863132450610020E-004
                    33  1.317949990028200E-003
                    34  2.381513924216900E-004
                    35 -2.757998231201000E-004
                    36 -8.721542017375031E-012
                    37 -1.489395241054410E-004
                    38 -4.292646982780740E-003
                    39  5.704537106139230E-012
                    40  4.560194835562120E-004
                    41  6.818697714739760E-005
                    42 -2.031736037644920E-012
                    43 -1.930122579262540E-003
                    44  5.314074476417890E-003
                    45  2.084822241887556E-004
                    46  1.537453735466030E-012
                    47 -8.004855422465450E-006
                    48  9.336587467665399E-005
                    49  4.681484756463170E-013
                    50  1.741159066386141E-004
                    51 -1.421238108910480E-011
                    52  5.770478983424020E-004
                    53 -2.192918373077460E-004
                    54 -4.756261606972980E-012
                    55 -1.110751585766370E-004
                    56  2.032039326544838E-012
                    57  3.683363849342318E-006
                    58  3.695536949828820E-005
                    59 -4.037295929245120E-012
                    60 -6.568281355643443E-013
                    61 -1.366405516168401E-005
                    62 -4.761911117479380E-004
                    63 -2.085484014981110E-003
                    64 -6.866817177128079E-005
                    65  1.903417150263780E-003
                    66 -6.641742904017040E-012
                    67 -5.986511145454740E-004
                    68  3.983670855395810E-004
                    69  1.527917824960760E-012
                    70  3.642844858049900E-004
                    71  7.230079916061210E-004
                    72 -2.198120687797140E-012
                    73 -1.650604971820890E-003
                    74  5.835059996472520E-004
                    75  8.291378519124619E-005
                    76 -2.139978789164220E-012
                    77 -2.523796132423930E-005
                    78  3.117687967274760E-006
                    79 -1.963846960827870E-012
                    80  3.024874431057278E-005
                    81 -2.972152876797500E-012
                    82  4.194652270289540E-005
                    83 -1.354082935786664E-004
                    84 -1.077954926291460E-012
                    85 -1.402638140148517E-004
                    86  2.191027256245904E-012
                    87 -1.749791358727226E-005
                    88  5.362172132398340E-005
                    89  1.673845123876310E-012
                    90 -4.513159494075233E-013
                    91  2.237516645157036E-006
                    92 -1.520276228065800E-004
                    93 -9.921290593652280E-004
                    94  1.776105177494780E-004
                    95 -9.397865502777170E-005
                    96 -5.515671300525840E-012
                    97  4.970922489314230E-004
                    98  5.347504264615150E-004
                    99  1.445799805411250E-011
                   100  3.256997059173610E-004
                   101  3.066669299294870E-004
                   102  5.401551958239210E-012
                   103  6.129895793436070E-004
                   104 -1.226520247258040E-003
                   105  5.549474238547511E-005
                   106 -3.808544880828770E-012
                   107 -1.303015105326290E-005
                   108  2.076522921489480E-005
                   109 -2.339293548963400E-012
                   110  3.041029932612294E-005
                   111  1.188870689529490E-011
                   112 -2.718273616617210E-005
                   113  1.553494314050284E-004
                   114 -7.146170613145840E-013
                   115 -5.146058991244451E-005
                   116  8.963541508014298E-013
                   117  2.285421911300977E-005
                   118 -3.396808192407880E-006
                   119 -1.183792974234910E-012
                   120  2.287269833108524E-013
                   121 -1.889503308158031E-005
                   122 -2.742108708871830E-004
                   123 -6.113138278093630E-004
                   124  1.604750219494040E-004
                   125  4.224991281944470E-004
                   126  6.206856494405100E-012
                   127 -1.593153405871560E-005
                   128 -4.723964392623700E-004
                   129 -8.729919337856719E-012
                   130  2.067163523804820E-004
                   131  5.557970291183250E-004
                   132  6.787098300977800E-012
                   133  2.564291665463290E-004
                   134  1.820111548331630E-003
                   135 -3.973170212138005E-005
                   136  1.838247848794180E-012
                   137 -1.411092984367360E-006
                   138 -1.219273352920526E-005
                   139  1.207834804601560E-012
                   140 -3.760420960128637E-004
                   141 -5.427482320713400E-012
                   142  2.199873420374230E-004
                   143  6.607199537012500E-006
                   144 -3.907650029970070E-012
                   145 -6.865849337206576E-005
                   146  1.823973658261337E-012
                   147 -1.143169069863566E-005
                   148 -1.709860539035650E-005
                   149 -3.148725945771010E-012
                   150  2.146829337939302E-015
                   151 -1.215647478342256E-005
                   152 -1.959217822368190E-004
                   153 -3.705095131488980E-004
                   154  4.701751788705340E-005
                   155  4.290831822641310E-004
                   156  4.077244515892600E-012
                   157 -2.148151842083770E-005
                   158 -4.117765772161630E-004
                   159 -7.249792862700960E-012
                   160 -9.935595264559609E-006
                   161  7.939759383427549E-005
                   162 -4.250501977856920E-012
                   163  6.183131439225630E-004
                   164 -1.020828336986510E-004
                   165  2.000286814904887E-006
                   166  7.404621799208760E-013
                   167  6.002129860846380E-006
                   168 -7.204969689570101E-007
                   169  1.418452730041340E-012
                   170 -6.085663975972895E-005
                   171  6.853557650041780E-012
                   172 -3.928908832038160E-005
                   173  4.275970994687260E-005
                   174  1.050229873070610E-012
                   175 -1.610710201709293E-005
                   176 -7.899107837386977E-013
                   177 -2.206465870791939E-005
                   178 -2.664771817831680E-006
                   179  4.537916617819200E-013
                   180  1.954973631777695E-012
                   181 -6.270214054942249E-008
                   182 -1.727169110173370E-004
                   183 -4.961097061317810E-004
                   184  5.384821471409470E-005
                   185  2.561644937911270E-004
                   186  3.166701528197960E-012
                   187 -3.258517945200270E-005
                   188 -5.135781854597070E-005
                   189  2.844983970317970E-012
                   190  1.698026310869850E-004
                   191  6.074550512336390E-005
                   192 -3.730979019799270E-012
                   193  1.079550817253630E-003
                   194 -1.368412356552100E-004
                   195  1.281588458746290E-005
                   196 -6.914555135598510E-013
                   197  5.543461312574830E-006
                   198  5.254177709244480E-006
                   199 -1.336496251114550E-012
                   200  5.571335027763001E-005
                   201 -3.812122726054540E-012
                   202 -1.534100146920030E-004
                   203  6.681410691427000E-005
                   204  9.131798058248789E-014
                   205 -5.353188753650520E-006
                   206 -1.856583040939729E-012
                   207  9.888269134808428E-006
                   208 -4.360968597741180E-006
                   209  6.019246028772140E-013
                   210  1.759340606302357E-012
                   211 -2.719282175055022E-006
                   212  2.685116835499490E-005
                   213 -6.684156433032570E-006
                   214  5.477770695966100E-013
                   215  1.684975078185080E-004
                   216  1.544136270560900E-004
                   217 -9.676886124861629E-005
                   218 -5.041214298024350E-004
                   219  2.014029609061690E-012
                   220 -2.860378368640840E-004
                   221  1.585684213350780E-004
                   222 -3.578829742054670E-004
                   223 -6.531281169507550E-004
                   224  2.870005760540620E-013
                   225  3.629496153321190E-006
                   226 -6.117775594841370E-005
                   227 -2.108803873774500E-004
                   228 -5.149208897501270E-004
                   229  1.027578176491560E-012
                   230 -5.487405989554280E-006
                   231 -2.036595971218550E-005
                   232 -5.263312154127910E-005
                   233 -5.546023603805870E-004
                   234 -1.037036898508730E-012
                   235  6.467981468741120E-006
                   236 -4.590684468348790E-006
                   237 -1.335664461823840E-004
                   238 -3.960350037338050E-004
                   239 -2.010487102043140E-012
                   240  5.813831190229300E-006
                   241  2.339961254592240E-006
                   242  1.529989406742030E-005
                   243 -4.983634741914010E-005
                   244  2.271216073829670E-012
                   245  1.749372525241550E-007
                   246  2.014567944839060E-005
 Sym= __2_a__
 Ene=  0.000000000000000E+000
 Spin= Alpha
 Occup=    2.00000000000000     
                     1 -5.597009225503410E-005
                     2 -3.531025518962740E-004
                     3  2.958498046872160E-003
                     4  1.667094065664490E-004
                     5  1.319120577320440E-003
                     6  4.428459305140010E-012
                     7 -1.140143285393080E-004
                     8  2.977703742536030E-003
                     9  4.448581878291250E-012
                    10 -2.233262105901150E-005
                    11 -1.166979526111200E-004
                    12 -4.079000927465810E-013
                    13  3.161534735287060E-005
                    14 -4.065280868455600E-004
                    15  2.972834384838216E-005
                    16 -1.100826565313890E-012
                    17  7.280704714836350E-006
                    18  5.681183101842060E-005
                    19  9.141394594477040E-014
                    20 -6.023847489561424E-005
                    21 -2.265038569215850E-012
                    22  1.608366780890340E-006
                    23 -1.737507438037702E-004
                    24  1.656784523337400E-012
                    25  1.740263056798995E-004
                    26  1.293763067142908E-012
                    27 -2.597336537472267E-006
                    28 -2.076872193828300E-005
                    29  3.056784210873580E-013
                    30  2.083295407435354E-012
                    31 -7.113383722375969E-006
                    32   1.00100812764750     
                    33  9.327445657807239E-003
                    34  2.747037376111540E-003
                    35 -8.105610617285239E-003
                    36  8.958228059456630E-013
                    37 -9.715158570771959E-005
                    38 -3.743995150539150E-003
                    39 -4.222565574313060E-012
                    40  1.145028310788650E-004
                    41  5.715816271543670E-004
                    42  2.920606682611830E-012
                    43  3.535093955215160E-005
                    44  4.271519345605050E-003
                    45  4.642833656690369E-004
                    46  1.872856866128090E-012
                    47 -5.447860495429120E-008
                    48 -3.970918861035200E-004
                    49 -2.132992532855020E-012
                    50  4.896161301820960E-004
                    51 -1.652365248760220E-012
                    52  3.805745621521910E-005
                    53  9.158437120911320E-004
                    54 -1.876088001818970E-012
                    55  3.751273266284250E-004
                    56 -2.263143987572525E-012
                    57  4.801579208494965E-006
                    58 -1.744140808353816E-004
                    59 -5.745636970196300E-013
                    60 -1.929875358728865E-012
                    61 -3.208602111736057E-006
                    62  9.085211580560620E-003
                    63 -2.088651165135020E-003
                    64 -2.919941020457850E-004
                    65  3.067603845937450E-003
                    66  8.084585484181859E-012
                    67 -1.264074334707950E-005
                    68  9.696836220825510E-005
                    69 -4.868667807618100E-012
                    70  7.152056278026430E-004
                    71  5.399495224448890E-006
                    72  1.359535160675460E-012
                    73 -2.053764249523680E-003
                    74  7.811038679611149E-005
                    75 -1.097114623896224E-005
                    76 -4.008178480214080E-013
                    77  3.464875764961030E-006
                    78  2.550244931602900E-005
                    79 -1.648582839276500E-013
                    80  7.170007752042358E-004
                    81 -3.146526648924140E-012
                    82 -3.771164965856160E-004
                    83 -5.933043973821720E-005
                    84  1.274344972311340E-012
                    85  7.498527969126020E-005
                    86  1.397178943968217E-012
                    87  4.226457581207784E-005
                    88 -1.318769283123400E-004
                    89 -1.652560854411300E-012
                    90  4.241210600482433E-012
                    91  4.478454994844407E-005
                    92  9.447387164505950E-003
                    93 -2.078744837136060E-003
                    94 -2.768192826466940E-004
                    95  3.009505410984520E-003
                    96 -1.200281636651390E-011
                    97  5.354525263581300E-006
                    98  8.453322276963450E-005
                    99  2.348257137476180E-011
                   100 -6.542921239816820E-004
                   101  5.419760693193350E-005
                   102  7.185326521727760E-012
                   103  2.054867701083100E-003
                   104  7.711776430916140E-005
                   105 -1.070964010301856E-005
                   106 -5.050836022972150E-013
                   107 -7.694863559787221E-006
                   108  2.973362681549040E-005
                   109  1.227667609918980E-012
                   110  7.368067948999854E-004
                   111  1.493634420287160E-012
                   112  3.612668145585880E-004
                   113 -4.489756388821440E-005
                   114 -6.848612693761860E-012
                   115  7.330663649657918E-005
                   116  8.074935509788646E-013
                   117 -4.114312847508044E-005
                   118 -1.318953599566576E-004
                   119 -1.245986295463670E-012
                   120  2.716668446565508E-012
                   121 -4.498854578343575E-005
                   122 -1.715186925336260E-004
                   123 -6.849938537746510E-004
                   124  2.263120900884720E-004
                   125 -1.089970648816690E-004
                   126 -1.057971517633850E-012
                   127 -2.105129001494280E-006
                   128 -3.340482621405730E-004
                   129  3.313790217905330E-012
                   130 -5.866985566048990E-005
                   131  5.380154008267390E-004
                   132 -4.250539263629920E-012
                   133  3.193873116011460E-004
                   134  7.543017139743530E-004
                   135 -1.271214981766812E-005
                   136 -2.946406876009920E-012
                   137  5.299394794567040E-005
                   138  1.467835549939830E-005
                   139  3.403333827901930E-012
                   140 -2.795759764200400E-004
                   141  3.350932429400050E-012
                   142 -1.860919103532020E-004
                   143 -4.294321500763580E-006
                   144 -3.393830377709110E-012
                   145  1.850011165082331E-006
                   146  2.558254972438506E-012
                   147 -4.727886379871482E-005
                   148 -4.351495080472700E-005
                   149 -9.732916260052001E-013
                   150  1.412298728867052E-012
                   151 -4.964753326899261E-006
                   152 -1.569975677545920E-004
                   153 -6.859440802169720E-004
                   154  2.290491179156820E-004
                   155 -1.289253149524080E-004
                   156  1.714909677156440E-011
                   157  2.311639658582400E-006
                   158 -3.334442582212550E-004
                   159 -1.154882406769670E-011
                   160  4.879551557658150E-005