[Molden Format]
[Atoms] AU
  N     1    7     0.0009524000   -0.0008007200   -4.3120643900        
  C     2    6    -0.0001239600   -0.0018025400   -1.7694720700        
  C     3    6     0.0574307700   -2.3362445600   -0.4130063200        
  C     4    6    -0.0588278900    2.3315698400   -0.4112163500        
  C     5    6     0.0910638800   -2.2998980300    2.1668969000        
  C     6    6    -0.0946452000    2.2931902600    2.1686280300        
  C     7    6    -0.0023433700   -0.0038683400    3.4734492300        
  H     8    1    -0.8619814400   -1.4203541800   -5.3269868000        
  H     9    1     0.8647447900    1.4195517700   -5.3251368500        
  H    10    1     0.1387953900   -4.0671879100   -1.4509631200        
  H    11    1    -0.1393143100    4.0633306300   -1.4478772800        
  H    12    1     0.1917366800   -4.0390771700    3.1995103900        
  H    13    1    -0.1961928000    4.0315551700    3.2025261200        
  H    14    1    -0.0032015400   -0.0046671000    5.5006768700        
[5D]
[7F]
[GTO]
  1  0
   s    12 1.00
  0.114200D+05  0.172695D-04
  0.171200D+04  0.134411D-03
  0.389300D+03  0.694561D-03
  0.110000D+03  0.278531D-02
  0.355700D+02  0.863457D-02
  0.125400D+02  0.199805D-01
  0.464400D+01  0.262908D-01
  0.129300D+01 -0.243845D-01
  0.511800D+00 -0.924934D-01
  0.178700D+00 -0.339683D+00
  0.246240D-01  0.345111D+00
  0.112530D-01  0.752750D+00
   s    10 1.00
  0.114200D+05  0.523000D-03
  0.171200D+04  0.404500D-02
  0.389300D+03  0.207750D-01
  0.110000D+03  0.807269D-01
  0.355700D+02  0.233074D+00
  0.125400D+02  0.433501D+00
  0.464400D+01  0.347472D+00
  0.129300D+01  0.412620D-01
  0.511800D+00 -0.850799D-02
  0.178700D+00  0.238400D-02
   s    10 1.00
  0.114200D+05 -0.115000D-03
  0.171200D+04 -0.895000D-03
  0.389300D+03 -0.462400D-02
  0.110000D+03 -0.185280D-01
  0.355700D+02 -0.573390D-01
  0.125400D+02 -0.132076D+00
  0.464400D+01 -0.172510D+00
  0.129300D+01  0.151814D+00
  0.511800D+00  0.599944D+00
  0.178700D+00  0.387462D+00
   s     1 1.00
  0.129300D+01  0.100000D+01
   s     1 1.00
  0.178700D+00  0.100000D+01
   p     5 1.00
  0.266300D+02  0.146700D-01
  0.594800D+01  0.917640D-01
  0.174200D+01  0.298683D+00
  0.555000D+00  0.498487D+00
  0.172500D+00  0.337023D+00
   p     1 1.00
  0.174200D+01  0.100000D+01
   p     1 1.00
  0.555000D+00  0.100000D+01
   d     1 1.00
  0.165400D+01  0.100000D+01
   d     1 1.00
  0.469000D+00  0.100000D+01
   f     1 1.00
  0.109300D+01  0.100000D+01
  
  2  0
   s    10 1.00
  0.823600D+04  0.531000D-03
  0.123500D+04  0.410800D-02
  0.280800D+03  0.210870D-01
  0.792700D+02  0.818530D-01
  0.255900D+02  0.234817D+00
  0.899700D+01  0.434401D+00
  0.331900D+01  0.346129D+00
  0.905900D+00  0.393780D-01
  0.364300D+00 -0.898300D-02
  0.128500D+00  0.238500D-02
   s    10 1.00
  0.823600D+04 -0.113000D-03
  0.123500D+04 -0.878000D-03
  0.280800D+03 -0.454000D-02
  0.792700D+02 -0.181330D-01
  0.255900D+02 -0.557600D-01
  0.899700D+01 -0.126895D+00
  0.331900D+01 -0.170352D+00
  0.905900D+00  0.140382D+00
  0.364300D+00  0.598684D+00
  0.128500D+00  0.395389D+00
   s     1 1.00
  0.905900D+00  0.100000D+01
   s     1 1.00
  0.364300D+00  0.100000D+01
   p     5 1.00
  0.187100D+02  0.140310D-01
  0.413300D+01  0.868660D-01
  0.120000D+01  0.290216D+00
  0.382700D+00  0.501008D+00
  0.120900D+00  0.343406D+00
   p     1 1.00
  0.382700D+00  0.100000D+01
   p     1 1.00
  0.120900D+00  0.100000D+01
   d     1 1.00
  0.109700D+01  0.100000D+01
   d     1 1.00
  0.318000D+00  0.100000D+01
   f     1 1.00
  0.761000D+00  0.100000D+01
  
  3  0
   s    10 1.00
  0.823600D+04  0.531000D-03
  0.123500D+04  0.410800D-02
  0.280800D+03  0.210870D-01
  0.792700D+02  0.818530D-01
  0.255900D+02  0.234817D+00
  0.899700D+01  0.434401D+00
  0.331900D+01  0.346129D+00
  0.905900D+00  0.393780D-01
  0.364300D+00 -0.898300D-02
  0.128500D+00  0.238500D-02
   s    10 1.00
  0.823600D+04 -0.113000D-03
  0.123500D+04 -0.878000D-03
  0.280800D+03 -0.454000D-02
  0.792700D+02 -0.181330D-01
  0.255900D+02 -0.557600D-01
  0.899700D+01 -0.126895D+00
  0.331900D+01 -0.170352D+00
  0.905900D+00  0.140382D+00
  0.364300D+00  0.598684D+00
  0.128500D+00  0.395389D+00
   s     1 1.00
  0.905900D+00  0.100000D+01
   s     1 1.00
  0.364300D+00  0.100000D+01
   p     5 1.00
  0.187100D+02  0.140310D-01
  0.413300D+01  0.868660D-01
  0.120000D+01  0.290216D+00
  0.382700D+00  0.501008D+00
  0.120900D+00  0.343406D+00
   p     1 1.00
  0.382700D+00  0.100000D+01
   p     1 1.00
  0.120900D+00  0.100000D+01
   d     1 1.00
  0.109700D+01  0.100000D+01
   d     1 1.00
  0.318000D+00  0.100000D+01
   f     1 1.00
  0.761000D+00  0.100000D+01
  
  4  0
   s    10 1.00
  0.823600D+04  0.531000D-03
  0.123500D+04  0.410800D-02
  0.280800D+03  0.210870D-01
  0.792700D+02  0.818530D-01
  0.255900D+02  0.234817D+00
  0.899700D+01  0.434401D+00
  0.331900D+01  0.346129D+00
  0.905900D+00  0.393780D-01
  0.364300D+00 -0.898300D-02
  0.128500D+00  0.238500D-02
   s    10 1.00
  0.823600D+04 -0.113000D-03
  0.123500D+04 -0.878000D-03
  0.280800D+03 -0.454000D-02
  0.792700D+02 -0.181330D-01
  0.255900D+02 -0.557600D-01
  0.899700D+01 -0.126895D+00
  0.331900D+01 -0.170352D+00
  0.905900D+00  0.140382D+00
  0.364300D+00  0.598684D+00
  0.128500D+00  0.395389D+00
   s     1 1.00
  0.905900D+00  0.100000D+01
   s     1 1.00
  0.364300D+00  0.100000D+01
   p     5 1.00
  0.187100D+02  0.140310D-01
  0.413300D+01  0.868660D-01
  0.120000D+01  0.290216D+00
  0.382700D+00  0.501008D+00
  0.120900D+00  0.343406D+00
   p     1 1.00
  0.382700D+00  0.100000D+01
   p     1 1.00
  0.120900D+00  0.100000D+01
   d     1 1.00
  0.109700D+01  0.100000D+01
   d     1 1.00
  0.318000D+00  0.100000D+01
   f     1 1.00
  0.761000D+00  0.100000D+01
  
  5  0
   s    10 1.00
  0.823600D+04  0.531000D-03
  0.123500D+04  0.410800D-02
  0.280800D+03  0.210870D-01
  0.792700D+02  0.818530D-01
  0.255900D+02  0.234817D+00
  0.899700D+01  0.434401D+00
  0.331900D+01  0.346129D+00
  0.905900D+00  0.393780D-01
  0.364300D+00 -0.898300D-02
  0.128500D+00  0.238500D-02
   s    10 1.00
  0.823600D+04 -0.113000D-03
  0.123500D+04 -0.878000D-03
  0.280800D+03 -0.454000D-02
  0.792700D+02 -0.181330D-01
  0.255900D+02 -0.557600D-01
  0.899700D+01 -0.126895D+00
  0.331900D+01 -0.170352D+00
  0.905900D+00  0.140382D+00
  0.364300D+00  0.598684D+00
  0.128500D+00  0.395389D+00
   s     1 1.00
  0.905900D+00  0.100000D+01
   s     1 1.00
  0.364300D+00  0.100000D+01
   p     5 1.00
  0.187100D+02  0.140310D-01
  0.413300D+01  0.868660D-01
  0.120000D+01  0.290216D+00
  0.382700D+00  0.501008D+00
  0.120900D+00  0.343406D+00
   p     1 1.00
  0.382700D+00  0.100000D+01
   p     1 1.00
  0.120900D+00  0.100000D+01
   d     1 1.00
  0.109700D+01  0.100000D+01
   d     1 1.00
  0.318000D+00  0.100000D+01
   f     1 1.00
  0.761000D+00  0.100000D+01
  
  6  0
   s    10 1.00
  0.823600D+04  0.531000D-03
  0.123500D+04  0.410800D-02
  0.280800D+03  0.210870D-01
  0.792700D+02  0.818530D-01
  0.255900D+02  0.234817D+00
  0.899700D+01  0.434401D+00
  0.331900D+01  0.346129D+00
  0.905900D+00  0.393780D-01
  0.364300D+00 -0.898300D-02
  0.128500D+00  0.238500D-02
   s    10 1.00
  0.823600D+04 -0.113000D-03
  0.123500D+04 -0.878000D-03
  0.280800D+03 -0.454000D-02
  0.792700D+02 -0.181330D-01
  0.255900D+02 -0.557600D-01
  0.899700D+01 -0.126895D+00
  0.331900D+01 -0.170352D+00
  0.905900D+00  0.140382D+00
  0.364300D+00  0.598684D+00
  0.128500D+00  0.395389D+00
   s     1 1.00
  0.905900D+00  0.100000D+01
   s     1 1.00
  0.364300D+00  0.100000D+01
   p     5 1.00
  0.187100D+02  0.140310D-01
  0.413300D+01  0.868660D-01
  0.120000D+01  0.290216D+00
  0.382700D+00  0.501008D+00
  0.120900D+00  0.343406D+00
   p     1 1.00
  0.382700D+00  0.100000D+01
   p     1 1.00
  0.120900D+00  0.100000D+01
   d     1 1.00
  0.109700D+01  0.100000D+01
   d     1 1.00
  0.318000D+00  0.100000D+01
   f     1 1.00
  0.761000D+00  0.100000D+01
  
  7  0
   s    10 1.00
  0.823600D+04  0.531000D-03
  0.123500D+04  0.410800D-02
  0.280800D+03  0.210870D-01
  0.792700D+02  0.818530D-01
  0.255900D+02  0.234817D+00
  0.899700D+01  0.434401D+00
  0.331900D+01  0.346129D+00
  0.905900D+00  0.393780D-01
  0.364300D+00 -0.898300D-02
  0.128500D+00  0.238500D-02
   s    10 1.00
  0.823600D+04 -0.113000D-03
  0.123500D+04 -0.878000D-03
  0.280800D+03 -0.454000D-02
  0.792700D+02 -0.181330D-01
  0.255900D+02 -0.557600D-01
  0.899700D+01 -0.126895D+00
  0.331900D+01 -0.170352D+00
  0.905900D+00  0.140382D+00
  0.364300D+00  0.598684D+00
  0.128500D+00  0.395389D+00
   s     1 1.00
  0.905900D+00  0.100000D+01
   s     1 1.00
  0.364300D+00  0.100000D+01
   p     5 1.00
  0.187100D+02  0.140310D-01
  0.413300D+01  0.868660D-01
  0.120000D+01  0.290216D+00
  0.382700D+00  0.501008D+00
  0.120900D+00  0.343406D+00
   p     1 1.00
  0.382700D+00  0.100000D+01
   p     1 1.00
  0.120900D+00  0.100000D+01
   d     1 1.00
  0.109700D+01  0.100000D+01
   d     1 1.00
  0.318000D+00  0.100000D+01
   f     1 1.00
  0.761000D+00  0.100000D+01
  
  8  0
   s     4 1.00
  0.130100D+02  0.196850D-01
  0.196200D+01  0.137977D+00
  0.444600D+00  0.478148D+00
  0.122000D+00  0.501240D+00
   s     1 1.00
  0.122000D+00  0.100000D+01
   p     1 1.00
  0.727000D+00  0.100000D+01
  
  9  0
   s     4 1.00
  0.130100D+02  0.196850D-01
  0.196200D+01  0.137977D+00
  0.444600D+00  0.478148D+00
  0.122000D+00  0.501240D+00
   s     1 1.00
  0.122000D+00  0.100000D+01
   p     1 1.00
  0.727000D+00  0.100000D+01
  
 10  0
   s     4 1.00
  0.130100D+02  0.196850D-01
  0.196200D+01  0.137977D+00
  0.444600D+00  0.478148D+00
  0.122000D+00  0.501240D+00
   s     1 1.00
  0.122000D+00  0.100000D+01
   p     1 1.00
  0.727000D+00  0.100000D+01
  
 11  0
   s     4 1.00
  0.130100D+02  0.196850D-01
  0.196200D+01  0.137977D+00
  0.444600D+00  0.478148D+00
  0.122000D+00  0.501240D+00
   s     1 1.00
  0.122000D+00  0.100000D+01
   p     1 1.00
  0.727000D+00  0.100000D+01
  
 12  0
   s     4 1.00
  0.130100D+02  0.196850D-01
  0.196200D+01  0.137977D+00
  0.444600D+00  0.478148D+00
  0.122000D+00  0.501240D+00
   s     1 1.00
  0.122000D+00  0.100000D+01
   p     1 1.00
  0.727000D+00  0.100000D+01
  
 13  0
   s     4 1.00
  0.130100D+02  0.196850D-01
  0.196200D+01  0.137977D+00
  0.444600D+00  0.478148D+00
  0.122000D+00  0.501240D+00
   s     1 1.00
  0.122000D+00  0.100000D+01
   p     1 1.00
  0.727000D+00  0.100000D+01
  
 14  0
   s     4 1.00
  0.130100D+02  0.196850D-01
  0.196200D+01  0.137977D+00
  0.444600D+00  0.478148D+00
  0.122000D+00  0.501240D+00
   s     1 1.00
  0.122000D+00  0.100000D+01
   p     1 1.00
  0.727000D+00  0.100000D+01
  
[MO]
 Sym= __1_A__
 Ene=   1.00000000000000     
 Spin= Alpha
 Occup=    1.00000000000000     
                     1  4.502649009973675E-005
                     2  0.998015464001990     
                     3  9.132826389559144E-003
                     4  2.085298191294768E-003
                     5  1.631609970276252E-003
                     6 -1.845457350669643E-006
                     7 -1.733403990918377E-006
                     8  4.375005818767942E-003
                     9  6.622858922173476E-008
                    10  7.463351330315083E-008
                    11 -1.642735631763727E-004
                    12  1.147850235214461E-007
                    13  7.901873788832320E-008
                    14 -2.776212865641024E-004
                    15  2.351138930594341E-004
                    16 -1.682658149013198E-007
                    17 -1.031496212261407E-007
                    18 -6.262858957692675E-005
                    19  7.612015683961307E-005
                    20  1.271941861753395E-004
                    21 -1.499052324066396E-007
                    22 -4.092991550319823E-007
                    23  2.843779346514286E-004
                    24 -4.385413031201669E-004
                    25 -1.837211308954628E-004
                    26 -1.814449721615825E-007
                    27 -2.475620916768709E-007
                    28  5.982686029112802E-005
                    29 -4.953370378739001E-005
                    30  5.553553914735455E-008
                    31 -4.276840600950875E-009
                    32 -2.971495294324502E-004
                    33  2.748042977458894E-003
                    34  1.433576045140988E-004
                    35 -3.709769844573705E-004
                    36  2.886187787464409E-006
                    37  2.708887844203294E-006
                    38 -6.829029831575842E-003
                    39 -7.859493910817507E-008
                    40 -1.295714334150169E-007
                    41  2.004417314277156E-004
                    42 -1.826606337608370E-006
                    43 -1.650993365306333E-006
                    44  4.299285525209357E-003
                    45  3.467906295382090E-004
                    46 -2.078423146092868E-007
                    47 -2.804137003301160E-007
                    48  1.214110251744412E-004
                    49 -1.297994491118389E-005
                    50  2.549611808203774E-004
                    51 -2.560978183292334E-007
                    52 -1.656099816762363E-007
                    53 -2.625035677022418E-004
                    54  1.073773476730368E-004
                    55 -9.862677617675606E-005
                    56 -7.115187657672422E-008
                    57 -1.518640231940089E-007
                    58  6.470050194920793E-005
                    59 -2.066383979513516E-005
                    60  4.337127891949183E-008
                    61 -2.424154143936912E-008
                    62 -2.065487870374253E-004
                    63 -1.653699725973767E-003
                    64  3.365372408728349E-005
                    65  6.639705530214657E-004
                    66 -2.190694148539352E-005
                    67 -8.396563594564540E-004
                    68  1.016243697890455E-003
                    69  5.321860559240491E-005
                    70  1.629800646546043E-005
                    71  4.686089615240525E-004
                    72  3.490984339180034E-005
                    73 -6.472992128584336E-004
                    74 -1.917998162225647E-004
                    75  8.904765379203955E-005
                    76  2.635311354362873E-006
                    77 -1.085328980282720E-005
                    78  3.583666205716748E-005
                    79 -2.687845068568128E-007
                    80  1.759638907742411E-005
                    81 -3.326544590234494E-005
                    82  1.302618358561183E-004
                    83 -9.534518655944202E-006
                    84  3.156640631377995E-005
                    85 -8.798924585223249E-005
                    86  4.417442585202727E-006
                    87 -2.008837518304879E-005
                    88  2.160703583516472E-005
                    89 -7.087107933598246E-006
                    90  2.030505595096586E-006
                    91  1.664016850591458E-005
                    92 -2.065126251788352E-004
                    93 -1.653554545332294E-003
                    94  3.381822538901003E-005
                    95  6.634318206269504E-004
                    96  2.104404073943469E-005
                    97  8.388743750760586E-004
                    98  1.017031461103791E-003
                    99 -5.360538247317792E-005
                   100 -1.680627399992447E-005
                   101  4.679268807818034E-004
                   102 -3.472087164589369E-005
                   103  6.468788079577526E-004
                   104 -1.911573181628585E-004
                   105  8.902604869340884E-005
                   106 -2.735321907137618E-006
                   107  1.072017420800400E-005
                   108  3.584939224608930E-005
                   109 -2.759464697380658E-007
                   110  1.702880973078704E-005
                   111  3.326553529153744E-005
                   112 -1.303584726987761E-004
                   113 -9.753831998434304E-006
                   114  3.164723753989359E-005
                   115 -8.795121186609117E-005
                   116 -4.578633969318359E-006
                   117  1.988421205066043E-005
                   118  2.161962442584182E-005
                   119 -7.128062570715226E-006
                   120 -2.001581124778369E-006
                   121 -1.665281078234712E-005
                   122 -1.524726383282196E-004
                   123 -1.829545687557092E-005
                   124  1.026923409282840E-004
                   125  1.634461531859634E-004
                   126 -3.362520200547107E-005
                   127  4.148204910107122E-005
                   128 -7.762236724452740E-004
                   129  4.856530363057616E-008
                   130  2.500020848241730E-005
                   131  3.108833239513455E-004
                   132  1.840874964791630E-005
                   133 -1.195662633056859E-004
                   134  6.760286865578432E-004
                   135 -1.354822108957418E-005
                   136  2.056361207324162E-006
                   137  2.700455918094072E-006
                   138  2.064755089304584E-007
                   139  1.654776552223959E-006
                   140 -1.746821669700966E-004
                   141 -1.789396029661718E-005
                   142  1.443052917536833E-004
                   143  1.942615617831002E-005
                   144 -9.100192024983501E-006
                   145 -3.522521212519783E-005
                   146  2.288064191055119E-007
                   147 -6.513715182865644E-007
                   148 -8.643578850926186E-006
                   149 -1.519258892020131E-006
                   150 -7.930033644234865E-007
                   151 -3.035198423479436E-006
                   152 -1.529464658904945E-004
                   153 -1.997057759136107E-005
                   154  1.022122547787396E-004
                   155  1.664657736046587E-004
                   156  3.427360357435459E-005
                   157 -4.081324531777031E-005
                   158 -7.761970287624648E-004
                   159 -2.806058270133150E-007
                   160 -2.560648456249188E-005
                   161  3.105137727001191E-004
                   162 -1.900996121962222E-005
                   163  1.195765064109999E-004
                   164  6.762794897003666E-004
                   165 -1.350111112867058E-005
                   166 -2.036581673299787E-006
                   167 -2.688817050096721E-006
                   168  1.542278701118320E-007
                   169  1.653583781124683E-006
                   170 -1.747213533293771E-004
                   171  1.816224938386100E-005
                   172 -1.443478172322972E-004
                   173  1.925035447177479E-005
                   174 -8.992407773172636E-006
                   175 -3.513867612949734E-005
                   176 -3.125155854652456E-007
                   177  5.993927723125651E-007
                   178 -8.691776844340910E-006
                   179 -1.520193417521300E-006
                   180  7.857335404225141E-007
                   181  3.054754583176551E-006
                   182 -1.280506464546437E-004
                   183 -3.447146697135739E-004
                   184  3.035428654684436E-005
                   185  1.830345835284384E-004
                   186  1.182170644155540E-008
                   187  1.049035415347476E-007
                   188 -4.473740178509662E-005
                   189  1.606198815325107E-008
                   190 -4.441819742873011E-007
                   191  1.655814244057160E-005
                   192  8.135889632111811E-010
                   193 -4.468423079475991E-008
                   194  7.918212121460912E-006
                   195  1.849427886205974E-005
                   196 -1.106988581745857E-008
                   197  8.756036114351604E-009
                   198  8.040703173091825E-006
                   199  8.624638183429750E-007
                   200  5.217757459259900E-005
                   201 -3.149197179912968E-008
                   202  1.590084540390662E-007
                   203  4.008743080456802E-005
                   204 -5.780779234324029E-006
                   205 -1.161769759850881E-005
                   206 -8.077218118911551E-009
                   207 -1.970677446080741E-008
                   208  3.278385930179954E-006
                   209  1.992558107782868E-006
                   210  4.035283036442105E-009
                   211  2.474769928699209E-008
                   212  3.933395590673516E-003
                   213 -2.352673907393026E-003
                   214  2.607020780213466E-004
                   215  3.957248897528671E-004
                   216  3.672697561061138E-004
                   217  3.933368905194619E-003
                   218 -2.352663055412329E-003
                   219 -2.610115742142921E-004
                   220 -3.960127341190505E-004
                   221  3.667376917956440E-004
                   222 -6.281892422150640E-004
                   223 -1.997436977219914E-004
                   224  2.609582259107860E-006
                   225 -2.325758762474220E-005
                   226 -4.238316396207647E-005
                   227 -6.282574261297844E-004
                   228 -1.993718705324102E-004
                   229 -2.573564774061201E-006
                   230  2.327296695307951E-005
                   231 -4.239344625873305E-005
                   232 -2.309856941682951E-004
                   233 -3.646755246639058E-004
                   234 -2.535122158172412E-006
                   235 -7.677766345426924E-006
                   236  3.739524542124039E-006
                   237 -2.310254293478598E-004
                   238 -3.648349774433084E-004
                   239  2.528983410371666E-006
                   240  7.720729714830792E-006
                   241  3.795074401293874E-006
                   242  7.020535623262254E-005
                   243 -9.535395158286155E-005
                   244 -6.199917284151840E-009
                   245 -2.732470483595446E-008
                   246  1.506950720990894E-005
 Sym= __2_A__
 Ene=   2.00000000000000     
 Spin= Alpha
 Occup=    1.00000000000000     
                     1 -3.579826998508194E-005
                     2 -1.724536711903335E-004
                     3  2.173904975285930E-003
                     4  8.636667452281262E-005
                     5  1.253338217589493E-003
                     6 -1.160375585506979E-006
                     7 -1.073472117296878E-006
                     8  2.731531948244918E-003
                     9  3.103049010779168E-008
                    10  2.438701358633570E-008
                    11 -6.915938750170204E-005
                    12  1.576804949757152E-007
                    13  1.492503184255730E-007
                    14 -3.641804751826074E-004
                    15  4.531852777026997E-005
                    16 -2.573371585440018E-008
                    17 -5.993521779206517E-008
                    18  4.456826894790686E-005
                    19 -2.805510617019213E-005
                    20 -2.229771743280904E-004
                    21  1.357974691208055E-007
                    22  2.942593789203021E-007
                    23 -2.038390387224832E-004
                    24  1.458431912846613E-004
                    25  1.897983081552479E-004
                    26  1.628625868683984E-007
                    27  1.758234635107671E-007
                    28 -2.240556421100274E-005
                    29 -3.175312973344978E-005
                    30  3.766821621742431E-009
                    31  2.803306023346150E-008
                    32   1.00105535157534     
                    33  9.132178066887006E-003
                    34  2.613715615404371E-003
                    35 -7.786155615045441E-003
                    36  1.633821208963907E-006
                    37  1.515290878675808E-006
                    38 -3.859476144256589E-003
                    39 -4.721034068963637E-007
                    40 -4.367556678920769E-007
                    41  1.114008342709927E-003
                    42 -1.783362958016775E-006
                    43 -1.733425286418463E-006
                    44  4.224000386893589E-003
                    45  4.211906468939041E-004
                    46 -4.772961565364068E-007
                    47 -1.199651872728249E-007
                    48 -4.138109659416388E-004
                    49  1.693449085234771E-005
                    50  4.720142103201630E-004
                    51  1.337935705425027E-008
                    52 -6.591367548436981E-007
                    53  8.637058946837042E-004
                    54 -1.814379007493637E-005
                    55  3.590674649009323E-004
                    56  2.496945952109885E-007
                    57  4.759031985859984E-007
                    58 -1.946070780215114E-004
                    59  1.312757511595599E-005
                    60 -1.070833094234167E-007
                    61  8.881292016891791E-008
                    62  8.273003320569496E-003
                    63 -1.980893142267572E-003
                    64 -2.714130969466107E-004
                    65  2.973178710176484E-003
                    66  6.642179515595712E-006
                    67  1.340298869157103E-004
                    68 -4.856867174641197E-005
                    69 -3.840789721120540E-005
                    70  5.625819269798832E-004
                    71  6.903878259364417E-005
                    72  7.644320010297970E-005
                    73 -1.999122109299184E-003
                    74  9.955248485140872E-005
                    75 -1.752539101978420E-005
                    76  1.713467644887484E-006
                    77  1.640942769110901E-005
                    78  2.907430201077872E-005
                    79  2.422993651222974E-006
                    80  7.576543349334778E-004
                    81  2.957330840683808E-005
                    82 -4.180717808122768E-004
                    83 -1.856041199381147E-005
                    84 -1.872315846108544E-005
                    85  6.659673189379958E-005
                    86 -9.984125431435195E-007
                    87  3.897309533263178E-005
                    88 -1.222249740911170E-004
                    89  7.122098118672945E-007
                    90  2.828394812039199E-006
                    91  4.960630019218415E-005
                    92  8.272977314862155E-003
                    93 -1.980976339228556E-003
                    94 -2.714570049719662E-004
                    95  2.973379951916907E-003
                    96 -6.600265516322541E-006
                    97 -1.339926148697187E-004
                    98 -4.870409514878518E-005
                    99  3.834773045761418E-005
                   100 -5.626337881035653E-004
                   101  6.876376112477214E-005
                   102 -7.653561067683053E-005
                   103  1.999174453023295E-003
                   104  1.009061339049573E-004
                   105 -1.753624100734299E-005
                   106 -1.661471830002319E-006
                   107 -1.641251093351222E-005
                   108  2.906126393325376E-005
                   109  2.438306046354807E-006
                   110  7.582467632131966E-004
                   111 -3.071782169268440E-005
                   112  4.170838974580116E-004
                   113 -1.818597252532905E-005
                   114 -1.905203531957162E-005
                   115  6.665554905869146E-005
                   116  9.732231374876041E-007
                   117 -3.868871828454788E-005
                   118 -1.223172194289504E-004
                   119  7.089175632549801E-007
                   120 -2.955537350224674E-006
                   121 -4.948767529579236E-005
                   122 -2.163294361086658E-004
                   123 -7.488635563620552E-004
                   124  2.255227210648081E-004
                   125 -1.341474220068572E-004
                   126 -6.022621704329750E-006
                   127 -2.493218824438884E-005
                   128 -2.361670468736617E-004
                   129  1.274737344574709E-005
                   130  4.148340357333127E-006
                   131  5.471225687756960E-004
                   132 -1.279848618525485E-005
                   133  3.093809274046268E-004
                   134  7.225103859259966E-004
                   135 -1.675711534108873E-005
                   136 -3.051345186915244E-006
                   137  5.040007851689208E-005
                   138  1.448762673861863E-005
                   139  2.255507022492806E-006
                   140 -2.976323490574596E-004
                   141  2.741641176084612E-006
                   142 -2.269777411568407E-004
                   143 -1.843695979349633E-005
                   144 -9.951659372855075E-006
                   145 -1.885947296151725E-006
                   146  3.597565387282333E-006
                   147 -3.603821397226938E-005
                   148 -3.692462038694370E-005
                   149 -3.340548812294525E-006
                   150  8.669485521034463E-007
                   151 -6.417984882057177E-006
                   152 -2.160409255481646E-004
                   153 -7.479054147737672E-004
                   154  2.255914738872603E-004
                   155 -1.351799816780719E-004
                   156  6.223502021641526E-006
                   157  2.510813462497337E-005
                   158 -2.361460112220246E-004
                   159 -1.321483515048810E-005
                   160 -4.529752939803281E-006