[Molden Format]
[Atoms] AU
  N     1    7     0.0009524000   -0.0008007200   -4.3120643900        
  C     2    6    -0.0001239600   -0.0018025400   -1.7694720700        
  C     3    6     0.0574307700   -2.3362445600   -0.4130063200        
  C     4    6    -0.0588278900    2.3315698400   -0.4112163500        
  C     5    6     0.0910638800   -2.2998980300    2.1668969000        
  C     6    6    -0.0946452000    2.2931902600    2.1686280300        
  C     7    6    -0.0023433700   -0.0038683400    3.4734492300        
  H     8    1    -0.8619814400   -1.4203541800   -5.3269868000        
  H     9    1     0.8647447900    1.4195517700   -5.3251368500        
  H    10    1     0.1387953900   -4.0671879100   -1.4509631200        
  H    11    1    -0.1393143100    4.0633306300   -1.4478772800        
  H    12    1     0.1917366800   -4.0390771700    3.1995103900        
  H    13    1    -0.1961928000    4.0315551700    3.2025261200        
  H    14    1    -0.0032015400   -0.0046671000    5.5006768700        
[5D]
[7F]
[GTO]
  1  0
   s    12 1.00
  0.114200D+05  0.172695D-04
  0.171200D+04  0.134411D-03
  0.389300D+03  0.694561D-03
  0.110000D+03  0.278531D-02
  0.355700D+02  0.863457D-02
  0.125400D+02  0.199805D-01
  0.464400D+01  0.262908D-01
  0.129300D+01 -0.243845D-01
  0.511800D+00 -0.924934D-01
  0.178700D+00 -0.339683D+00
  0.246240D-01  0.345111D+00
  0.112530D-01  0.752750D+00
   s    10 1.00
  0.114200D+05  0.523000D-03
  0.171200D+04  0.404500D-02
  0.389300D+03  0.207750D-01
  0.110000D+03  0.807269D-01
  0.355700D+02  0.233074D+00
  0.125400D+02  0.433501D+00
  0.464400D+01  0.347472D+00
  0.129300D+01  0.412620D-01
  0.511800D+00 -0.850799D-02
  0.178700D+00  0.238400D-02
   s    10 1.00
  0.114200D+05 -0.115000D-03
  0.171200D+04 -0.895000D-03
  0.389300D+03 -0.462400D-02
  0.110000D+03 -0.185280D-01
  0.355700D+02 -0.573390D-01
  0.125400D+02 -0.132076D+00
  0.464400D+01 -0.172510D+00
  0.129300D+01  0.151814D+00
  0.511800D+00  0.599944D+00
  0.178700D+00  0.387462D+00
   s     1 1.00
  0.129300D+01  0.100000D+01
   s     1 1.00
  0.178700D+00  0.100000D+01
   p     5 1.00
  0.266300D+02  0.146700D-01
  0.594800D+01  0.917640D-01
  0.174200D+01  0.298683D+00
  0.555000D+00  0.498487D+00
  0.172500D+00  0.337023D+00
   p     1 1.00
  0.174200D+01  0.100000D+01
   p     1 1.00
  0.555000D+00  0.100000D+01
   d     1 1.00
  0.165400D+01  0.100000D+01
   d     1 1.00
  0.469000D+00  0.100000D+01
   f     1 1.00
  0.109300D+01  0.100000D+01
  
  2  0
   s    10 1.00
  0.823600D+04  0.531000D-03
  0.123500D+04  0.410800D-02
  0.280800D+03  0.210870D-01
  0.792700D+02  0.818530D-01
  0.255900D+02  0.234817D+00
  0.899700D+01  0.434401D+00
  0.331900D+01  0.346129D+00
  0.905900D+00  0.393780D-01
  0.364300D+00 -0.898300D-02
  0.128500D+00  0.238500D-02
   s    10 1.00
  0.823600D+04 -0.113000D-03
  0.123500D+04 -0.878000D-03
  0.280800D+03 -0.454000D-02
  0.792700D+02 -0.181330D-01
  0.255900D+02 -0.557600D-01
  0.899700D+01 -0.126895D+00
  0.331900D+01 -0.170352D+00
  0.905900D+00  0.140382D+00
  0.364300D+00  0.598684D+00
  0.128500D+00  0.395389D+00
   s     1 1.00
  0.905900D+00  0.100000D+01
   s     1 1.00
  0.364300D+00  0.100000D+01
   p     5 1.00
  0.187100D+02  0.140310D-01
  0.413300D+01  0.868660D-01
  0.120000D+01  0.290216D+00
  0.382700D+00  0.501008D+00
  0.120900D+00  0.343406D+00
   p     1 1.00
  0.382700D+00  0.100000D+01
   p     1 1.00
  0.120900D+00  0.100000D+01
   d     1 1.00
  0.109700D+01  0.100000D+01
   d     1 1.00
  0.318000D+00  0.100000D+01
   f     1 1.00
  0.761000D+00  0.100000D+01
  
  3  0
   s    10 1.00
  0.823600D+04  0.531000D-03
  0.123500D+04  0.410800D-02
  0.280800D+03  0.210870D-01
  0.792700D+02  0.818530D-01
  0.255900D+02  0.234817D+00
  0.899700D+01  0.434401D+00
  0.331900D+01  0.346129D+00
  0.905900D+00  0.393780D-01
  0.364300D+00 -0.898300D-02
  0.128500D+00  0.238500D-02
   s    10 1.00
  0.823600D+04 -0.113000D-03
  0.123500D+04 -0.878000D-03
  0.280800D+03 -0.454000D-02
  0.792700D+02 -0.181330D-01
  0.255900D+02 -0.557600D-01
  0.899700D+01 -0.126895D+00
  0.331900D+01 -0.170352D+00
  0.905900D+00  0.140382D+00
  0.364300D+00  0.598684D+00
  0.128500D+00  0.395389D+00
   s     1 1.00
  0.905900D+00  0.100000D+01
   s     1 1.00
  0.364300D+00  0.100000D+01
   p     5 1.00
  0.187100D+02  0.140310D-01
  0.413300D+01  0.868660D-01
  0.120000D+01  0.290216D+00
  0.382700D+00  0.501008D+00
  0.120900D+00  0.343406D+00
   p     1 1.00
  0.382700D+00  0.100000D+01
   p     1 1.00
  0.120900D+00  0.100000D+01
   d     1 1.00
  0.109700D+01  0.100000D+01
   d     1 1.00
  0.318000D+00  0.100000D+01
   f     1 1.00
  0.761000D+00  0.100000D+01
  
  4  0
   s    10 1.00
  0.823600D+04  0.531000D-03
  0.123500D+04  0.410800D-02
  0.280800D+03  0.210870D-01
  0.792700D+02  0.818530D-01
  0.255900D+02  0.234817D+00
  0.899700D+01  0.434401D+00
  0.331900D+01  0.346129D+00
  0.905900D+00  0.393780D-01
  0.364300D+00 -0.898300D-02
  0.128500D+00  0.238500D-02
   s    10 1.00
  0.823600D+04 -0.113000D-03
  0.123500D+04 -0.878000D-03
  0.280800D+03 -0.454000D-02
  0.792700D+02 -0.181330D-01
  0.255900D+02 -0.557600D-01
  0.899700D+01 -0.126895D+00
  0.331900D+01 -0.170352D+00
  0.905900D+00  0.140382D+00
  0.364300D+00  0.598684D+00
  0.128500D+00  0.395389D+00
   s     1 1.00
  0.905900D+00  0.100000D+01
   s     1 1.00
  0.364300D+00  0.100000D+01
   p     5 1.00
  0.187100D+02  0.140310D-01
  0.413300D+01  0.868660D-01
  0.120000D+01  0.290216D+00
  0.382700D+00  0.501008D+00
  0.120900D+00  0.343406D+00
   p     1 1.00
  0.382700D+00  0.100000D+01
   p     1 1.00
  0.120900D+00  0.100000D+01
   d     1 1.00
  0.109700D+01  0.100000D+01
   d     1 1.00
  0.318000D+00  0.100000D+01
   f     1 1.00
  0.761000D+00  0.100000D+01
  
  5  0
   s    10 1.00
  0.823600D+04  0.531000D-03
  0.123500D+04  0.410800D-02
  0.280800D+03  0.210870D-01
  0.792700D+02  0.818530D-01
  0.255900D+02  0.234817D+00
  0.899700D+01  0.434401D+00
  0.331900D+01  0.346129D+00
  0.905900D+00  0.393780D-01
  0.364300D+00 -0.898300D-02
  0.128500D+00  0.238500D-02
   s    10 1.00
  0.823600D+04 -0.113000D-03
  0.123500D+04 -0.878000D-03
  0.280800D+03 -0.454000D-02
  0.792700D+02 -0.181330D-01
  0.255900D+02 -0.557600D-01
  0.899700D+01 -0.126895D+00
  0.331900D+01 -0.170352D+00
  0.905900D+00  0.140382D+00
  0.364300D+00  0.598684D+00
  0.128500D+00  0.395389D+00
   s     1 1.00
  0.905900D+00  0.100000D+01
   s     1 1.00
  0.364300D+00  0.100000D+01
   p     5 1.00
  0.187100D+02  0.140310D-01
  0.413300D+01  0.868660D-01
  0.120000D+01  0.290216D+00
  0.382700D+00  0.501008D+00
  0.120900D+00  0.343406D+00
   p     1 1.00
  0.382700D+00  0.100000D+01
   p     1 1.00
  0.120900D+00  0.100000D+01
   d     1 1.00
  0.109700D+01  0.100000D+01
   d     1 1.00
  0.318000D+00  0.100000D+01
   f     1 1.00
  0.761000D+00  0.100000D+01
  
  6  0
   s    10 1.00
  0.823600D+04  0.531000D-03
  0.123500D+04  0.410800D-02
  0.280800D+03  0.210870D-01
  0.792700D+02  0.818530D-01
  0.255900D+02  0.234817D+00
  0.899700D+01  0.434401D+00
  0.331900D+01  0.346129D+00
  0.905900D+00  0.393780D-01
  0.364300D+00 -0.898300D-02
  0.128500D+00  0.238500D-02
   s    10 1.00
  0.823600D+04 -0.113000D-03
  0.123500D+04 -0.878000D-03
  0.280800D+03 -0.454000D-02
  0.792700D+02 -0.181330D-01
  0.255900D+02 -0.557600D-01
  0.899700D+01 -0.126895D+00
  0.331900D+01 -0.170352D+00
  0.905900D+00  0.140382D+00
  0.364300D+00  0.598684D+00
  0.128500D+00  0.395389D+00
   s     1 1.00
  0.905900D+00  0.100000D+01
   s     1 1.00
  0.364300D+00  0.100000D+01
   p     5 1.00
  0.187100D+02  0.140310D-01
  0.413300D+01  0.868660D-01
  0.120000D+01  0.290216D+00
  0.382700D+00  0.501008D+00
  0.120900D+00  0.343406D+00
   p     1 1.00
  0.382700D+00  0.100000D+01
   p     1 1.00
  0.120900D+00  0.100000D+01
   d     1 1.00
  0.109700D+01  0.100000D+01
   d     1 1.00
  0.318000D+00  0.100000D+01
   f     1 1.00
  0.761000D+00  0.100000D+01
  
  7  0
   s    10 1.00
  0.823600D+04  0.531000D-03
  0.123500D+04  0.410800D-02
  0.280800D+03  0.210870D-01
  0.792700D+02  0.818530D-01
  0.255900D+02  0.234817D+00
  0.899700D+01  0.434401D+00
  0.331900D+01  0.346129D+00
  0.905900D+00  0.393780D-01
  0.364300D+00 -0.898300D-02
  0.128500D+00  0.238500D-02
   s    10 1.00
  0.823600D+04 -0.113000D-03
  0.123500D+04 -0.878000D-03
  0.280800D+03 -0.454000D-02
  0.792700D+02 -0.181330D-01
  0.255900D+02 -0.557600D-01
  0.899700D+01 -0.126895D+00
  0.331900D+01 -0.170352D+00
  0.905900D+00  0.140382D+00
  0.364300D+00  0.598684D+00
  0.128500D+00  0.395389D+00
   s     1 1.00
  0.905900D+00  0.100000D+01
   s     1 1.00
  0.364300D+00  0.100000D+01
   p     5 1.00
  0.187100D+02  0.140310D-01
  0.413300D+01  0.868660D-01
  0.120000D+01  0.290216D+00
  0.382700D+00  0.501008D+00
  0.120900D+00  0.343406D+00
   p     1 1.00
  0.382700D+00  0.100000D+01
   p     1 1.00
  0.120900D+00  0.100000D+01
   d     1 1.00
  0.109700D+01  0.100000D+01
   d     1 1.00
  0.318000D+00  0.100000D+01
   f     1 1.00
  0.761000D+00  0.100000D+01
  
  8  0
   s     4 1.00
  0.130100D+02  0.196850D-01
  0.196200D+01  0.137977D+00
  0.444600D+00  0.478148D+00
  0.122000D+00  0.501240D+00
   s     1 1.00
  0.122000D+00  0.100000D+01
   p     1 1.00
  0.727000D+00  0.100000D+01
  
  9  0
   s     4 1.00
  0.130100D+02  0.196850D-01
  0.196200D+01  0.137977D+00
  0.444600D+00  0.478148D+00
  0.122000D+00  0.501240D+00
   s     1 1.00
  0.122000D+00  0.100000D+01
   p     1 1.00
  0.727000D+00  0.100000D+01
  
 10  0
   s     4 1.00
  0.130100D+02  0.196850D-01
  0.196200D+01  0.137977D+00
  0.444600D+00  0.478148D+00
  0.122000D+00  0.501240D+00
   s     1 1.00
  0.122000D+00  0.100000D+01
   p     1 1.00
  0.727000D+00  0.100000D+01
  
 11  0
   s     4 1.00
  0.130100D+02  0.196850D-01
  0.196200D+01  0.137977D+00
  0.444600D+00  0.478148D+00
  0.122000D+00  0.501240D+00
   s     1 1.00
  0.122000D+00  0.100000D+01
   p     1 1.00
  0.727000D+00  0.100000D+01
  
 12  0
   s     4 1.00
  0.130100D+02  0.196850D-01
  0.196200D+01  0.137977D+00
  0.444600D+00  0.478148D+00
  0.122000D+00  0.501240D+00
   s     1 1.00
  0.122000D+00  0.100000D+01
   p     1 1.00
  0.727000D+00  0.100000D+01
  
 13  0
   s     4 1.00
  0.130100D+02  0.196850D-01
  0.196200D+01  0.137977D+00
  0.444600D+00  0.478148D+00
  0.122000D+00  0.501240D+00
   s     1 1.00
  0.122000D+00  0.100000D+01
   p     1 1.00
  0.727000D+00  0.100000D+01
  
 14  0
   s     4 1.00
  0.130100D+02  0.196850D-01
  0.196200D+01  0.137977D+00
  0.444600D+00  0.478148D+00
  0.122000D+00  0.501240D+00
   s     1 1.00
  0.122000D+00  0.100000D+01
   p     1 1.00
  0.727000D+00  0.100000D+01
  
[MO]
 Sym= __1_a__
 Ene=  0.000000000000000E+000
 Spin= Alpha
 Occup=    2.00000000000000     
                     1  4.502649009973680E-005
                     2  0.998015464001990     
                     3  9.132826389559140E-003
                     4  2.085298191294770E-003
                     5  1.631609970276250E-003
                     6 -1.845457350669640E-006
                     7 -1.733403990918380E-006
                     8  4.375005818767940E-003
                     9  6.622858922173480E-008
                    10  7.463351330315080E-008
                    11 -1.642735631763730E-004
                    12  1.147850235214460E-007
                    13  7.901873788832320E-008
                    14 -2.776212865641020E-004
                    15  2.351138930594341E-004
                    16 -1.682658149013200E-007
                    17 -1.031496212261410E-007
                    18 -6.262858957692680E-005
                    19  7.612015683961310E-005
                    20  1.271941861753394E-004
                    21 -1.499052324066400E-007
                    22 -4.092991550319820E-007
                    23  2.843779346514280E-004
                    24 -4.385413031201670E-004
                    25 -1.837211308954627E-004
                    26 -1.814449721615825E-007
                    27 -2.475620916768712E-007
                    28  5.982686029112800E-005
                    29 -4.953370378739000E-005
                    30  5.553553914735447E-008
                    31 -4.276840600950876E-009
                    32 -2.971495294324500E-004
                    33  2.748042977458890E-003
                    34  1.433576045140990E-004
                    35 -3.709769844573710E-004
                    36  2.886187787464410E-006
                    37  2.708887844203290E-006
                    38 -6.829029831575840E-003
                    39 -7.859493910817509E-008
                    40 -1.295714334150170E-007
                    41  2.004417314277160E-004
                    42 -1.826606337608370E-006
                    43 -1.650993365306330E-006
                    44  4.299285525209360E-003
                    45  3.467906295382076E-004
                    46 -2.078423146092870E-007
                    47 -2.804137003301160E-007
                    48  1.214110251744412E-004
                    49 -1.297994491118390E-005
                    50  2.549611808203774E-004
                    51 -2.560978183292330E-007
                    52 -1.656099816762360E-007
                    53 -2.625035677022420E-004
                    54  1.073773476730370E-004
                    55 -9.862677617675616E-005
                    56 -7.115187657672397E-008
                    57 -1.518640231940092E-007
                    58  6.470050194920800E-005
                    59 -2.066383979513520E-005
                    60  4.337127891949187E-008
                    61 -2.424154143936912E-008
                    62 -2.065487870374250E-004
                    63 -1.653699725973770E-003
                    64  3.365372408728350E-005
                    65  6.639705530214660E-004
                    66 -2.190694148539350E-005
                    67 -8.396563594564540E-004
                    68  1.016243697890460E-003
                    69  5.321860559240490E-005
                    70  1.629800646546040E-005
                    71  4.686089615240530E-004
                    72  3.490984339180030E-005
                    73 -6.472992128584339E-004
                    74 -1.917998162225650E-004
                    75  8.904765379203947E-005
                    76  2.635311354362870E-006
                    77 -1.085328980282720E-005
                    78  3.583666205716740E-005
                    79 -2.687845068568130E-007
                    80  1.759638907742411E-005
                    81 -3.326544590234490E-005
                    82  1.302618358561180E-004
                    83 -9.534518655944201E-006
                    84  3.156640631378000E-005
                    85 -8.798924585223237E-005
                    86  4.417442585202727E-006
                    87 -2.008837518304877E-005
                    88  2.160703583516480E-005
                    89 -7.087107933598250E-006
                    90  2.030505595096578E-006
                    91  1.664016850591457E-005
                    92 -2.065126251788350E-004
                    93 -1.653554545332290E-003
                    94  3.381822538901000E-005
                    95  6.634318206269500E-004
                    96  2.104404073943470E-005
                    97  8.388743750760589E-004
                    98  1.017031461103790E-003
                    99 -5.360538247317790E-005
                   100 -1.680627399992450E-005
                   101  4.679268807818030E-004
                   102 -3.472087164589370E-005
                   103  6.468788079577530E-004
                   104 -1.911573181628590E-004
                   105  8.902604869340895E-005
                   106 -2.735321907137620E-006
                   107  1.072017420800400E-005
                   108  3.584939224608940E-005
                   109 -2.759464697380660E-007
                   110  1.702880973078704E-005
                   111  3.326553529153740E-005
                   112 -1.303584726987760E-004
                   113 -9.753831998434301E-006
                   114  3.164723753989360E-005
                   115 -8.795121186609110E-005
                   116 -4.578633969318359E-006
                   117  1.988421205066044E-005
                   118  2.161962442584180E-005
                   119 -7.128062570715230E-006
                   120 -2.001581124778373E-006
                   121 -1.665281078234713E-005
                   122 -1.524726383282200E-004
                   123 -1.829545687557090E-005
                   124  1.026923409282840E-004
                   125  1.634461531859630E-004
                   126 -3.362520200547110E-005
                   127  4.148204910107120E-005
                   128 -7.762236724452740E-004
                   129  4.856530363057620E-008
                   130  2.500020848241730E-005
                   131  3.108833239513450E-004
                   132  1.840874964791630E-005
                   133 -1.195662633056860E-004
                   134  6.760286865578430E-004
                   135 -1.354822108957418E-005
                   136  2.056361207324160E-006
                   137  2.700455918094070E-006
                   138  2.064755089304580E-007
                   139  1.654776552223960E-006
                   140 -1.746821669700965E-004
                   141 -1.789396029661720E-005
                   142  1.443052917536830E-004
                   143  1.942615617831002E-005
                   144 -9.100192024983501E-006
                   145 -3.522521212519789E-005
                   146  2.288064191055120E-007
                   147 -6.513715182865639E-007
                   148 -8.643578850926180E-006
                   149 -1.519258892020130E-006
                   150 -7.930033644234863E-007
                   151 -3.035198423479436E-006
                   152 -1.529464658904950E-004
                   153 -1.997057759136110E-005
                   154  1.022122547787400E-004
                   155  1.664657736046590E-004
                   156  3.427360357435460E-005
                   157 -4.081324531777030E-005
                   158 -7.761970287624650E-004
                   159 -2.806058270133150E-007
                   160 -2.560648456249190E-005
                   161  3.105137727001190E-004
                   162 -1.900996121962220E-005
                   163  1.195765064110000E-004
                   164  6.762794897003670E-004
                   165 -1.350111112867059E-005
                   166 -2.036581673299790E-006
                   167 -2.688817050096720E-006
                   168  1.542278701118320E-007
                   169  1.653583781124680E-006
                   170 -1.747213533293771E-004
                   171  1.816224938386100E-005
                   172 -1.443478172322970E-004
                   173  1.925035447177478E-005
                   174 -8.992407773172640E-006
                   175 -3.513867612949726E-005
                   176 -3.125155854652456E-007
                   177  5.993927723125649E-007
                   178 -8.691776844340920E-006
                   179 -1.520193417521300E-006
                   180  7.857335404225143E-007
                   181  3.054754583176552E-006
                   182 -1.280506464546440E-004
                   183 -3.447146697135740E-004
                   184  3.035428654684440E-005
                   185  1.830345835284380E-004
                   186  1.182170644155540E-008
                   187  1.049035415347480E-007
                   188 -4.473740178509660E-005
                   189  1.606198815325110E-008
                   190 -4.441819742873010E-007
                   191  1.655814244057160E-005
                   192  8.135889632111810E-010
                   193 -4.468423079475990E-008
                   194  7.918212121460911E-006
                   195  1.849427886205974E-005
                   196 -1.106988581745860E-008
                   197  8.756036114351599E-009
                   198  8.040703173091820E-006
                   199  8.624638183429750E-007
                   200  5.217757459259897E-005
                   201 -3.149197179912970E-008
                   202  1.590084540390660E-007
                   203  4.008743080456800E-005
                   204 -5.780779234324030E-006
                   205 -1.161769759850880E-005
                   206 -8.077218118911531E-009
                   207 -1.970677446080740E-008
                   208  3.278385930179960E-006
                   209  1.992558107782870E-006
                   210  4.035283036442100E-009
                   211  2.474769928699208E-008
                   212  3.933395590673520E-003
                   213 -2.352673907393030E-003
                   214  2.607020780213470E-004
                   215  3.957248897528670E-004
                   216  3.672697561061140E-004
                   217  3.933368905194620E-003
                   218 -2.352663055412330E-003
                   219 -2.610115742142920E-004
                   220 -3.960127341190500E-004
                   221  3.667376917956440E-004
                   222 -6.281892422150640E-004
                   223 -1.997436977219910E-004
                   224  2.609582259107860E-006
                   225 -2.325758762474220E-005
                   226 -4.238316396207650E-005
                   227 -6.282574261297840E-004
                   228 -1.993718705324100E-004
                   229 -2.573564774061200E-006
                   230  2.327296695307950E-005
                   231 -4.239344625873300E-005
                   232 -2.309856941682950E-004
                   233 -3.646755246639060E-004
                   234 -2.535122158172410E-006
                   235 -7.677766345426920E-006
                   236  3.739524542124040E-006
                   237 -2.310254293478600E-004
                   238 -3.648349774433080E-004
                   239  2.528983410371670E-006
                   240  7.720729714830791E-006
                   241  3.795074401293870E-006
                   242  7.020535623262250E-005
                   243 -9.535395158286151E-005
                   244 -6.199917284151840E-009
                   245 -2.732470483595450E-008
                   246  1.506950720990890E-005
 Sym= __2_a__
 Ene=  0.000000000000000E+000
 Spin= Alpha
 Occup=    2.00000000000000     
                     1 -3.579826998508190E-005
                     2 -1.724536711903330E-004
                     3  2.173904975285930E-003
                     4  8.636667452281260E-005
                     5  1.253338217589490E-003
                     6 -1.160375585506980E-006
                     7 -1.073472117296880E-006
                     8  2.731531948244920E-003
                     9  3.103049010779170E-008
                    10  2.438701358633570E-008
                    11 -6.915938750170200E-005
                    12  1.576804949757150E-007
                    13  1.492503184255730E-007
                    14 -3.641804751826070E-004
                    15  4.531852777027014E-005
                    16 -2.573371585440020E-008
                    17 -5.993521779206520E-008
                    18  4.456826894790680E-005
                    19 -2.805510617019210E-005
                    20 -2.229771743280905E-004
                    21  1.357974691208050E-007
                    22  2.942593789203020E-007
                    23 -2.038390387224840E-004
                    24  1.458431912846610E-004
                    25  1.897983081552478E-004
                    26  1.628625868683983E-007
                    27  1.758234635107674E-007
                    28 -2.240556421100280E-005
                    29 -3.175312973344980E-005
                    30  3.766821621742439E-009
                    31  2.803306023346150E-008
                    32   1.00105535157534     
                    33  9.132178066887009E-003
                    34  2.613715615404370E-003
                    35 -7.786155615045440E-003
                    36  1.633821208963910E-006
                    37  1.515290878675810E-006
                    38 -3.859476144256590E-003
                    39 -4.721034068963640E-007
                    40 -4.367556678920770E-007
                    41  1.114008342709930E-003
                    42 -1.783362958016780E-006
                    43 -1.733425286418460E-006
                    44  4.224000386893590E-003
                    45  4.211906468939038E-004
                    46 -4.772961565364070E-007
                    47 -1.199651872728250E-007
                    48 -4.138109659416380E-004
                    49  1.693449085234770E-005
                    50  4.720142103201617E-004
                    51  1.337935705425030E-008
                    52 -6.591367548436980E-007
                    53  8.637058946837040E-004
                    54 -1.814379007493640E-005
                    55  3.590674649009331E-004
                    56  2.496945952109887E-007
                    57  4.759031985859982E-007
                    58 -1.946070780215114E-004
                    59  1.312757511595600E-005
                    60 -1.070833094234167E-007
                    61  8.881292016891771E-008
                    62  8.273003320569501E-003
                    63 -1.980893142267570E-003
                    64 -2.714130969466110E-004
                    65  2.973178710176480E-003
                    66  6.642179515595710E-006
                    67  1.340298869157100E-004
                    68 -4.856867174641200E-005
                    69 -3.840789721120540E-005
                    70  5.625819269798830E-004
                    71  6.903878259364420E-005
                    72  7.644320010297970E-005
                    73 -1.999122109299180E-003
                    74  9.955248485140869E-005
                    75 -1.752539101978420E-005
                    76  1.713467644887480E-006
                    77  1.640942769110900E-005
                    78  2.907430201077880E-005
                    79  2.422993651222970E-006
                    80  7.576543349334772E-004
                    81  2.957330840683810E-005
                    82 -4.180717808122770E-004
                    83 -1.856041199381146E-005
                    84 -1.872315846108540E-005
                    85  6.659673189379955E-005
                    86 -9.984125431435227E-007
                    87  3.897309533263178E-005
                    88 -1.222249740911170E-004
                    89  7.122098118672940E-007
                    90  2.828394812039194E-006
                    91  4.960630019218420E-005
                    92  8.272977314862149E-003
                    93 -1.980976339228560E-003
                    94 -2.714570049719660E-004
                    95  2.973379951916910E-003
                    96 -6.600265516322540E-006
                    97 -1.339926148697190E-004
                    98 -4.870409514878520E-005
                    99  3.834773045761420E-005
                   100 -5.626337881035650E-004
                   101  6.876376112477210E-005
                   102 -7.653561067683050E-005
                   103  1.999174453023290E-003
                   104  1.009061339049570E-004
                   105 -1.753624100734301E-005
                   106 -1.661471830002320E-006
                   107 -1.641251093351220E-005
                   108  2.906126393325380E-005
                   109  2.438306046354810E-006
                   110  7.582467632131974E-004
                   111 -3.071782169268440E-005
                   112  4.170838974580120E-004
                   113 -1.818597252532906E-005
                   114 -1.905203531957160E-005
                   115  6.665554905869134E-005
                   116  9.732231374876009E-007
                   117 -3.868871828454785E-005
                   118 -1.223172194289504E-004
                   119  7.089175632549800E-007
                   120 -2.955537350224677E-006
                   121 -4.948767529579241E-005
                   122 -2.163294361086660E-004
                   123 -7.488635563620550E-004
                   124  2.255227210648080E-004
                   125 -1.341474220068570E-004
                   126 -6.022621704329750E-006
                   127 -2.493218824438880E-005
                   128 -2.361670468736620E-004
                   129  1.274737344574710E-005
                   130  4.148340357333130E-006
                   131  5.471225687756960E-004
                   132 -1.279848618525480E-005
                   133  3.093809274046270E-004
                   134  7.225103859259970E-004
                   135 -1.675711534108872E-005
                   136 -3.051345186915240E-006
                   137  5.040007851689210E-005
                   138  1.448762673861862E-005
                   139  2.255507022492810E-006
                   140 -2.976323490574596E-004
                   141  2.741641176084610E-006
                   142 -2.269777411568410E-004
                   143 -1.843695979349634E-005
                   144 -9.951659372855080E-006
                   145 -1.885947296151725E-006
                   146  3.597565387282331E-006
                   147 -3.603821397226937E-005
                   148 -3.692462038694380E-005
                   149 -3.340548812294520E-006
                   150  8.669485521034466E-007
                   151 -6.417984882057177E-006
                   152 -2.160409255481650E-004
                   153 -7.479054147737670E-004
                   154  2.255914738872600E-004
                   155 -1.351799816780720E-004
                   156  6.223502021641530E-006
                   157  2.510813462497340E-005
                   158 -2.361460112220250E-004
                   159 -1.321483515048810E-005
                   160 -4.529752939803280E-006