[Molden Format]
[Atoms] AU
  N     1    7     0.0000000000    0.0000000000   -4.4454368800        
  C     2    6     0.0000000000    0.0000000000   -1.9044298900        
  C     3    6     0.0000000000   -2.2447652200   -0.4761774100        
  C     4    6     0.0000000000    2.2447652200   -0.4761774100        
  C     5    6     0.0000000000   -2.2136486300    2.2301627100        
  C     6    6     0.0000000000    2.2136486300    2.2301627100        
  C     7    6     0.0000000000    0.0000000000    3.5925878300        
  H     8    1     0.0000000000   -1.6391524700   -5.4431026600        
  H     9    1     0.0000000000    1.6391524700   -5.4431026600        
  H    10    1     0.0000000000   -4.0320839300   -1.4195058300        
  H    11    1     0.0000000000    4.0320839300   -1.4195058300        
  H    12    1     0.0000000000   -4.0044313300    3.1794375600        
  H    13    1     0.0000000000    4.0044313300    3.1794375600        
  H    14    1     0.0000000000    0.0000000000    5.6142027600        
[5D]
[7F]
[GTO]
  1  0
   s    12 1.00
  0.114200D+05  0.172695D-04
  0.171200D+04  0.134411D-03
  0.389300D+03  0.694561D-03
  0.110000D+03  0.278531D-02
  0.355700D+02  0.863457D-02
  0.125400D+02  0.199805D-01
  0.464400D+01  0.262908D-01
  0.129300D+01 -0.243845D-01
  0.511800D+00 -0.924934D-01
  0.178700D+00 -0.339683D+00
  0.246240D-01  0.345111D+00
  0.112530D-01  0.752750D+00
   s    10 1.00
  0.114200D+05  0.523000D-03
  0.171200D+04  0.404500D-02
  0.389300D+03  0.207750D-01
  0.110000D+03  0.807269D-01
  0.355700D+02  0.233074D+00
  0.125400D+02  0.433501D+00
  0.464400D+01  0.347472D+00
  0.129300D+01  0.412620D-01
  0.511800D+00 -0.850799D-02
  0.178700D+00  0.238400D-02
   s    10 1.00
  0.114200D+05 -0.115000D-03
  0.171200D+04 -0.895000D-03
  0.389300D+03 -0.462400D-02
  0.110000D+03 -0.185280D-01
  0.355700D+02 -0.573390D-01
  0.125400D+02 -0.132076D+00
  0.464400D+01 -0.172510D+00
  0.129300D+01  0.151814D+00
  0.511800D+00  0.599944D+00
  0.178700D+00  0.387462D+00
   s     1 1.00
  0.129300D+01  0.100000D+01
   s     1 1.00
  0.178700D+00  0.100000D+01
   p     5 1.00
  0.266300D+02  0.146700D-01
  0.594800D+01  0.917640D-01
  0.174200D+01  0.298683D+00
  0.555000D+00  0.498487D+00
  0.172500D+00  0.337023D+00
   p     1 1.00
  0.174200D+01  0.100000D+01
   p     1 1.00
  0.555000D+00  0.100000D+01
   d     1 1.00
  0.165400D+01  0.100000D+01
   d     1 1.00
  0.469000D+00  0.100000D+01
   f     1 1.00
  0.109300D+01  0.100000D+01
  
  2  0
   s    10 1.00
  0.823600D+04  0.531000D-03
  0.123500D+04  0.410800D-02
  0.280800D+03  0.210870D-01
  0.792700D+02  0.818530D-01
  0.255900D+02  0.234817D+00
  0.899700D+01  0.434401D+00
  0.331900D+01  0.346129D+00
  0.905900D+00  0.393780D-01
  0.364300D+00 -0.898300D-02
  0.128500D+00  0.238500D-02
   s    10 1.00
  0.823600D+04 -0.113000D-03
  0.123500D+04 -0.878000D-03
  0.280800D+03 -0.454000D-02
  0.792700D+02 -0.181330D-01
  0.255900D+02 -0.557600D-01
  0.899700D+01 -0.126895D+00
  0.331900D+01 -0.170352D+00
  0.905900D+00  0.140382D+00
  0.364300D+00  0.598684D+00
  0.128500D+00  0.395389D+00
   s     1 1.00
  0.905900D+00  0.100000D+01
   s     1 1.00
  0.364300D+00  0.100000D+01
   p     5 1.00
  0.187100D+02  0.140310D-01
  0.413300D+01  0.868660D-01
  0.120000D+01  0.290216D+00
  0.382700D+00  0.501008D+00
  0.120900D+00  0.343406D+00
   p     1 1.00
  0.382700D+00  0.100000D+01
   p     1 1.00
  0.120900D+00  0.100000D+01
   d     1 1.00
  0.109700D+01  0.100000D+01
   d     1 1.00
  0.318000D+00  0.100000D+01
   f     1 1.00
  0.761000D+00  0.100000D+01
  
  3  0
   s    10 1.00
  0.823600D+04  0.531000D-03
  0.123500D+04  0.410800D-02
  0.280800D+03  0.210870D-01
  0.792700D+02  0.818530D-01
  0.255900D+02  0.234817D+00
  0.899700D+01  0.434401D+00
  0.331900D+01  0.346129D+00
  0.905900D+00  0.393780D-01
  0.364300D+00 -0.898300D-02
  0.128500D+00  0.238500D-02
   s    10 1.00
  0.823600D+04 -0.113000D-03
  0.123500D+04 -0.878000D-03
  0.280800D+03 -0.454000D-02
  0.792700D+02 -0.181330D-01
  0.255900D+02 -0.557600D-01
  0.899700D+01 -0.126895D+00
  0.331900D+01 -0.170352D+00
  0.905900D+00  0.140382D+00
  0.364300D+00  0.598684D+00
  0.128500D+00  0.395389D+00
   s     1 1.00
  0.905900D+00  0.100000D+01
   s     1 1.00
  0.364300D+00  0.100000D+01
   p     5 1.00
  0.187100D+02  0.140310D-01
  0.413300D+01  0.868660D-01
  0.120000D+01  0.290216D+00
  0.382700D+00  0.501008D+00
  0.120900D+00  0.343406D+00
   p     1 1.00
  0.382700D+00  0.100000D+01
   p     1 1.00
  0.120900D+00  0.100000D+01
   d     1 1.00
  0.109700D+01  0.100000D+01
   d     1 1.00
  0.318000D+00  0.100000D+01
   f     1 1.00
  0.761000D+00  0.100000D+01
  
  4  0
   s    10 1.00
  0.823600D+04  0.531000D-03
  0.123500D+04  0.410800D-02
  0.280800D+03  0.210870D-01
  0.792700D+02  0.818530D-01
  0.255900D+02  0.234817D+00
  0.899700D+01  0.434401D+00
  0.331900D+01  0.346129D+00
  0.905900D+00  0.393780D-01
  0.364300D+00 -0.898300D-02
  0.128500D+00  0.238500D-02
   s    10 1.00
  0.823600D+04 -0.113000D-03
  0.123500D+04 -0.878000D-03
  0.280800D+03 -0.454000D-02
  0.792700D+02 -0.181330D-01
  0.255900D+02 -0.557600D-01
  0.899700D+01 -0.126895D+00
  0.331900D+01 -0.170352D+00
  0.905900D+00  0.140382D+00
  0.364300D+00  0.598684D+00
  0.128500D+00  0.395389D+00
   s     1 1.00
  0.905900D+00  0.100000D+01
   s     1 1.00
  0.364300D+00  0.100000D+01
   p     5 1.00
  0.187100D+02  0.140310D-01
  0.413300D+01  0.868660D-01
  0.120000D+01  0.290216D+00
  0.382700D+00  0.501008D+00
  0.120900D+00  0.343406D+00
   p     1 1.00
  0.382700D+00  0.100000D+01
   p     1 1.00
  0.120900D+00  0.100000D+01
   d     1 1.00
  0.109700D+01  0.100000D+01
   d     1 1.00
  0.318000D+00  0.100000D+01
   f     1 1.00
  0.761000D+00  0.100000D+01
  
  5  0
   s    10 1.00
  0.823600D+04  0.531000D-03
  0.123500D+04  0.410800D-02
  0.280800D+03  0.210870D-01
  0.792700D+02  0.818530D-01
  0.255900D+02  0.234817D+00
  0.899700D+01  0.434401D+00
  0.331900D+01  0.346129D+00
  0.905900D+00  0.393780D-01
  0.364300D+00 -0.898300D-02
  0.128500D+00  0.238500D-02
   s    10 1.00
  0.823600D+04 -0.113000D-03
  0.123500D+04 -0.878000D-03
  0.280800D+03 -0.454000D-02
  0.792700D+02 -0.181330D-01
  0.255900D+02 -0.557600D-01
  0.899700D+01 -0.126895D+00
  0.331900D+01 -0.170352D+00
  0.905900D+00  0.140382D+00
  0.364300D+00  0.598684D+00
  0.128500D+00  0.395389D+00
   s     1 1.00
  0.905900D+00  0.100000D+01
   s     1 1.00
  0.364300D+00  0.100000D+01
   p     5 1.00
  0.187100D+02  0.140310D-01
  0.413300D+01  0.868660D-01
  0.120000D+01  0.290216D+00
  0.382700D+00  0.501008D+00
  0.120900D+00  0.343406D+00
   p     1 1.00
  0.382700D+00  0.100000D+01
   p     1 1.00
  0.120900D+00  0.100000D+01
   d     1 1.00
  0.109700D+01  0.100000D+01
   d     1 1.00
  0.318000D+00  0.100000D+01
   f     1 1.00
  0.761000D+00  0.100000D+01
  
  6  0
   s    10 1.00
  0.823600D+04  0.531000D-03
  0.123500D+04  0.410800D-02
  0.280800D+03  0.210870D-01
  0.792700D+02  0.818530D-01
  0.255900D+02  0.234817D+00
  0.899700D+01  0.434401D+00
  0.331900D+01  0.346129D+00
  0.905900D+00  0.393780D-01
  0.364300D+00 -0.898300D-02
  0.128500D+00  0.238500D-02
   s    10 1.00
  0.823600D+04 -0.113000D-03
  0.123500D+04 -0.878000D-03
  0.280800D+03 -0.454000D-02
  0.792700D+02 -0.181330D-01
  0.255900D+02 -0.557600D-01
  0.899700D+01 -0.126895D+00
  0.331900D+01 -0.170352D+00
  0.905900D+00  0.140382D+00
  0.364300D+00  0.598684D+00
  0.128500D+00  0.395389D+00
   s     1 1.00
  0.905900D+00  0.100000D+01
   s     1 1.00
  0.364300D+00  0.100000D+01
   p     5 1.00
  0.187100D+02  0.140310D-01
  0.413300D+01  0.868660D-01
  0.120000D+01  0.290216D+00
  0.382700D+00  0.501008D+00
  0.120900D+00  0.343406D+00
   p     1 1.00
  0.382700D+00  0.100000D+01
   p     1 1.00
  0.120900D+00  0.100000D+01
   d     1 1.00
  0.109700D+01  0.100000D+01
   d     1 1.00
  0.318000D+00  0.100000D+01
   f     1 1.00
  0.761000D+00  0.100000D+01
  
  7  0
   s    10 1.00
  0.823600D+04  0.531000D-03
  0.123500D+04  0.410800D-02
  0.280800D+03  0.210870D-01
  0.792700D+02  0.818530D-01
  0.255900D+02  0.234817D+00
  0.899700D+01  0.434401D+00
  0.331900D+01  0.346129D+00
  0.905900D+00  0.393780D-01
  0.364300D+00 -0.898300D-02
  0.128500D+00  0.238500D-02
   s    10 1.00
  0.823600D+04 -0.113000D-03
  0.123500D+04 -0.878000D-03
  0.280800D+03 -0.454000D-02
  0.792700D+02 -0.181330D-01
  0.255900D+02 -0.557600D-01
  0.899700D+01 -0.126895D+00
  0.331900D+01 -0.170352D+00
  0.905900D+00  0.140382D+00
  0.364300D+00  0.598684D+00
  0.128500D+00  0.395389D+00
   s     1 1.00
  0.905900D+00  0.100000D+01
   s     1 1.00
  0.364300D+00  0.100000D+01
   p     5 1.00
  0.187100D+02  0.140310D-01
  0.413300D+01  0.868660D-01
  0.120000D+01  0.290216D+00
  0.382700D+00  0.501008D+00
  0.120900D+00  0.343406D+00
   p     1 1.00
  0.382700D+00  0.100000D+01
   p     1 1.00
  0.120900D+00  0.100000D+01
   d     1 1.00
  0.109700D+01  0.100000D+01
   d     1 1.00
  0.318000D+00  0.100000D+01
   f     1 1.00
  0.761000D+00  0.100000D+01
  
  8  0
   s     4 1.00
  0.130100D+02  0.196850D-01
  0.196200D+01  0.137977D+00
  0.444600D+00  0.478148D+00
  0.122000D+00  0.501240D+00
   s     1 1.00
  0.122000D+00  0.100000D+01
   p     1 1.00
  0.727000D+00  0.100000D+01
  
  9  0
   s     4 1.00
  0.130100D+02  0.196850D-01
  0.196200D+01  0.137977D+00
  0.444600D+00  0.478148D+00
  0.122000D+00  0.501240D+00
   s     1 1.00
  0.122000D+00  0.100000D+01
   p     1 1.00
  0.727000D+00  0.100000D+01
  
 10  0
   s     4 1.00
  0.130100D+02  0.196850D-01
  0.196200D+01  0.137977D+00
  0.444600D+00  0.478148D+00
  0.122000D+00  0.501240D+00
   s     1 1.00
  0.122000D+00  0.100000D+01
   p     1 1.00
  0.727000D+00  0.100000D+01
  
 11  0
   s     4 1.00
  0.130100D+02  0.196850D-01
  0.196200D+01  0.137977D+00
  0.444600D+00  0.478148D+00
  0.122000D+00  0.501240D+00
   s     1 1.00
  0.122000D+00  0.100000D+01
   p     1 1.00
  0.727000D+00  0.100000D+01
  
 12  0
   s     4 1.00
  0.130100D+02  0.196850D-01
  0.196200D+01  0.137977D+00
  0.444600D+00  0.478148D+00
  0.122000D+00  0.501240D+00
   s     1 1.00
  0.122000D+00  0.100000D+01
   p     1 1.00
  0.727000D+00  0.100000D+01
  
 13  0
   s     4 1.00
  0.130100D+02  0.196850D-01
  0.196200D+01  0.137977D+00
  0.444600D+00  0.478148D+00
  0.122000D+00  0.501240D+00
   s     1 1.00
  0.122000D+00  0.100000D+01
   p     1 1.00
  0.727000D+00  0.100000D+01
  
 14  0
   s     4 1.00
  0.130100D+02  0.196850D-01
  0.196200D+01  0.137977D+00
  0.444600D+00  0.478148D+00
  0.122000D+00  0.501240D+00
   s     1 1.00
  0.122000D+00  0.100000D+01
   p     1 1.00
  0.727000D+00  0.100000D+01
  
[MO]
 Sym= __1_A1_
 Ene=   1.00000000000000     
 Spin= Alpha
 Occup=    1.00000000000000     
                     1  3.973555326524363E-005
                     2  0.998042339108905     
                     3  8.287286414932040E-003
                     4  2.090797693709637E-003
                     5  1.745648974454198E-003
                     6  0.000000000000000E+000
                     7  0.000000000000000E+000
                     8  4.423407153208200E-003
                     9  0.000000000000000E+000
                    10  0.000000000000000E+000
                    11 -1.963619110794938E-004
                    12  0.000000000000000E+000
                    13  0.000000000000000E+000
                    14 -2.810790150525380E-004
                    15  2.286167733371630E-004
                    16  0.000000000000000E+000
                    17  0.000000000000000E+000
                    18 -1.228211875235592E-004
                    19  0.000000000000000E+000
                    20  1.385966983871958E-004
                    21  0.000000000000000E+000
                    22  0.000000000000000E+000
                    23  5.416339578921816E-004
                    24  0.000000000000000E+000
                    25 -1.864881460126116E-004
                    26  0.000000000000000E+000
                    27  0.000000000000000E+000
                    28  9.520731827688605E-005
                    29  0.000000000000000E+000
                    30  0.000000000000000E+000
                    31  0.000000000000000E+000
                    32 -3.375452580311639E-004
                    33  2.574049096222730E-003
                    34  1.466667423667074E-004
                    35 -2.803998763055403E-004
                    36  0.000000000000000E+000
                    37  0.000000000000000E+000
                    38 -6.518920504466536E-003
                    39  0.000000000000000E+000
                    40  0.000000000000000E+000
                    41  1.967742410183813E-004
                    42  0.000000000000000E+000
                    43  0.000000000000000E+000
                    44  4.231851269805339E-003
                    45  3.203475523051252E-004
                    46  0.000000000000000E+000
                    47  0.000000000000000E+000
                    48  1.256465872639210E-004
                    49  0.000000000000000E+000
                    50  1.894470971017559E-004
                    51  0.000000000000000E+000
                    52  0.000000000000000E+000
                    53 -3.310241428258930E-004
                    54  0.000000000000000E+000
                    55 -1.032251886981984E-004
                    56  0.000000000000000E+000
                    57  0.000000000000000E+000
                    58  7.937922865091466E-005
                    59  0.000000000000000E+000
                    60  0.000000000000000E+000
                    61  0.000000000000000E+000
                    62 -2.301538412689065E-004
                    63 -1.706140139987746E-003
                    64  5.138925304742347E-005
                    65  6.115530203153460E-004
                    66  0.000000000000000E+000
                    67 -7.502734498405539E-004
                    68  9.445680904291547E-004
                    69  0.000000000000000E+000
                    70  2.880163423245369E-005
                    71  4.344572838280966E-004
                    72  0.000000000000000E+000
                    73 -5.773844822243694E-004
                    74 -1.175016620477930E-004
                    75  8.078873169408110E-005
                    76  0.000000000000000E+000
                    77 -6.085002321295770E-006
                    78  3.664939337046174E-005
                    79  0.000000000000000E+000
                    80 -4.334593037038434E-005
                    81  0.000000000000000E+000
                    82  8.800159187069380E-005
                    83 -3.995890505305102E-005
                    84  0.000000000000000E+000
                    85 -9.237966738512025E-005
                    86  0.000000000000000E+000
                    87 -1.073219815625519E-005
                    88  2.569256140555004E-005
                    89  0.000000000000000E+000
                    90  0.000000000000000E+000
                    91  2.042879287224324E-005
                    92 -2.301538412689065E-004
                    93 -1.706140139987746E-003
                    94  5.138925304742347E-005
                    95  6.115530203153460E-004
                    96  0.000000000000000E+000
                    97  7.502734498405539E-004
                    98  9.445680904291547E-004
                    99  0.000000000000000E+000
                   100 -2.880163423245369E-005
                   101  4.344572838280966E-004
                   102  0.000000000000000E+000
                   103  5.773844822243694E-004
                   104 -1.175016620477930E-004
                   105  8.078873169408110E-005
                   106  0.000000000000000E+000
                   107  6.085002321295770E-006
                   108  3.664939337046174E-005
                   109  0.000000000000000E+000
                   110 -4.334593037038434E-005
                   111  0.000000000000000E+000
                   112 -8.800159187069380E-005
                   113 -3.995890505305102E-005
                   114  0.000000000000000E+000
                   115 -9.237966738512025E-005
                   116  0.000000000000000E+000
                   117  1.073219815625519E-005
                   118  2.569256140555004E-005
                   119  0.000000000000000E+000
                   120  0.000000000000000E+000
                   121 -2.042879287224324E-005
                   122 -1.458406105806283E-004
                   123 -5.394259307926434E-005
                   124  7.674163192922461E-005
                   125  2.740545149930097E-004
                   126  0.000000000000000E+000
                   127  1.868750466477693E-005
                   128 -7.708410056736083E-004
                   129  0.000000000000000E+000
                   130  5.185342977763970E-005
                   131  2.393921481377141E-004
                   132  0.000000000000000E+000
                   133 -1.170066304998822E-004
                   134  6.448796606720779E-004
                   135 -5.118723523703943E-006
                   136  0.000000000000000E+000
                   137  7.228270601019812E-007
                   138 -7.137200810730462E-008
                   139  0.000000000000000E+000
                   140 -1.455165273236383E-004
                   141  0.000000000000000E+000
                   142  1.223607131944079E-004
                   143  2.126306203853964E-005
                   144  0.000000000000000E+000
                   145 -3.695292688435382E-005
                   146  0.000000000000000E+000
                   147 -5.873573085182444E-008
                   148 -9.609463452037456E-006
                   149  0.000000000000000E+000
                   150  0.000000000000000E+000
                   151 -2.853126821810818E-006
                   152 -1.458406105806283E-004
                   153 -5.394259307926434E-005
                   154  7.674163192922461E-005
                   155  2.740545149930097E-004
                   156  0.000000000000000E+000
                   157 -1.868750466477693E-005
                   158 -7.708410056736083E-004
                   159  0.000000000000000E+000
                   160 -5.185342977763970E-005
                   161  2.393921481377141E-004
                   162  0.000000000000000E+000
                   163  1.170066304998822E-004
                   164  6.448796606720779E-004
                   165 -5.118723523703943E-006
                   166  0.000000000000000E+000
                   167 -7.228270601019812E-007
                   168 -7.137200810730462E-008
                   169  0.000000000000000E+000
                   170 -1.455165273236383E-004
                   171  0.000000000000000E+000
                   172 -1.223607131944079E-004
                   173  2.126306203853964E-005
                   174  0.000000000000000E+000
                   175 -3.695292688435382E-005
                   176  0.000000000000000E+000
                   177  5.873573085182444E-008
                   178 -9.609463452037456E-006
                   179  0.000000000000000E+000
                   180  0.000000000000000E+000
                   181  2.853126821810818E-006
                   182 -1.177188278079677E-004
                   183 -3.997090145134369E-004
                   184  3.112873565696072E-005
                   185  1.415307431886851E-004
                   186  0.000000000000000E+000
                   187  0.000000000000000E+000
                   188  3.749377039861652E-005
                   189  0.000000000000000E+000
                   190  0.000000000000000E+000
                   191  3.427421113358032E-005
                   192  0.000000000000000E+000
                   193  0.000000000000000E+000
                   194 -8.208511749251849E-005
                   195  1.704948930746222E-005
                   196  0.000000000000000E+000
                   197  0.000000000000000E+000
                   198  1.227729035630526E-005
                   199  0.000000000000000E+000
                   200  8.680018020192654E-005
                   201  0.000000000000000E+000
                   202  0.000000000000000E+000
                   203  4.825406191444584E-005
                   204  0.000000000000000E+000
                   205 -4.501140539766387E-006
                   206  0.000000000000000E+000
                   207  0.000000000000000E+000
                   208 -1.508525846362585E-006
                   209  0.000000000000000E+000
                   210  0.000000000000000E+000
                   211  0.000000000000000E+000
                   212  3.717160239682230E-003
                   213 -2.262152743588099E-003
                   214  0.000000000000000E+000
                   215  4.411798480385912E-004
                   216  3.535524459850839E-004
                   217  3.717160239682230E-003
                   218 -2.262152743588099E-003
                   219  0.000000000000000E+000
                   220 -4.411798480385912E-004
                   221  3.535524459850839E-004
                   222 -6.131957512397238E-004
                   223 -1.402243908351639E-004
                   224  0.000000000000000E+000
                   225 -1.567334459297071E-005
                   226 -5.285297849092809E-005
                   227 -6.131957512397238E-004
                   228 -1.402243908351639E-004
                   229  0.000000000000000E+000
                   230  1.567334459297071E-005
                   231 -5.285297849092809E-005
                   232 -1.925587723678964E-004
                   233 -3.362031461491527E-004
                   234  0.000000000000000E+000
                   235 -7.026285439158447E-006
                   236 -9.400776423187513E-007
                   237 -1.925587723678964E-004
                   238 -3.362031461491527E-004
                   239  0.000000000000000E+000
                   240  7.026285439158447E-006
                   241 -9.400776423187513E-007
                   242  1.092042824777604E-004
                   243 -3.327661285674168E-005
                   244  0.000000000000000E+000
                   245  0.000000000000000E+000
                   246  1.435471405437353E-005
 Sym= __2_A1_
 Ene=   2.00000000000000     
 Spin= Alpha
 Occup=    1.00000000000000     
                     1 -4.826442171249660E-005
                     2 -1.205507290616035E-004
                     3  2.392781515487858E-003
                     4  6.113911920483330E-005
                     5  1.228620842152201E-003
                     6  0.000000000000000E+000
                     7  0.000000000000000E+000
                     8  2.955168261518922E-003
                     9  0.000000000000000E+000
                    10  0.000000000000000E+000
                    11 -8.537891829924924E-005
                    12  0.000000000000000E+000
                    13  0.000000000000000E+000
                    14 -4.049137098394840E-004
                    15  4.979779238989680E-005
                    16  0.000000000000000E+000
                    17  0.000000000000000E+000
                    18  6.497221399668103E-005
                    19  0.000000000000000E+000
                    20 -2.825006186258161E-004
                    21  0.000000000000000E+000
                    22  0.000000000000000E+000
                    23 -3.206727612716280E-004
                    24  0.000000000000000E+000
                    25  2.079388090999468E-004
                    26  0.000000000000000E+000
                    27  0.000000000000000E+000
                    28 -2.066583484657162E-006
                    29  0.000000000000000E+000
                    30  0.000000000000000E+000
                    31  0.000000000000000E+000
                    32   1.00093318489314     
                    33  9.197509041035655E-003
                    34  2.689958546838497E-003
                    35 -7.522696987282827E-003
                    36  0.000000000000000E+000
                    37  0.000000000000000E+000
                    38 -4.000281137190028E-003
                    39  0.000000000000000E+000
                    40  0.000000000000000E+000
                    41  1.122541857803820E-003
                    42  0.000000000000000E+000
                    43  0.000000000000000E+000
                    44  4.214145727351335E-003
                    45  4.743791239422272E-004
                    46  0.000000000000000E+000
                    47  0.000000000000000E+000
                    48 -4.487243918359382E-004
                    49  0.000000000000000E+000
                    50  1.463571431294027E-004
                    51  0.000000000000000E+000
                    52  0.000000000000000E+000
                    53  6.796095963187330E-004
                    54  0.000000000000000E+000
                    55  3.970629903735926E-004
                    56  0.000000000000000E+000
                    57  0.000000000000000E+000
                    58 -2.396977747021410E-004
                    59  0.000000000000000E+000
                    60  0.000000000000000E+000
                    61  0.000000000000000E+000
                    62  9.950767325925666E-003
                    63 -2.176695440994587E-003
                    64 -2.061006118885630E-004
                    65  2.835917128049086E-003
                    66  0.000000000000000E+000
                    67  8.985815778229514E-005
                    68 -8.078660058046106E-005
                    69  0.000000000000000E+000
                    70  5.733984929531988E-004
                    71  1.400412646245295E-004
                    72  0.000000000000000E+000
                    73 -1.826181473862462E-003
                    74  3.759121796486255E-004
                    75 -2.246624000238302E-005
                    76  0.000000000000000E+000
                    77  2.225521280690903E-005
                    78  4.901129924905268E-005
                    79  0.000000000000000E+000
                    80  6.766772655329797E-004
                    81  0.000000000000000E+000
                    82 -1.632656012487163E-004
                    83 -7.659747004510931E-005
                    84  0.000000000000000E+000
                    85  7.090325398778848E-005
                    86  0.000000000000000E+000
                    87 -4.546497350528106E-006
                    88 -1.312537264186577E-004
                    89  0.000000000000000E+000
                    90  0.000000000000000E+000
                    91  3.211773917785471E-005
                    92  9.950767325925666E-003
                    93 -2.176695440994587E-003
                    94 -2.061006118885630E-004
                    95  2.835917128049086E-003
                    96  0.000000000000000E+000
                    97 -8.985815778229514E-005
                    98 -8.078660058046106E-005
                    99  0.000000000000000E+000
                   100 -5.733984929531988E-004
                   101  1.400412646245295E-004
                   102  0.000000000000000E+000
                   103  1.826181473862462E-003
                   104  3.759121796486255E-004
                   105 -2.246624000238302E-005
                   106  0.000000000000000E+000
                   107 -2.225521280690903E-005
                   108  4.901129924905268E-005
                   109  0.000000000000000E+000
                   110  6.766772655329797E-004
                   111  0.000000000000000E+000
                   112  1.632656012487163E-004
                   113 -7.659747004510931E-005
                   114  0.000000000000000E+000
                   115  7.090325398778848E-005
                   116  0.000000000000000E+000
                   117  4.546497350528106E-006
                   118 -1.312537264186577E-004
                   119  0.000000000000000E+000
                   120  0.000000000000000E+000
                   121 -3.211773917785471E-005
                   122 -2.357142610186407E-004
                   123 -7.699838137643976E-004
                   124  2.430700840149238E-004
                   125 -4.514320166501862E-005
                   126  0.000000000000000E+000
                   127  5.035975245188888E-006
                   128 -2.948231693195108E-004
                   129  0.000000000000000E+000
                   130 -8.802557888462204E-005
                   131  5.252033646770759E-004
                   132  0.000000000000000E+000
                   133  2.478950963408759E-004
                   134  7.524980934148567E-004
                   135 -1.732550342273147E-005
                   136  0.000000000000000E+000
                   137  2.556848533966660E-005
                   138  1.201911156362159E-005
                   139  0.000000000000000E+000
                   140 -2.886834155609968E-004
                   141  0.000000000000000E+000
                   142 -8.644191362657098E-005
                   143 -1.186482286852655E-005
                   144  0.000000000000000E+000
                   145 -8.216187069666424E-006
                   146  0.000000000000000E+000
                   147 -3.931055451451205E-005
                   148 -4.238275120660198E-005
                   149  0.000000000000000E+000
                   150  0.000000000000000E+000
                   151 -8.565061814798594E-007
                   152 -2.357142610186407E-004
                   153 -7.699838137643976E-004
                   154  2.430700840149238E-004
                   155 -4.514320166501862E-005
                   156  0.000000000000000E+000
                   157 -5.035975245188888E-006
                   158 -2.948231693195108E-004
                   159  0.000000000000000E+000
                   160  8.802557888462204E-005