[Molden Format]
[Atoms] AU
  N     1    7     0.0000000000    0.0000000000   -4.4454368800        
  C     2    6     0.0000000000    0.0000000000   -1.9044298900        
  C     3    6     0.0000000000   -2.2447652200   -0.4761774100        
  C     4    6     0.0000000000    2.2447652200   -0.4761774100        
  C     5    6     0.0000000000   -2.2136486300    2.2301627100        
  C     6    6     0.0000000000    2.2136486300    2.2301627100        
  C     7    6     0.0000000000    0.0000000000    3.5925878300        
  H     8    1     0.0000000000   -1.6391524700   -5.4431026600        
  H     9    1     0.0000000000    1.6391524700   -5.4431026600        
  H    10    1     0.0000000000   -4.0320839300   -1.4195058300        
  H    11    1     0.0000000000    4.0320839300   -1.4195058300        
  H    12    1     0.0000000000   -4.0044313300    3.1794375600        
  H    13    1     0.0000000000    4.0044313300    3.1794375600        
  H    14    1     0.0000000000    0.0000000000    5.6142027600        
[5D]
[7F]
[GTO]
  1  0
   s    12 1.00
  0.114200D+05  0.172695D-04
  0.171200D+04  0.134411D-03
  0.389300D+03  0.694561D-03
  0.110000D+03  0.278531D-02
  0.355700D+02  0.863457D-02
  0.125400D+02  0.199805D-01
  0.464400D+01  0.262908D-01
  0.129300D+01 -0.243845D-01
  0.511800D+00 -0.924934D-01
  0.178700D+00 -0.339683D+00
  0.246240D-01  0.345111D+00
  0.112530D-01  0.752750D+00
   s    10 1.00
  0.114200D+05  0.523000D-03
  0.171200D+04  0.404500D-02
  0.389300D+03  0.207750D-01
  0.110000D+03  0.807269D-01
  0.355700D+02  0.233074D+00
  0.125400D+02  0.433501D+00
  0.464400D+01  0.347472D+00
  0.129300D+01  0.412620D-01
  0.511800D+00 -0.850799D-02
  0.178700D+00  0.238400D-02
   s    10 1.00
  0.114200D+05 -0.115000D-03
  0.171200D+04 -0.895000D-03
  0.389300D+03 -0.462400D-02
  0.110000D+03 -0.185280D-01
  0.355700D+02 -0.573390D-01
  0.125400D+02 -0.132076D+00
  0.464400D+01 -0.172510D+00
  0.129300D+01  0.151814D+00
  0.511800D+00  0.599944D+00
  0.178700D+00  0.387462D+00
   s     1 1.00
  0.129300D+01  0.100000D+01
   s     1 1.00
  0.178700D+00  0.100000D+01
   p     5 1.00
  0.266300D+02  0.146700D-01
  0.594800D+01  0.917640D-01
  0.174200D+01  0.298683D+00
  0.555000D+00  0.498487D+00
  0.172500D+00  0.337023D+00
   p     1 1.00
  0.174200D+01  0.100000D+01
   p     1 1.00
  0.555000D+00  0.100000D+01
   d     1 1.00
  0.165400D+01  0.100000D+01
   d     1 1.00
  0.469000D+00  0.100000D+01
   f     1 1.00
  0.109300D+01  0.100000D+01
  
  2  0
   s    10 1.00
  0.823600D+04  0.531000D-03
  0.123500D+04  0.410800D-02
  0.280800D+03  0.210870D-01
  0.792700D+02  0.818530D-01
  0.255900D+02  0.234817D+00
  0.899700D+01  0.434401D+00
  0.331900D+01  0.346129D+00
  0.905900D+00  0.393780D-01
  0.364300D+00 -0.898300D-02
  0.128500D+00  0.238500D-02
   s    10 1.00
  0.823600D+04 -0.113000D-03
  0.123500D+04 -0.878000D-03
  0.280800D+03 -0.454000D-02
  0.792700D+02 -0.181330D-01
  0.255900D+02 -0.557600D-01
  0.899700D+01 -0.126895D+00
  0.331900D+01 -0.170352D+00
  0.905900D+00  0.140382D+00
  0.364300D+00  0.598684D+00
  0.128500D+00  0.395389D+00
   s     1 1.00
  0.905900D+00  0.100000D+01
   s     1 1.00
  0.364300D+00  0.100000D+01
   p     5 1.00
  0.187100D+02  0.140310D-01
  0.413300D+01  0.868660D-01
  0.120000D+01  0.290216D+00
  0.382700D+00  0.501008D+00
  0.120900D+00  0.343406D+00
   p     1 1.00
  0.382700D+00  0.100000D+01
   p     1 1.00
  0.120900D+00  0.100000D+01
   d     1 1.00
  0.109700D+01  0.100000D+01
   d     1 1.00
  0.318000D+00  0.100000D+01
   f     1 1.00
  0.761000D+00  0.100000D+01
  
  3  0
   s    10 1.00
  0.823600D+04  0.531000D-03
  0.123500D+04  0.410800D-02
  0.280800D+03  0.210870D-01
  0.792700D+02  0.818530D-01
  0.255900D+02  0.234817D+00
  0.899700D+01  0.434401D+00
  0.331900D+01  0.346129D+00
  0.905900D+00  0.393780D-01
  0.364300D+00 -0.898300D-02
  0.128500D+00  0.238500D-02
   s    10 1.00
  0.823600D+04 -0.113000D-03
  0.123500D+04 -0.878000D-03
  0.280800D+03 -0.454000D-02
  0.792700D+02 -0.181330D-01
  0.255900D+02 -0.557600D-01
  0.899700D+01 -0.126895D+00
  0.331900D+01 -0.170352D+00
  0.905900D+00  0.140382D+00
  0.364300D+00  0.598684D+00
  0.128500D+00  0.395389D+00
   s     1 1.00
  0.905900D+00  0.100000D+01
   s     1 1.00
  0.364300D+00  0.100000D+01
   p     5 1.00
  0.187100D+02  0.140310D-01
  0.413300D+01  0.868660D-01
  0.120000D+01  0.290216D+00
  0.382700D+00  0.501008D+00
  0.120900D+00  0.343406D+00
   p     1 1.00
  0.382700D+00  0.100000D+01
   p     1 1.00
  0.120900D+00  0.100000D+01
   d     1 1.00
  0.109700D+01  0.100000D+01
   d     1 1.00
  0.318000D+00  0.100000D+01
   f     1 1.00
  0.761000D+00  0.100000D+01
  
  4  0
   s    10 1.00
  0.823600D+04  0.531000D-03
  0.123500D+04  0.410800D-02
  0.280800D+03  0.210870D-01
  0.792700D+02  0.818530D-01
  0.255900D+02  0.234817D+00
  0.899700D+01  0.434401D+00
  0.331900D+01  0.346129D+00
  0.905900D+00  0.393780D-01
  0.364300D+00 -0.898300D-02
  0.128500D+00  0.238500D-02
   s    10 1.00
  0.823600D+04 -0.113000D-03
  0.123500D+04 -0.878000D-03
  0.280800D+03 -0.454000D-02
  0.792700D+02 -0.181330D-01
  0.255900D+02 -0.557600D-01
  0.899700D+01 -0.126895D+00
  0.331900D+01 -0.170352D+00
  0.905900D+00  0.140382D+00
  0.364300D+00  0.598684D+00
  0.128500D+00  0.395389D+00
   s     1 1.00
  0.905900D+00  0.100000D+01
   s     1 1.00
  0.364300D+00  0.100000D+01
   p     5 1.00
  0.187100D+02  0.140310D-01
  0.413300D+01  0.868660D-01
  0.120000D+01  0.290216D+00
  0.382700D+00  0.501008D+00
  0.120900D+00  0.343406D+00
   p     1 1.00
  0.382700D+00  0.100000D+01
   p     1 1.00
  0.120900D+00  0.100000D+01
   d     1 1.00
  0.109700D+01  0.100000D+01
   d     1 1.00
  0.318000D+00  0.100000D+01
   f     1 1.00
  0.761000D+00  0.100000D+01
  
  5  0
   s    10 1.00
  0.823600D+04  0.531000D-03
  0.123500D+04  0.410800D-02
  0.280800D+03  0.210870D-01
  0.792700D+02  0.818530D-01
  0.255900D+02  0.234817D+00
  0.899700D+01  0.434401D+00
  0.331900D+01  0.346129D+00
  0.905900D+00  0.393780D-01
  0.364300D+00 -0.898300D-02
  0.128500D+00  0.238500D-02
   s    10 1.00
  0.823600D+04 -0.113000D-03
  0.123500D+04 -0.878000D-03
  0.280800D+03 -0.454000D-02
  0.792700D+02 -0.181330D-01
  0.255900D+02 -0.557600D-01
  0.899700D+01 -0.126895D+00
  0.331900D+01 -0.170352D+00
  0.905900D+00  0.140382D+00
  0.364300D+00  0.598684D+00
  0.128500D+00  0.395389D+00
   s     1 1.00
  0.905900D+00  0.100000D+01
   s     1 1.00
  0.364300D+00  0.100000D+01
   p     5 1.00
  0.187100D+02  0.140310D-01
  0.413300D+01  0.868660D-01
  0.120000D+01  0.290216D+00
  0.382700D+00  0.501008D+00
  0.120900D+00  0.343406D+00
   p     1 1.00
  0.382700D+00  0.100000D+01
   p     1 1.00
  0.120900D+00  0.100000D+01
   d     1 1.00
  0.109700D+01  0.100000D+01
   d     1 1.00
  0.318000D+00  0.100000D+01
   f     1 1.00
  0.761000D+00  0.100000D+01
  
  6  0
   s    10 1.00
  0.823600D+04  0.531000D-03
  0.123500D+04  0.410800D-02
  0.280800D+03  0.210870D-01
  0.792700D+02  0.818530D-01
  0.255900D+02  0.234817D+00
  0.899700D+01  0.434401D+00
  0.331900D+01  0.346129D+00
  0.905900D+00  0.393780D-01
  0.364300D+00 -0.898300D-02
  0.128500D+00  0.238500D-02
   s    10 1.00
  0.823600D+04 -0.113000D-03
  0.123500D+04 -0.878000D-03
  0.280800D+03 -0.454000D-02
  0.792700D+02 -0.181330D-01
  0.255900D+02 -0.557600D-01
  0.899700D+01 -0.126895D+00
  0.331900D+01 -0.170352D+00
  0.905900D+00  0.140382D+00
  0.364300D+00  0.598684D+00
  0.128500D+00  0.395389D+00
   s     1 1.00
  0.905900D+00  0.100000D+01
   s     1 1.00
  0.364300D+00  0.100000D+01
   p     5 1.00
  0.187100D+02  0.140310D-01
  0.413300D+01  0.868660D-01
  0.120000D+01  0.290216D+00
  0.382700D+00  0.501008D+00
  0.120900D+00  0.343406D+00
   p     1 1.00
  0.382700D+00  0.100000D+01
   p     1 1.00
  0.120900D+00  0.100000D+01
   d     1 1.00
  0.109700D+01  0.100000D+01
   d     1 1.00
  0.318000D+00  0.100000D+01
   f     1 1.00
  0.761000D+00  0.100000D+01
  
  7  0
   s    10 1.00
  0.823600D+04  0.531000D-03
  0.123500D+04  0.410800D-02
  0.280800D+03  0.210870D-01
  0.792700D+02  0.818530D-01
  0.255900D+02  0.234817D+00
  0.899700D+01  0.434401D+00
  0.331900D+01  0.346129D+00
  0.905900D+00  0.393780D-01
  0.364300D+00 -0.898300D-02
  0.128500D+00  0.238500D-02
   s    10 1.00
  0.823600D+04 -0.113000D-03
  0.123500D+04 -0.878000D-03
  0.280800D+03 -0.454000D-02
  0.792700D+02 -0.181330D-01
  0.255900D+02 -0.557600D-01
  0.899700D+01 -0.126895D+00
  0.331900D+01 -0.170352D+00
  0.905900D+00  0.140382D+00
  0.364300D+00  0.598684D+00
  0.128500D+00  0.395389D+00
   s     1 1.00
  0.905900D+00  0.100000D+01
   s     1 1.00
  0.364300D+00  0.100000D+01
   p     5 1.00
  0.187100D+02  0.140310D-01
  0.413300D+01  0.868660D-01
  0.120000D+01  0.290216D+00
  0.382700D+00  0.501008D+00
  0.120900D+00  0.343406D+00
   p     1 1.00
  0.382700D+00  0.100000D+01
   p     1 1.00
  0.120900D+00  0.100000D+01
   d     1 1.00
  0.109700D+01  0.100000D+01
   d     1 1.00
  0.318000D+00  0.100000D+01
   f     1 1.00
  0.761000D+00  0.100000D+01
  
  8  0
   s     4 1.00
  0.130100D+02  0.196850D-01
  0.196200D+01  0.137977D+00
  0.444600D+00  0.478148D+00
  0.122000D+00  0.501240D+00
   s     1 1.00
  0.122000D+00  0.100000D+01
   p     1 1.00
  0.727000D+00  0.100000D+01
  
  9  0
   s     4 1.00
  0.130100D+02  0.196850D-01
  0.196200D+01  0.137977D+00
  0.444600D+00  0.478148D+00
  0.122000D+00  0.501240D+00
   s     1 1.00
  0.122000D+00  0.100000D+01
   p     1 1.00
  0.727000D+00  0.100000D+01
  
 10  0
   s     4 1.00
  0.130100D+02  0.196850D-01
  0.196200D+01  0.137977D+00
  0.444600D+00  0.478148D+00
  0.122000D+00  0.501240D+00
   s     1 1.00
  0.122000D+00  0.100000D+01
   p     1 1.00
  0.727000D+00  0.100000D+01
  
 11  0
   s     4 1.00
  0.130100D+02  0.196850D-01
  0.196200D+01  0.137977D+00
  0.444600D+00  0.478148D+00
  0.122000D+00  0.501240D+00
   s     1 1.00
  0.122000D+00  0.100000D+01
   p     1 1.00
  0.727000D+00  0.100000D+01
  
 12  0
   s     4 1.00
  0.130100D+02  0.196850D-01
  0.196200D+01  0.137977D+00
  0.444600D+00  0.478148D+00
  0.122000D+00  0.501240D+00
   s     1 1.00
  0.122000D+00  0.100000D+01
   p     1 1.00
  0.727000D+00  0.100000D+01
  
 13  0
   s     4 1.00
  0.130100D+02  0.196850D-01
  0.196200D+01  0.137977D+00
  0.444600D+00  0.478148D+00
  0.122000D+00  0.501240D+00
   s     1 1.00
  0.122000D+00  0.100000D+01
   p     1 1.00
  0.727000D+00  0.100000D+01
  
 14  0
   s     4 1.00
  0.130100D+02  0.196850D-01
  0.196200D+01  0.137977D+00
  0.444600D+00  0.478148D+00
  0.122000D+00  0.501240D+00
   s     1 1.00
  0.122000D+00  0.100000D+01
   p     1 1.00
  0.727000D+00  0.100000D+01
  
[MO]
 Sym= __1_A1_
 Ene=  0.000000000000000E+000
 Spin= Alpha
 Occup=    2.00000000000000     
                     1  3.973553777562927E-005
                     2  0.998042339104468     
                     3  8.287286748342091E-003
                     4  2.090797684531855E-003
                     5  1.745648393144834E-003
                     6  0.000000000000000E+000
                     7  0.000000000000000E+000
                     8  4.423407273916160E-003
                     9  0.000000000000000E+000
                    10  0.000000000000000E+000
                    11 -1.963618413483970E-004
                    12  0.000000000000000E+000
                    13  0.000000000000000E+000
                    14 -2.810789907720374E-004
                    15  2.286167791511554E-004
                    16  0.000000000000000E+000
                    17  0.000000000000000E+000
                    18 -1.228211894449162E-004
                    19  0.000000000000000E+000
                    20  1.385967467841748E-004
                    21  0.000000000000000E+000
                    22  0.000000000000000E+000
                    23  5.416340278416671E-004
                    24  0.000000000000000E+000
                    25 -1.864881423781686E-004
                    26  0.000000000000000E+000
                    27  0.000000000000000E+000
                    28  9.520730599965232E-005
                    29  0.000000000000000E+000
                    30  0.000000000000000E+000
                    31  0.000000000000000E+000
                    32 -3.375509992515396E-004
                    33  2.574056742436332E-003
                    34  1.466666228220805E-004
                    35 -2.803998394546457E-004
                    36  0.000000000000000E+000
                    37  0.000000000000000E+000
                    38 -6.518916428156199E-003
                    39  0.000000000000000E+000
                    40  0.000000000000000E+000
                    41  1.967739924819944E-004
                    42  0.000000000000000E+000
                    43  0.000000000000000E+000
                    44  4.231850439450232E-003
                    45  3.203476239229654E-004
                    46  0.000000000000000E+000
                    47  0.000000000000000E+000
                    48  1.256464698550412E-004
                    49  0.000000000000000E+000
                    50  1.894471858130633E-004
                    51  0.000000000000000E+000
                    52  0.000000000000000E+000
                    53 -3.310243107114114E-004
                    54  0.000000000000000E+000
                    55 -1.032251048048375E-004
                    56  0.000000000000000E+000
                    57  0.000000000000000E+000
                    58  7.937911510179798E-005
                    59  0.000000000000000E+000
                    60  0.000000000000000E+000
                    61  0.000000000000000E+000
                    62 -2.301539070211525E-004
                    63 -1.706138955220793E-003
                    64  5.138921533381619E-005
                    65  6.115532360304536E-004
                    66  0.000000000000000E+000
                    67 -7.502671715230383E-004
                    68  9.445697290797669E-004
                    69  0.000000000000000E+000
                    70  2.880100610627043E-005
                    71  4.344572987450957E-004
                    72  0.000000000000000E+000
                    73 -5.773864042862990E-004
                    74 -1.175013794034490E-004
                    75  8.078875582365232E-005
                    76  0.000000000000000E+000
                    77 -6.085168207107888E-006
                    78  3.664935034431094E-005
                    79  0.000000000000000E+000
                    80 -4.334593786729665E-005
                    81  0.000000000000000E+000
                    82  8.800166592327038E-005
                    83 -3.995908456505232E-005
                    84  0.000000000000000E+000
                    85 -9.237973311842593E-005
                    86  0.000000000000000E+000
                    87 -1.073220853997304E-005
                    88  2.569259693941154E-005
                    89  0.000000000000000E+000
                    90  0.000000000000000E+000
                    91  2.042875162371025E-005
                    92 -2.301539070211525E-004
                    93 -1.706138955220793E-003
                    94  5.138921533381619E-005
                    95  6.115532360304536E-004
                    96  0.000000000000000E+000
                    97  7.502671715230383E-004
                    98  9.445697290797669E-004
                    99  0.000000000000000E+000
                   100 -2.880100610627043E-005
                   101  4.344572987450957E-004
                   102  0.000000000000000E+000
                   103  5.773864042862990E-004
                   104 -1.175013794034490E-004
                   105  8.078875582365232E-005
                   106  0.000000000000000E+000
                   107  6.085168207107888E-006
                   108  3.664935034431094E-005
                   109  0.000000000000000E+000
                   110 -4.334593786729665E-005
                   111  0.000000000000000E+000
                   112 -8.800166592327038E-005
                   113 -3.995908456505232E-005
                   114  0.000000000000000E+000
                   115 -9.237973311842593E-005
                   116  0.000000000000000E+000
                   117  1.073220853997304E-005
                   118  2.569259693941154E-005
                   119  0.000000000000000E+000
                   120  0.000000000000000E+000
                   121 -2.042875162371025E-005
                   122 -1.458406894397658E-004
                   123 -5.394289658012750E-005
                   124  7.674165264614301E-005
                   125  2.740548358504741E-004
                   126  0.000000000000000E+000
                   127  1.868771278098266E-005
                   128 -7.708431760435131E-004
                   129  0.000000000000000E+000
                   130  5.185343271408062E-005
                   131  2.393923597896642E-004
                   132  0.000000000000000E+000
                   133 -1.170067622849213E-004
                   134  6.448806393544223E-004
                   135 -5.118656197113015E-006
                   136  0.000000000000000E+000
                   137  7.227506170246254E-007
                   138 -7.134539230751315E-008
                   139  0.000000000000000E+000
                   140 -1.455165006982144E-004
                   141  0.000000000000000E+000
                   142  1.223605816362922E-004
                   143  2.126308624418948E-005
                   144  0.000000000000000E+000
                   145 -3.695291795008305E-005
                   146  0.000000000000000E+000
                   147 -5.869435729820302E-008
                   148 -9.609464154869024E-006
                   149  0.000000000000000E+000
                   150  0.000000000000000E+000
                   151 -2.853121595311652E-006
                   152 -1.458406894397658E-004
                   153 -5.394289658012750E-005
                   154  7.674165264614301E-005
                   155  2.740548358504741E-004
                   156  0.000000000000000E+000
                   157 -1.868771278098266E-005
                   158 -7.708431760435131E-004
                   159  0.000000000000000E+000
                   160 -5.185343271408062E-005
                   161  2.393923597896642E-004
                   162  0.000000000000000E+000
                   163  1.170067622849213E-004
                   164  6.448806393544223E-004
                   165 -5.118656197113015E-006
                   166  0.000000000000000E+000
                   167 -7.227506170246254E-007
                   168 -7.134539230751315E-008
                   169  0.000000000000000E+000
                   170 -1.455165006982144E-004
                   171  0.000000000000000E+000
                   172 -1.223605816362922E-004
                   173  2.126308624418948E-005
                   174  0.000000000000000E+000
                   175 -3.695291795008305E-005
                   176  0.000000000000000E+000
                   177  5.869435729820302E-008
                   178 -9.609464154869024E-006
                   179  0.000000000000000E+000
                   180  0.000000000000000E+000
                   181  2.853121595311652E-006
                   182 -1.177189824584091E-004
                   183 -3.997107133409964E-004
                   184  3.112877769866911E-005
                   185  1.415311225495446E-004
                   186  0.000000000000000E+000
                   187  0.000000000000000E+000
                   188  3.749488691867320E-005
                   189  0.000000000000000E+000
                   190  0.000000000000000E+000
                   191  3.427404472152265E-005
                   192  0.000000000000000E+000
                   193  0.000000000000000E+000
                   194 -8.208482058202072E-005
                   195  1.704955974025314E-005
                   196  0.000000000000000E+000
                   197  0.000000000000000E+000
                   198  1.227734393578218E-005
                   199  0.000000000000000E+000
                   200  8.680029990152023E-005
                   201  0.000000000000000E+000
                   202  0.000000000000000E+000
                   203  4.825415662330964E-005
                   204  0.000000000000000E+000
                   205 -4.501120259365350E-006
                   206  0.000000000000000E+000
                   207  0.000000000000000E+000
                   208 -1.508540413860944E-006
                   209  0.000000000000000E+000
                   210  0.000000000000000E+000
                   211  0.000000000000000E+000
                   212  3.717160249258589E-003
                   213 -2.262152634112463E-003
                   214  0.000000000000000E+000
                   215  4.411798660754651E-004
                   216  3.535524492677588E-004
                   217  3.717160249258589E-003
                   218 -2.262152634112463E-003
                   219  0.000000000000000E+000
                   220 -4.411798660754651E-004
                   221  3.535524492677588E-004
                   222 -6.132010809614966E-004
                   223 -1.402231312383846E-004
                   224  0.000000000000000E+000
                   225 -1.567362076768743E-005
                   226 -5.285312847543236E-005
                   227 -6.132010809614966E-004
                   228 -1.402231312383846E-004
                   229  0.000000000000000E+000
                   230  1.567362076768743E-005
                   231 -5.285312847543236E-005
                   232 -1.925595554687118E-004
                   233 -3.362031783730916E-004
                   234  0.000000000000000E+000
                   235 -7.026353537492123E-006
                   236 -9.400602766488607E-007
                   237 -1.925595554687118E-004
                   238 -3.362031783730916E-004
                   239  0.000000000000000E+000
                   240  7.026353537492123E-006
                   241 -9.400602766488607E-007
                   242  1.092052080519042E-004
                   243 -3.327710933642303E-005
                   244  0.000000000000000E+000
                   245  0.000000000000000E+000
                   246  1.435468867184228E-005
 Sym= __2_A1_
 Ene=  0.000000000000000E+000
 Spin= Alpha
 Occup=    2.00000000000000     
                     1 -4.826444244843366E-005
                     2 -1.205452004550447E-004
                     3  2.392781482831452E-003
                     4  6.113913932049118E-005
                     5  1.228621037622035E-003
                     6  0.000000000000000E+000
                     7  0.000000000000000E+000
                     8  2.955168319491820E-003
                     9  0.000000000000000E+000
                    10  0.000000000000000E+000
                    11 -8.537892935675293E-005
                    12  0.000000000000000E+000
                    13  0.000000000000000E+000
                    14 -4.049136697369823E-004
                    15  4.979778847793957E-005
                    16  0.000000000000000E+000
                    17  0.000000000000000E+000
                    18  6.497221784988384E-005
                    19  0.000000000000000E+000
                    20 -2.825006520373293E-004
                    21  0.000000000000000E+000
                    22  0.000000000000000E+000
                    23 -3.206727403101188E-004
                    24  0.000000000000000E+000
                    25  2.079388166337383E-004
                    26  0.000000000000000E+000
                    27  0.000000000000000E+000
                    28 -2.066577267567532E-006
                    29  0.000000000000000E+000
                    30  0.000000000000000E+000
                    31  0.000000000000000E+000
                    32   1.00093318427511     
                    33  9.197506296073304E-003
                    34  2.689958538898825E-003
                    35 -7.522696529291540E-003
                    36  0.000000000000000E+000
                    37  0.000000000000000E+000
                    38 -4.000281778288407E-003
                    39  0.000000000000000E+000
                    40  0.000000000000000E+000
                    41  1.122541885270277E-003
                    42  0.000000000000000E+000
                    43  0.000000000000000E+000
                    44  4.214145409931409E-003
                    45  4.743792035532036E-004
                    46  0.000000000000000E+000
                    47  0.000000000000000E+000
                    48 -4.487243019547146E-004
                    49  0.000000000000000E+000
                    50  1.463570485603762E-004
                    51  0.000000000000000E+000
                    52  0.000000000000000E+000
                    53  6.796096284780490E-004
                    54  0.000000000000000E+000
                    55  3.970629521325002E-004
                    56  0.000000000000000E+000
                    57  0.000000000000000E+000
                    58 -2.396977373280626E-004
                    59  0.000000000000000E+000
                    60  0.000000000000000E+000
                    61  0.000000000000000E+000
                    62  9.950797419186070E-003
                    63 -2.176696028919750E-003
                    64 -2.061005320432706E-004
                    65  2.835916952638766E-003
                    66  0.000000000000000E+000
                    67  8.985882494566998E-005
                    68 -8.078315417115310E-005
                    69  0.000000000000000E+000
                    70  5.733983258216539E-004
                    71  1.400409698753822E-004
                    72  0.000000000000000E+000
                    73 -1.826181244793063E-003
                    74  3.759115143932019E-004
                    75 -2.246615056915317E-005
                    76  0.000000000000000E+000
                    77  2.225521184094725E-005
                    78  4.901135047864146E-005
                    79  0.000000000000000E+000
                    80  6.766771756625177E-004
                    81  0.000000000000000E+000
                    82 -1.632653895500280E-004
                    83 -7.659749856626020E-005
                    84  0.000000000000000E+000
                    85  7.090323692678950E-005
                    86  0.000000000000000E+000
                    87 -4.546506225315639E-006
                    88 -1.312537424788072E-004
                    89  0.000000000000000E+000
                    90  0.000000000000000E+000
                    91  3.211774230865684E-005
                    92  9.950797419186070E-003
                    93 -2.176696028919750E-003
                    94 -2.061005320432706E-004
                    95  2.835916952638766E-003
                    96  0.000000000000000E+000
                    97 -8.985882494566998E-005
                    98 -8.078315417115310E-005
                    99  0.000000000000000E+000
                   100 -5.733983258216539E-004
                   101  1.400409698753822E-004
                   102  0.000000000000000E+000
                   103  1.826181244793063E-003
                   104  3.759115143932019E-004
                   105 -2.246615056915317E-005
                   106  0.000000000000000E+000
                   107 -2.225521184094725E-005
                   108  4.901135047864146E-005
                   109  0.000000000000000E+000
                   110  6.766771756625177E-004
                   111  0.000000000000000E+000
                   112  1.632653895500280E-004
                   113 -7.659749856626020E-005
                   114  0.000000000000000E+000
                   115  7.090323692678950E-005
                   116  0.000000000000000E+000
                   117  4.546506225315639E-006
                   118 -1.312537424788072E-004
                   119  0.000000000000000E+000
                   120  0.000000000000000E+000
                   121 -3.211774230865684E-005
                   122 -2.357142805665053E-004
                   123 -7.699828403369318E-004
                   124  2.430700128311718E-004
                   125 -4.514300773247991E-005
                   126  0.000000000000000E+000
                   127  5.036217557726502E-006
                   128 -2.948257510753039E-004
                   129  0.000000000000000E+000
                   130 -8.802564209554265E-005
                   131  5.252034216526301E-004
                   132  0.000000000000000E+000
                   133  2.478949852145873E-004
                   134  7.524983636421405E-004
                   135 -1.732542456170384E-005
                   136  0.000000000000000E+000
                   137  2.556847847488634E-005
                   138  1.201913180622587E-005
                   139  0.000000000000000E+000
                   140 -2.886832828588596E-004
                   141  0.000000000000000E+000
                   142 -8.644189327486446E-005
                   143 -1.186480851517054E-005
                   144  0.000000000000000E+000
                   145 -8.216160585798909E-006
                   146  0.000000000000000E+000
                   147 -3.931055176447431E-005
                   148 -4.238274980195554E-005
                   149  0.000000000000000E+000
                   150  0.000000000000000E+000
                   151 -8.565084832384556E-007
                   152 -2.357142805665053E-004
                   153 -7.699828403369318E-004
                   154  2.430700128311718E-004
                   155 -4.514300773247991E-005
                   156  0.000000000000000E+000
                   157 -5.036217557726502E-006
                   158 -2.948257510753039E-004
                   159  0.000000000000000E+000
                   160  8.802564209554265E-005