[Molden Format]
[Atoms] AU
  N     1    7    -4.4850977500    0.1192489100   -0.2799105100        
  C     2    6    -1.7541832600    0.0044581400   -0.1261582100        
  C     3    6    -0.3674111800    0.2101129200   -2.3518564900        
  C     4    6    -0.4658718600   -0.1752959800    2.1616154900        
  C     5    6     2.2456902700    0.1856065300   -2.2866955000        
  C     6    6     2.1517718500   -0.1525294000    2.2150316100        
  C     7    6     3.5149431900    0.0167165100   -0.0057357300        
  H     8    1    -5.1552399600   -1.6987722400   -0.5390754300        
  H     9    1    -5.1181578900    0.5826895800    1.4983984200        
  H    10    1    -1.3503304000    0.4045187200   -4.1124041700        
  H    11    1    -1.5084820900   -0.3496880200    3.8929480500        
  H    12    1     3.2936994500    0.3344601900   -4.0175103200        
  H    13    1     3.1193546200   -0.2854861100    3.9938124700        
  H    14    1     5.5431686300    0.0216200900    0.0376021600        
[5D]
[7F]
[GTO]
  1  0
   s    12 1.00
  0.114200D+05  0.172695D-04
  0.171200D+04  0.134411D-03
  0.389300D+03  0.694561D-03
  0.110000D+03  0.278531D-02
  0.355700D+02  0.863457D-02
  0.125400D+02  0.199805D-01
  0.464400D+01  0.262908D-01
  0.129300D+01 -0.243845D-01
  0.511800D+00 -0.924934D-01
  0.178700D+00 -0.339683D+00
  0.246240D-01  0.345111D+00
  0.112530D-01  0.752750D+00
   s    10 1.00
  0.114200D+05  0.523000D-03
  0.171200D+04  0.404500D-02
  0.389300D+03  0.207750D-01
  0.110000D+03  0.807269D-01
  0.355700D+02  0.233074D+00
  0.125400D+02  0.433501D+00
  0.464400D+01  0.347472D+00
  0.129300D+01  0.412620D-01
  0.511800D+00 -0.850799D-02
  0.178700D+00  0.238400D-02
   s    10 1.00
  0.114200D+05 -0.115000D-03
  0.171200D+04 -0.895000D-03
  0.389300D+03 -0.462400D-02
  0.110000D+03 -0.185280D-01
  0.355700D+02 -0.573390D-01
  0.125400D+02 -0.132076D+00
  0.464400D+01 -0.172510D+00
  0.129300D+01  0.151814D+00
  0.511800D+00  0.599944D+00
  0.178700D+00  0.387462D+00
   s     1 1.00
  0.129300D+01  0.100000D+01
   s     1 1.00
  0.178700D+00  0.100000D+01
   p     5 1.00
  0.266300D+02  0.146700D-01
  0.594800D+01  0.917640D-01
  0.174200D+01  0.298683D+00
  0.555000D+00  0.498487D+00
  0.172500D+00  0.337023D+00
   p     1 1.00
  0.174200D+01  0.100000D+01
   p     1 1.00
  0.555000D+00  0.100000D+01
   d     1 1.00
  0.165400D+01  0.100000D+01
   d     1 1.00
  0.469000D+00  0.100000D+01
   f     1 1.00
  0.109300D+01  0.100000D+01
  
  2  0
   s    10 1.00
  0.823600D+04  0.531000D-03
  0.123500D+04  0.410800D-02
  0.280800D+03  0.210870D-01
  0.792700D+02  0.818530D-01
  0.255900D+02  0.234817D+00
  0.899700D+01  0.434401D+00
  0.331900D+01  0.346129D+00
  0.905900D+00  0.393780D-01
  0.364300D+00 -0.898300D-02
  0.128500D+00  0.238500D-02
   s    10 1.00
  0.823600D+04 -0.113000D-03
  0.123500D+04 -0.878000D-03
  0.280800D+03 -0.454000D-02
  0.792700D+02 -0.181330D-01
  0.255900D+02 -0.557600D-01
  0.899700D+01 -0.126895D+00
  0.331900D+01 -0.170352D+00
  0.905900D+00  0.140382D+00
  0.364300D+00  0.598684D+00
  0.128500D+00  0.395389D+00
   s     1 1.00
  0.905900D+00  0.100000D+01
   s     1 1.00
  0.364300D+00  0.100000D+01
   p     5 1.00
  0.187100D+02  0.140310D-01
  0.413300D+01  0.868660D-01
  0.120000D+01  0.290216D+00
  0.382700D+00  0.501008D+00
  0.120900D+00  0.343406D+00
   p     1 1.00
  0.382700D+00  0.100000D+01
   p     1 1.00
  0.120900D+00  0.100000D+01
   d     1 1.00
  0.109700D+01  0.100000D+01
   d     1 1.00
  0.318000D+00  0.100000D+01
   f     1 1.00
  0.761000D+00  0.100000D+01
  
  3  0
   s    10 1.00
  0.823600D+04  0.531000D-03
  0.123500D+04  0.410800D-02
  0.280800D+03  0.210870D-01
  0.792700D+02  0.818530D-01
  0.255900D+02  0.234817D+00
  0.899700D+01  0.434401D+00
  0.331900D+01  0.346129D+00
  0.905900D+00  0.393780D-01
  0.364300D+00 -0.898300D-02
  0.128500D+00  0.238500D-02
   s    10 1.00
  0.823600D+04 -0.113000D-03
  0.123500D+04 -0.878000D-03
  0.280800D+03 -0.454000D-02
  0.792700D+02 -0.181330D-01
  0.255900D+02 -0.557600D-01
  0.899700D+01 -0.126895D+00
  0.331900D+01 -0.170352D+00
  0.905900D+00  0.140382D+00
  0.364300D+00  0.598684D+00
  0.128500D+00  0.395389D+00
   s     1 1.00
  0.905900D+00  0.100000D+01
   s     1 1.00
  0.364300D+00  0.100000D+01
   p     5 1.00
  0.187100D+02  0.140310D-01
  0.413300D+01  0.868660D-01
  0.120000D+01  0.290216D+00
  0.382700D+00  0.501008D+00
  0.120900D+00  0.343406D+00
   p     1 1.00
  0.382700D+00  0.100000D+01
   p     1 1.00
  0.120900D+00  0.100000D+01
   d     1 1.00
  0.109700D+01  0.100000D+01
   d     1 1.00
  0.318000D+00  0.100000D+01
   f     1 1.00
  0.761000D+00  0.100000D+01
  
  4  0
   s    10 1.00
  0.823600D+04  0.531000D-03
  0.123500D+04  0.410800D-02
  0.280800D+03  0.210870D-01
  0.792700D+02  0.818530D-01
  0.255900D+02  0.234817D+00
  0.899700D+01  0.434401D+00
  0.331900D+01  0.346129D+00
  0.905900D+00  0.393780D-01
  0.364300D+00 -0.898300D-02
  0.128500D+00  0.238500D-02
   s    10 1.00
  0.823600D+04 -0.113000D-03
  0.123500D+04 -0.878000D-03
  0.280800D+03 -0.454000D-02
  0.792700D+02 -0.181330D-01
  0.255900D+02 -0.557600D-01
  0.899700D+01 -0.126895D+00
  0.331900D+01 -0.170352D+00
  0.905900D+00  0.140382D+00
  0.364300D+00  0.598684D+00
  0.128500D+00  0.395389D+00
   s     1 1.00
  0.905900D+00  0.100000D+01
   s     1 1.00
  0.364300D+00  0.100000D+01
   p     5 1.00
  0.187100D+02  0.140310D-01
  0.413300D+01  0.868660D-01
  0.120000D+01  0.290216D+00
  0.382700D+00  0.501008D+00
  0.120900D+00  0.343406D+00
   p     1 1.00
  0.382700D+00  0.100000D+01
   p     1 1.00
  0.120900D+00  0.100000D+01
   d     1 1.00
  0.109700D+01  0.100000D+01
   d     1 1.00
  0.318000D+00  0.100000D+01
   f     1 1.00
  0.761000D+00  0.100000D+01
  
  5  0
   s    10 1.00
  0.823600D+04  0.531000D-03
  0.123500D+04  0.410800D-02
  0.280800D+03  0.210870D-01
  0.792700D+02  0.818530D-01
  0.255900D+02  0.234817D+00
  0.899700D+01  0.434401D+00
  0.331900D+01  0.346129D+00
  0.905900D+00  0.393780D-01
  0.364300D+00 -0.898300D-02
  0.128500D+00  0.238500D-02
   s    10 1.00
  0.823600D+04 -0.113000D-03
  0.123500D+04 -0.878000D-03
  0.280800D+03 -0.454000D-02
  0.792700D+02 -0.181330D-01
  0.255900D+02 -0.557600D-01
  0.899700D+01 -0.126895D+00
  0.331900D+01 -0.170352D+00
  0.905900D+00  0.140382D+00
  0.364300D+00  0.598684D+00
  0.128500D+00  0.395389D+00
   s     1 1.00
  0.905900D+00  0.100000D+01
   s     1 1.00
  0.364300D+00  0.100000D+01
   p     5 1.00
  0.187100D+02  0.140310D-01
  0.413300D+01  0.868660D-01
  0.120000D+01  0.290216D+00
  0.382700D+00  0.501008D+00
  0.120900D+00  0.343406D+00
   p     1 1.00
  0.382700D+00  0.100000D+01
   p     1 1.00
  0.120900D+00  0.100000D+01
   d     1 1.00
  0.109700D+01  0.100000D+01
   d     1 1.00
  0.318000D+00  0.100000D+01
   f     1 1.00
  0.761000D+00  0.100000D+01
  
  6  0
   s    10 1.00
  0.823600D+04  0.531000D-03
  0.123500D+04  0.410800D-02
  0.280800D+03  0.210870D-01
  0.792700D+02  0.818530D-01
  0.255900D+02  0.234817D+00
  0.899700D+01  0.434401D+00
  0.331900D+01  0.346129D+00
  0.905900D+00  0.393780D-01
  0.364300D+00 -0.898300D-02
  0.128500D+00  0.238500D-02
   s    10 1.00
  0.823600D+04 -0.113000D-03
  0.123500D+04 -0.878000D-03
  0.280800D+03 -0.454000D-02
  0.792700D+02 -0.181330D-01
  0.255900D+02 -0.557600D-01
  0.899700D+01 -0.126895D+00
  0.331900D+01 -0.170352D+00
  0.905900D+00  0.140382D+00
  0.364300D+00  0.598684D+00
  0.128500D+00  0.395389D+00
   s     1 1.00
  0.905900D+00  0.100000D+01
   s     1 1.00
  0.364300D+00  0.100000D+01
   p     5 1.00
  0.187100D+02  0.140310D-01
  0.413300D+01  0.868660D-01
  0.120000D+01  0.290216D+00
  0.382700D+00  0.501008D+00
  0.120900D+00  0.343406D+00
   p     1 1.00
  0.382700D+00  0.100000D+01
   p     1 1.00
  0.120900D+00  0.100000D+01
   d     1 1.00
  0.109700D+01  0.100000D+01
   d     1 1.00
  0.318000D+00  0.100000D+01
   f     1 1.00
  0.761000D+00  0.100000D+01
  
  7  0
   s    10 1.00
  0.823600D+04  0.531000D-03
  0.123500D+04  0.410800D-02
  0.280800D+03  0.210870D-01
  0.792700D+02  0.818530D-01
  0.255900D+02  0.234817D+00
  0.899700D+01  0.434401D+00
  0.331900D+01  0.346129D+00
  0.905900D+00  0.393780D-01
  0.364300D+00 -0.898300D-02
  0.128500D+00  0.238500D-02
   s    10 1.00
  0.823600D+04 -0.113000D-03
  0.123500D+04 -0.878000D-03
  0.280800D+03 -0.454000D-02
  0.792700D+02 -0.181330D-01
  0.255900D+02 -0.557600D-01
  0.899700D+01 -0.126895D+00
  0.331900D+01 -0.170352D+00
  0.905900D+00  0.140382D+00
  0.364300D+00  0.598684D+00
  0.128500D+00  0.395389D+00
   s     1 1.00
  0.905900D+00  0.100000D+01
   s     1 1.00
  0.364300D+00  0.100000D+01
   p     5 1.00
  0.187100D+02  0.140310D-01
  0.413300D+01  0.868660D-01
  0.120000D+01  0.290216D+00
  0.382700D+00  0.501008D+00
  0.120900D+00  0.343406D+00
   p     1 1.00
  0.382700D+00  0.100000D+01
   p     1 1.00
  0.120900D+00  0.100000D+01
   d     1 1.00
  0.109700D+01  0.100000D+01
   d     1 1.00
  0.318000D+00  0.100000D+01
   f     1 1.00
  0.761000D+00  0.100000D+01
  
  8  0
   s     4 1.00
  0.130100D+02  0.196850D-01
  0.196200D+01  0.137977D+00
  0.444600D+00  0.478148D+00
  0.122000D+00  0.501240D+00
   s     1 1.00
  0.122000D+00  0.100000D+01
   p     1 1.00
  0.727000D+00  0.100000D+01
  
  9  0
   s     4 1.00
  0.130100D+02  0.196850D-01
  0.196200D+01  0.137977D+00
  0.444600D+00  0.478148D+00
  0.122000D+00  0.501240D+00
   s     1 1.00
  0.122000D+00  0.100000D+01
   p     1 1.00
  0.727000D+00  0.100000D+01
  
 10  0
   s     4 1.00
  0.130100D+02  0.196850D-01
  0.196200D+01  0.137977D+00
  0.444600D+00  0.478148D+00
  0.122000D+00  0.501240D+00
   s     1 1.00
  0.122000D+00  0.100000D+01
   p     1 1.00
  0.727000D+00  0.100000D+01
  
 11  0
   s     4 1.00
  0.130100D+02  0.196850D-01
  0.196200D+01  0.137977D+00
  0.444600D+00  0.478148D+00
  0.122000D+00  0.501240D+00
   s     1 1.00
  0.122000D+00  0.100000D+01
   p     1 1.00
  0.727000D+00  0.100000D+01
  
 12  0
   s     4 1.00
  0.130100D+02  0.196850D-01
  0.196200D+01  0.137977D+00
  0.444600D+00  0.478148D+00
  0.122000D+00  0.501240D+00
   s     1 1.00
  0.122000D+00  0.100000D+01
   p     1 1.00
  0.727000D+00  0.100000D+01
  
 13  0
   s     4 1.00
  0.130100D+02  0.196850D-01
  0.196200D+01  0.137977D+00
  0.444600D+00  0.478148D+00
  0.122000D+00  0.501240D+00
   s     1 1.00
  0.122000D+00  0.100000D+01
   p     1 1.00
  0.727000D+00  0.100000D+01
  
 14  0
   s     4 1.00
  0.130100D+02  0.196850D-01
  0.196200D+01  0.137977D+00
  0.444600D+00  0.478148D+00
  0.122000D+00  0.501240D+00
   s     1 1.00
  0.122000D+00  0.100000D+01
   p     1 1.00
  0.727000D+00  0.100000D+01
  
[MO]
 Sym= __1_a__
 Ene=  0.000000000000000E+000
 Spin= Alpha
 Occup=    2.00000000000000     
                     1  2.146392553360940E-004
                     2  0.998116279496234     
                     3 -1.985894164601540E-003
                     4  1.952294457259860E-003
                     5  6.889735882168620E-003
                     6  6.431586776493130E-003
                     7 -3.928107012711840E-003
                     8  6.036929545967720E-003
                     9 -1.004986040890330E-003
                    10  3.364265338671810E-004
                    11 -7.228716677485050E-004
                    12 -2.062471217496740E-003
                    13  2.459605262273820E-003
                    14 -3.291012770880450E-003
                    15  2.147982561124514E-005
                    16 -6.921354966767991E-005
                    17 -3.355935778042050E-005
                    18  3.532871442114880E-005
                    19  2.569485343186570E-005
                    20 -1.352387434493109E-004
                    21  5.517783969862860E-004
                    22 -2.363320940750000E-004
                    23  1.948305713448700E-004
                    24 -3.394813187126070E-004
                    25 -1.178253792023101E-005
                    26 -9.617354983289428E-005
                    27  5.829435403615400E-005
                    28  4.008063192167400E-005
                    29 -5.469436134545710E-006
                    30 -9.320053161501071E-005
                    31 -9.278324814474367E-006
                    32 -3.244249940327340E-004
                    33  4.320458590128990E-004
                    34  2.639012627194510E-004
                    35 -4.679532864464070E-005
                    36 -2.795877965601700E-003
                    37 -4.082078536797840E-004
                    38 -3.091857450340360E-004
                    39  1.929330545589300E-004
                    40 -1.054766710128360E-004
                    41  9.559288496274381E-004
                    42  4.706081381046790E-003
                    43  7.043050216458740E-004
                    44 -3.515554963633940E-003
                    45 -1.588240367121895E-004
                    46  1.939701581548450E-005
                    47  1.448427565890060E-005
                    48  1.613462965920752E-004
                    49  3.573094125108170E-005
                    50  5.531617701661177E-004
                    51  7.529335149444040E-004
                    52 -9.999023871440271E-005
                    53 -1.735086179466506E-004
                    54 -3.020127000557950E-004
                    55  4.428245121052196E-005
                    56 -3.886522439712258E-005
                    57 -4.649605737844829E-006
                    58  4.775442806119460E-005
                    59  8.184584910493630E-008
                    60 -3.580338677636772E-005
                    61  9.911418151827505E-006
                    62 -7.545160002841820E-004
                    63 -2.708999805240410E-003
                    64 -6.859432372347010E-005
                    65  2.696197441735230E-003
                    66  2.504940543223360E-005
                    67 -2.095193488319730E-004
                    68 -4.394326101533390E-004
                    69  8.698128831924830E-004
                    70 -1.517270314548310E-005
                    71  6.693328023841410E-004
                    72  1.717443367928320E-003
                    73 -2.100085684090160E-006
                    74 -1.521799539390370E-003
                    75 -5.311181408799452E-005
                    76 -4.195783645264840E-005
                    77  5.547944314328670E-006
                    78  7.930081320288940E-005
                    79  3.269849934007900E-006
                    80  4.726032411102942E-004
                    81  1.743273042667890E-004
                    82 -8.758930971889911E-005
                    83 -6.386221036441060E-005
                    84  3.076283598646420E-006
                    85 -2.479327094085275E-005
                    86 -1.452259341161019E-004
                    87  7.812659077997694E-006
                    88  1.020948258306020E-005
                    89  1.912619504449760E-005
                    90 -7.302969413245625E-005
                    91 -9.435586301500246E-006
                    92  1.014999359259930E-005
                    93 -3.077825781861030E-004
                    94  3.004629783053120E-004
                    95 -1.131985838826420E-003
                    96  3.606960468498400E-004
                    97 -2.315154734713110E-004
                    98  2.530800967796620E-004
                    99  2.317947995069800E-004
                   100  2.417265031638660E-005
                   101  4.829100760239040E-004
                   102 -2.441627381898950E-003
                   103 -1.465736890427550E-004
                   104  1.723490300115000E-004
                   105 -5.303650506802051E-005
                   106 -6.396227457887100E-006
                   107  9.477570626155140E-007
                   108  3.177192771097980E-005
                   109 -2.385451718216400E-006
                   110 -1.099797531793962E-004
                   111 -2.089760102576190E-004
                   112  2.720317606050070E-005
                   113 -2.393777000146920E-004
                   114  4.168770949631460E-005
                   115 -2.487985743947598E-005
                   116  4.690120986982250E-005
                   117  9.596704577103427E-006
                   118  1.757607452514044E-005
                   119 -1.170540586372260E-005
                   120 -8.176690809880485E-006
                   121 -6.593485869207745E-006
                   122 -3.206735249315140E-004
                   123 -9.018088142750340E-004
                   124  1.143830173606060E-004
                   125  9.358044387678310E-004
                   126 -3.188364126177020E-004
                   127 -5.217900505017200E-005
                   128 -4.238384667447550E-005
                   129  5.672878594765060E-004
                   130 -2.772967958337400E-005
                   131  2.908031322580440E-004
                   132  2.896029514118000E-003
                   133  3.449261451345970E-005
                   134  4.760401190134690E-004
                   135  3.463778293984503E-005
                   136 -1.508991582432260E-006
                   137 -4.695563903794060E-006
                   138 -1.918055637472910E-005
                   139  8.525793622120920E-006
                   140  2.572290687832535E-004
                   141  3.806406224945320E-004
                   142  1.330864899280360E-006
                   143 -3.957304391972680E-004
                   144 -2.902641214997220E-005
                   145 -3.784494108444878E-005
                   146 -2.523356657530565E-005
                   147 -4.241784773702468E-006
                   148 -1.450571093861800E-005
                   149 -5.134947453019300E-006
                   150 -8.675590800907803E-005
                   151 -1.003761444592653E-006
                   152 -1.406826413355470E-004
                   153 -2.861011006765180E-004
                   154 -4.441937857273660E-005
                   155  5.303910374146301E-004
                   156 -2.594086308461450E-004
                   157 -3.407262009396860E-005
                   158 -5.712338785596780E-005
                   159 -2.319009395918410E-004
                   160 -3.339649325193730E-005
                   161  2.568969553208770E-004
                   162 -1.210838689855080E-003
                   163 -2.510750013586860E-005
                   164  9.309787695022770E-004
                   165 -2.156854860752377E-005
                   166  9.622923269858590E-006
                   167  1.896421780483480E-006
                   168  1.988944757392016E-005
                   169  5.470576751413700E-006
                   170 -8.797106245597022E-005
                   171 -2.396588483592120E-006
                   172  1.331481601486380E-005
                   173  5.277756940012460E-005
                   174  7.656594089507511E-006
                   175 -1.372898904150539E-005
                   176 -3.144716421164255E-006
                   177 -5.251218750489728E-007
                   178 -8.449471417986140E-006
                   179  4.941187207314580E-008
                   180  3.138697860647519E-006
                   181 -2.391098519047661E-006
                   182 -1.592361700363250E-004
                   183 -4.944419866938190E-004
                   184  3.914861857922160E-005
                   185  2.073706725416560E-004
                   186 -2.080432727388360E-005
                   187  2.051988057733980E-005
                   188 -9.050077714032271E-005
                   189  9.221374671150470E-005
                   190 -1.943109815736960E-005
                   191  4.195982167375190E-004
                   192 -4.469981752723650E-004
                   193 -1.896491351774790E-004
                   194  2.249186188097430E-003
                   195 -4.986506281935324E-006
                   196  5.306029099878580E-006
                   197  4.949672526118339E-007
                   198  7.722714877804420E-007
                   199 -1.223966641213940E-009
                   200 -1.330664331593644E-004
                   201 -3.418445711048620E-004
                   202  1.549400398924280E-005
                   203  6.563841694834941E-005
                   204  2.949976731293060E-005
                   205  3.533754329105122E-006
                   206  3.961920087572119E-006
                   207 -1.041316743798849E-006
                   208  2.569785491658100E-005
                   209 -2.087065157774160E-006
                   210 -4.400901141992973E-006
                   211 -3.135990142442395E-006
                   212  6.420810057794100E-004
                   213 -1.159261181672730E-003
                   214  1.097473173154270E-004
                   215  3.108365341936970E-004
                   216 -9.924379703951940E-006
                   217  1.572763329487110E-003
                   218 -1.552600003561240E-003
                   219  1.497322483731650E-004
                   220 -1.957568317503530E-005
                   221 -3.957745051189090E-004
                   222 -4.170360917087690E-004
                   223 -2.190219818578490E-004
                   224 -1.025864494598830E-004
                   225  2.622200402057500E-007
                   226  4.619842126720950E-005
                   227 -2.196628361732250E-004
                   228 -5.761136694787750E-004
                   229 -2.488627554758600E-005
                   230  1.243527782278200E-005
                   231 -5.321845078916710E-005
                   232  6.366381328646019E-005
                   233 -7.368952009770339E-004
                   234 -2.198756560583860E-006
                   235 -1.479395915452510E-006
                   236  6.648027638724480E-006
                   237 -1.181878021112420E-004
                   238 -2.264274426241910E-004
                   239  2.012387598853330E-005
                   240 -3.500230857889160E-006
                   241  2.344752155676110E-005
                   242 -2.853033234378690E-005
                   243  1.246819738438650E-004
                   244  3.089979838794130E-005
                   245  2.124947829342530E-006
                   246  1.794401591503820E-006
 Sym= __2_a__
 Ene=  0.000000000000000E+000
 Spin= Alpha
 Occup=    2.00000000000000     
                     1  6.007301189406851E-007
                     2 -9.253224952130400E-005
                     3  1.307694454053660E-003
                     4 -2.226156969701700E-005
                     5  1.188493806081240E-003
                     6  1.464523080121340E-003
                     7 -1.152477264782870E-004
                     8 -1.294349593030920E-004
                     9 -1.566503093488400E-004
                    10  1.066780364880560E-004
                    11 -4.458080352451070E-005
                    12  1.831300372009330E-004
                    13  1.517503860243840E-004
                    14  4.616001331554060E-006
                    15 -5.808438997965912E-005
                    16  1.849766331277710E-005
                    17 -5.772987833749380E-006
                    18  4.703876748871220E-005
                    19 -5.898302636873440E-007
                    20  8.655090731162491E-005
                    21 -6.823861049521960E-005
                    22  2.583391119097460E-005
                    23  1.228733283039678E-004
                    24 -6.106885205772520E-005
                    25 -5.525462132933072E-005
                    26  1.257878160017258E-004
                    27  1.347524000650684E-005
                    28 -2.683124459388800E-005
                    29 -8.632756610776040E-006
                    30  1.221431488743877E-004
                    31  3.139972528216882E-005
                    32   1.00088288083699     
                    33  8.634463048235209E-003
                    34  2.846610079515090E-003
                    35 -8.400068184666390E-003
                    36 -1.908136900439790E-003
                    37  3.303604748462770E-004
                    38  9.793991008466870E-005
                    39  1.021304722021360E-003
                    40 -1.342226046316230E-004
                    41 -2.366835316348990E-004
                    42  2.828395355160560E-003
                    43 -1.124305331010820E-004
                    44 -7.652795053674580E-005
                    45  3.097878636310773E-004
                    46  1.404388185867090E-005
                    47 -5.928164018915230E-005
                    48  3.506734328723300E-004
                    49 -3.220574057352120E-006
                    50 -9.840308243222733E-004
                    51 -2.405843510860010E-004
                    52  1.603080375689880E-004
                    53 -1.555214926332612E-004
                    54  1.481310988957980E-005
                    55 -1.452092189079982E-005
                    56  2.715175935127424E-004
                    57 -9.481248894993728E-006
                    58 -2.418009397948580E-005
                    59 -2.193483283748000E-005
                    60  6.838120568641914E-005
                    61  9.954566778682120E-006
                    62  1.506658805768950E-002
                    63 -1.684869295891800E-003
                    64 -2.866098369017300E-004
                    65  2.886568162380340E-003
                    66 -2.093213439278570E-004
                    67  8.439656151779420E-006
                    68  3.507266156735880E-004
                    69  3.224417616223070E-005
                    70 -3.231206681410440E-005
                    71  3.538633784708340E-004
                    72  4.041551028142550E-004
                    73  1.784599731390040E-004
                    74 -1.767211060466250E-003
                    75  3.552017630134447E-007
                    76  2.525246194025360E-005
                    77  4.323189491040880E-006
                    78 -4.230531442112700E-005
                    79 -2.496403245730510E-006
                    80 -4.824963527095892E-004
                    81 -3.911227525184910E-004
                    82  2.396994537387320E-005
                    83  7.958565576468760E-004
                    84  2.156986893589390E-005
                    85  3.978271255642946E-005
                    86  1.056231063044190E-004
                    87  1.682445513246452E-005
                    88 -2.220196449215000E-005
                    89 -2.161646042063680E-005
                    90 -2.481121629086276E-005
                    91  2.399671168717320E-006
                    92  1.709515895245440E-002
                    93 -1.665144539894180E-003
                    94 -3.371309791611290E-004
                    95  3.284090916800130E-003
                    96 -2.448878200778620E-004
                    97  6.305245629705680E-005
                    98 -3.399796912290330E-004
                    99 -6.877240504565020E-005
                   100  6.414903426693229E-005
                   101 -6.903478244530260E-004
                   102  1.478157316759810E-004
                   103 -1.162965946266850E-004
                   104  1.619018054701770E-003
                   105  6.090918443670915E-006
                   106 -9.740053185595259E-006
                   107  1.012381602844090E-006
                   108 -2.952288719191400E-005
                   109 -1.232476423466490E-006
                   110 -2.715465430958823E-004
                   111  4.883493048820110E-004
                   112 -3.402969870296830E-005
                   113  6.614667720985860E-004
                   114 -4.124338299358680E-005
                   115 -4.947435022954478E-005
                   116  9.190995713559581E-005
                   117 -8.766244294955537E-006
                   118  2.055608435819200E-005
                   119 -9.248859813183500E-006
                   120 -3.175993173505665E-005
                   121  2.424378455330183E-007
                   122 -1.003212204989240E-004
                   123 -7.641987766891110E-004
                   124  2.415443943485790E-004
                   125 -3.071419459227200E-004
                   126 -1.412095138617730E-004
                   127  9.841089266405670E-006
                   128 -5.417969842696820E-005
                   129  6.139998256224340E-004
                   130 -1.213073712030430E-005
                   131  7.409506795315799E-005
                   132  5.992602438997560E-004
                   133 -4.355812435733960E-005
                   134  4.149387717255550E-004
                   135  9.360088423170173E-007
                   136  3.866108320962410E-005
                   137  2.332786517369420E-006
                   138 -3.582683030298220E-005
                   139 -3.971557645989150E-006
                   140  1.957000127794492E-004
                   141 -2.693897396788730E-004
                   142 -6.771893029823340E-006
                   143 -2.403919266348280E-004
                   144  2.475507366320750E-005
                   145 -1.395560943349036E-005
                   146  1.354095870385214E-005
                   147 -2.423643058223037E-006
                   148 -6.949607639029740E-006
                   149 -3.681209329384750E-006
                   150 -2.087728118890084E-005
                   151  1.143450391417408E-006
                   152 -4.742954645002970E-005
                   153 -7.606437614428730E-004
                   154  2.428616913207460E-004
                   155 -2.477088953942040E-004
                   156 -1.166249733020010E-004
                   157 -8.442571694646109E-006
                   158  3.535036699681300E-005
                   159  5.208999935447279E-004
                   160  7.346422524658400E-006