[Molden Format]
[Atoms] AU
  N     1    7    -4.4850977500    0.1192489100   -0.2799105100        
  C     2    6    -1.7541832600    0.0044581400   -0.1261582100        
  C     3    6    -0.3674111800    0.2101129200   -2.3518564900        
  C     4    6    -0.4658718600   -0.1752959800    2.1616154900        
  C     5    6     2.2456902700    0.1856065300   -2.2866955000        
  C     6    6     2.1517718500   -0.1525294000    2.2150316100        
  C     7    6     3.5149431900    0.0167165100   -0.0057357300        
  H     8    1    -5.1552399600   -1.6987722400   -0.5390754300        
  H     9    1    -5.1181578900    0.5826895800    1.4983984200        
  H    10    1    -1.3503304000    0.4045187200   -4.1124041700        
  H    11    1    -1.5084820900   -0.3496880200    3.8929480500        
  H    12    1     3.2936994500    0.3344601900   -4.0175103200        
  H    13    1     3.1193546200   -0.2854861100    3.9938124700        
  H    14    1     5.5431686300    0.0216200900    0.0376021600        
[5D]
[7F]
[GTO]
  1  0
   s    12 1.00
  0.114200D+05  0.172695D-04
  0.171200D+04  0.134411D-03
  0.389300D+03  0.694561D-03
  0.110000D+03  0.278531D-02
  0.355700D+02  0.863457D-02
  0.125400D+02  0.199805D-01
  0.464400D+01  0.262908D-01
  0.129300D+01 -0.243845D-01
  0.511800D+00 -0.924934D-01
  0.178700D+00 -0.339683D+00
  0.246240D-01  0.345111D+00
  0.112530D-01  0.752750D+00
   s    10 1.00
  0.114200D+05  0.523000D-03
  0.171200D+04  0.404500D-02
  0.389300D+03  0.207750D-01
  0.110000D+03  0.807269D-01
  0.355700D+02  0.233074D+00
  0.125400D+02  0.433501D+00
  0.464400D+01  0.347472D+00
  0.129300D+01  0.412620D-01
  0.511800D+00 -0.850799D-02
  0.178700D+00  0.238400D-02
   s    10 1.00
  0.114200D+05 -0.115000D-03
  0.171200D+04 -0.895000D-03
  0.389300D+03 -0.462400D-02
  0.110000D+03 -0.185280D-01
  0.355700D+02 -0.573390D-01
  0.125400D+02 -0.132076D+00
  0.464400D+01 -0.172510D+00
  0.129300D+01  0.151814D+00
  0.511800D+00  0.599944D+00
  0.178700D+00  0.387462D+00
   s     1 1.00
  0.129300D+01  0.100000D+01
   s     1 1.00
  0.178700D+00  0.100000D+01
   p     5 1.00
  0.266300D+02  0.146700D-01
  0.594800D+01  0.917640D-01
  0.174200D+01  0.298683D+00
  0.555000D+00  0.498487D+00
  0.172500D+00  0.337023D+00
   p     1 1.00
  0.174200D+01  0.100000D+01
   p     1 1.00
  0.555000D+00  0.100000D+01
   d     1 1.00
  0.165400D+01  0.100000D+01
   d     1 1.00
  0.469000D+00  0.100000D+01
   f     1 1.00
  0.109300D+01  0.100000D+01
  
  2  0
   s    10 1.00
  0.823600D+04  0.531000D-03
  0.123500D+04  0.410800D-02
  0.280800D+03  0.210870D-01
  0.792700D+02  0.818530D-01
  0.255900D+02  0.234817D+00
  0.899700D+01  0.434401D+00
  0.331900D+01  0.346129D+00
  0.905900D+00  0.393780D-01
  0.364300D+00 -0.898300D-02
  0.128500D+00  0.238500D-02
   s    10 1.00
  0.823600D+04 -0.113000D-03
  0.123500D+04 -0.878000D-03
  0.280800D+03 -0.454000D-02
  0.792700D+02 -0.181330D-01
  0.255900D+02 -0.557600D-01
  0.899700D+01 -0.126895D+00
  0.331900D+01 -0.170352D+00
  0.905900D+00  0.140382D+00
  0.364300D+00  0.598684D+00
  0.128500D+00  0.395389D+00
   s     1 1.00
  0.905900D+00  0.100000D+01
   s     1 1.00
  0.364300D+00  0.100000D+01
   p     5 1.00
  0.187100D+02  0.140310D-01
  0.413300D+01  0.868660D-01
  0.120000D+01  0.290216D+00
  0.382700D+00  0.501008D+00
  0.120900D+00  0.343406D+00
   p     1 1.00
  0.382700D+00  0.100000D+01
   p     1 1.00
  0.120900D+00  0.100000D+01
   d     1 1.00
  0.109700D+01  0.100000D+01
   d     1 1.00
  0.318000D+00  0.100000D+01
   f     1 1.00
  0.761000D+00  0.100000D+01
  
  3  0
   s    10 1.00
  0.823600D+04  0.531000D-03
  0.123500D+04  0.410800D-02
  0.280800D+03  0.210870D-01
  0.792700D+02  0.818530D-01
  0.255900D+02  0.234817D+00
  0.899700D+01  0.434401D+00
  0.331900D+01  0.346129D+00
  0.905900D+00  0.393780D-01
  0.364300D+00 -0.898300D-02
  0.128500D+00  0.238500D-02
   s    10 1.00
  0.823600D+04 -0.113000D-03
  0.123500D+04 -0.878000D-03
  0.280800D+03 -0.454000D-02
  0.792700D+02 -0.181330D-01
  0.255900D+02 -0.557600D-01
  0.899700D+01 -0.126895D+00
  0.331900D+01 -0.170352D+00
  0.905900D+00  0.140382D+00
  0.364300D+00  0.598684D+00
  0.128500D+00  0.395389D+00
   s     1 1.00
  0.905900D+00  0.100000D+01
   s     1 1.00
  0.364300D+00  0.100000D+01
   p     5 1.00
  0.187100D+02  0.140310D-01
  0.413300D+01  0.868660D-01
  0.120000D+01  0.290216D+00
  0.382700D+00  0.501008D+00
  0.120900D+00  0.343406D+00
   p     1 1.00
  0.382700D+00  0.100000D+01
   p     1 1.00
  0.120900D+00  0.100000D+01
   d     1 1.00
  0.109700D+01  0.100000D+01
   d     1 1.00
  0.318000D+00  0.100000D+01
   f     1 1.00
  0.761000D+00  0.100000D+01
  
  4  0
   s    10 1.00
  0.823600D+04  0.531000D-03
  0.123500D+04  0.410800D-02
  0.280800D+03  0.210870D-01
  0.792700D+02  0.818530D-01
  0.255900D+02  0.234817D+00
  0.899700D+01  0.434401D+00
  0.331900D+01  0.346129D+00
  0.905900D+00  0.393780D-01
  0.364300D+00 -0.898300D-02
  0.128500D+00  0.238500D-02
   s    10 1.00
  0.823600D+04 -0.113000D-03
  0.123500D+04 -0.878000D-03
  0.280800D+03 -0.454000D-02
  0.792700D+02 -0.181330D-01
  0.255900D+02 -0.557600D-01
  0.899700D+01 -0.126895D+00
  0.331900D+01 -0.170352D+00
  0.905900D+00  0.140382D+00
  0.364300D+00  0.598684D+00
  0.128500D+00  0.395389D+00
   s     1 1.00
  0.905900D+00  0.100000D+01
   s     1 1.00
  0.364300D+00  0.100000D+01
   p     5 1.00
  0.187100D+02  0.140310D-01
  0.413300D+01  0.868660D-01
  0.120000D+01  0.290216D+00
  0.382700D+00  0.501008D+00
  0.120900D+00  0.343406D+00
   p     1 1.00
  0.382700D+00  0.100000D+01
   p     1 1.00
  0.120900D+00  0.100000D+01
   d     1 1.00
  0.109700D+01  0.100000D+01
   d     1 1.00
  0.318000D+00  0.100000D+01
   f     1 1.00
  0.761000D+00  0.100000D+01
  
  5  0
   s    10 1.00
  0.823600D+04  0.531000D-03
  0.123500D+04  0.410800D-02
  0.280800D+03  0.210870D-01
  0.792700D+02  0.818530D-01
  0.255900D+02  0.234817D+00
  0.899700D+01  0.434401D+00
  0.331900D+01  0.346129D+00
  0.905900D+00  0.393780D-01
  0.364300D+00 -0.898300D-02
  0.128500D+00  0.238500D-02
   s    10 1.00
  0.823600D+04 -0.113000D-03
  0.123500D+04 -0.878000D-03
  0.280800D+03 -0.454000D-02
  0.792700D+02 -0.181330D-01
  0.255900D+02 -0.557600D-01
  0.899700D+01 -0.126895D+00
  0.331900D+01 -0.170352D+00
  0.905900D+00  0.140382D+00
  0.364300D+00  0.598684D+00
  0.128500D+00  0.395389D+00
   s     1 1.00
  0.905900D+00  0.100000D+01
   s     1 1.00
  0.364300D+00  0.100000D+01
   p     5 1.00
  0.187100D+02  0.140310D-01
  0.413300D+01  0.868660D-01
  0.120000D+01  0.290216D+00
  0.382700D+00  0.501008D+00
  0.120900D+00  0.343406D+00
   p     1 1.00
  0.382700D+00  0.100000D+01
   p     1 1.00
  0.120900D+00  0.100000D+01
   d     1 1.00
  0.109700D+01  0.100000D+01
   d     1 1.00
  0.318000D+00  0.100000D+01
   f     1 1.00
  0.761000D+00  0.100000D+01
  
  6  0
   s    10 1.00
  0.823600D+04  0.531000D-03
  0.123500D+04  0.410800D-02
  0.280800D+03  0.210870D-01
  0.792700D+02  0.818530D-01
  0.255900D+02  0.234817D+00
  0.899700D+01  0.434401D+00
  0.331900D+01  0.346129D+00
  0.905900D+00  0.393780D-01
  0.364300D+00 -0.898300D-02
  0.128500D+00  0.238500D-02
   s    10 1.00
  0.823600D+04 -0.113000D-03
  0.123500D+04 -0.878000D-03
  0.280800D+03 -0.454000D-02
  0.792700D+02 -0.181330D-01
  0.255900D+02 -0.557600D-01
  0.899700D+01 -0.126895D+00
  0.331900D+01 -0.170352D+00
  0.905900D+00  0.140382D+00
  0.364300D+00  0.598684D+00
  0.128500D+00  0.395389D+00
   s     1 1.00
  0.905900D+00  0.100000D+01
   s     1 1.00
  0.364300D+00  0.100000D+01
   p     5 1.00
  0.187100D+02  0.140310D-01
  0.413300D+01  0.868660D-01
  0.120000D+01  0.290216D+00
  0.382700D+00  0.501008D+00
  0.120900D+00  0.343406D+00
   p     1 1.00
  0.382700D+00  0.100000D+01
   p     1 1.00
  0.120900D+00  0.100000D+01
   d     1 1.00
  0.109700D+01  0.100000D+01
   d     1 1.00
  0.318000D+00  0.100000D+01
   f     1 1.00
  0.761000D+00  0.100000D+01
  
  7  0
   s    10 1.00
  0.823600D+04  0.531000D-03
  0.123500D+04  0.410800D-02
  0.280800D+03  0.210870D-01
  0.792700D+02  0.818530D-01
  0.255900D+02  0.234817D+00
  0.899700D+01  0.434401D+00
  0.331900D+01  0.346129D+00
  0.905900D+00  0.393780D-01
  0.364300D+00 -0.898300D-02
  0.128500D+00  0.238500D-02
   s    10 1.00
  0.823600D+04 -0.113000D-03
  0.123500D+04 -0.878000D-03
  0.280800D+03 -0.454000D-02
  0.792700D+02 -0.181330D-01
  0.255900D+02 -0.557600D-01
  0.899700D+01 -0.126895D+00
  0.331900D+01 -0.170352D+00
  0.905900D+00  0.140382D+00
  0.364300D+00  0.598684D+00
  0.128500D+00  0.395389D+00
   s     1 1.00
  0.905900D+00  0.100000D+01
   s     1 1.00
  0.364300D+00  0.100000D+01
   p     5 1.00
  0.187100D+02  0.140310D-01
  0.413300D+01  0.868660D-01
  0.120000D+01  0.290216D+00
  0.382700D+00  0.501008D+00
  0.120900D+00  0.343406D+00
   p     1 1.00
  0.382700D+00  0.100000D+01
   p     1 1.00
  0.120900D+00  0.100000D+01
   d     1 1.00
  0.109700D+01  0.100000D+01
   d     1 1.00
  0.318000D+00  0.100000D+01
   f     1 1.00
  0.761000D+00  0.100000D+01
  
  8  0
   s     4 1.00
  0.130100D+02  0.196850D-01
  0.196200D+01  0.137977D+00
  0.444600D+00  0.478148D+00
  0.122000D+00  0.501240D+00
   s     1 1.00
  0.122000D+00  0.100000D+01
   p     1 1.00
  0.727000D+00  0.100000D+01
  
  9  0
   s     4 1.00
  0.130100D+02  0.196850D-01
  0.196200D+01  0.137977D+00
  0.444600D+00  0.478148D+00
  0.122000D+00  0.501240D+00
   s     1 1.00
  0.122000D+00  0.100000D+01
   p     1 1.00
  0.727000D+00  0.100000D+01
  
 10  0
   s     4 1.00
  0.130100D+02  0.196850D-01
  0.196200D+01  0.137977D+00
  0.444600D+00  0.478148D+00
  0.122000D+00  0.501240D+00
   s     1 1.00
  0.122000D+00  0.100000D+01
   p     1 1.00
  0.727000D+00  0.100000D+01
  
 11  0
   s     4 1.00
  0.130100D+02  0.196850D-01
  0.196200D+01  0.137977D+00
  0.444600D+00  0.478148D+00
  0.122000D+00  0.501240D+00
   s     1 1.00
  0.122000D+00  0.100000D+01
   p     1 1.00
  0.727000D+00  0.100000D+01
  
 12  0
   s     4 1.00
  0.130100D+02  0.196850D-01
  0.196200D+01  0.137977D+00
  0.444600D+00  0.478148D+00
  0.122000D+00  0.501240D+00
   s     1 1.00
  0.122000D+00  0.100000D+01
   p     1 1.00
  0.727000D+00  0.100000D+01
  
 13  0
   s     4 1.00
  0.130100D+02  0.196850D-01
  0.196200D+01  0.137977D+00
  0.444600D+00  0.478148D+00
  0.122000D+00  0.501240D+00
   s     1 1.00
  0.122000D+00  0.100000D+01
   p     1 1.00
  0.727000D+00  0.100000D+01
  
 14  0
   s     4 1.00
  0.130100D+02  0.196850D-01
  0.196200D+01  0.137977D+00
  0.444600D+00  0.478148D+00
  0.122000D+00  0.501240D+00
   s     1 1.00
  0.122000D+00  0.100000D+01
   p     1 1.00
  0.727000D+00  0.100000D+01
  
[MO]
 Sym= __1_A__
 Ene=  0.000000000000000E+000
 Spin= Alpha
 Occup=    2.00000000000000     
                     1  2.146392610815764E-004
                     2  0.998116279489115     
                     3 -1.985894146256992E-003
                     4  1.952294457376730E-003
                     5  6.889735871778331E-003
                     6  6.431586760675331E-003
                     7 -3.928107005042467E-003
                     8  6.036929537538760E-003
                     9 -1.004986034819499E-003
                    10  3.364265324445228E-004
                    11 -7.228716648143062E-004
                    12 -2.062471218703838E-003
                    13  2.459605260978011E-003
                    14 -3.291012769197103E-003
                    15  2.147982535599133E-005
                    16 -6.921354973661730E-005
                    17 -3.355935770407328E-005
                    18  3.532871540080884E-005
                    19  2.569485363599462E-005
                    20 -1.352387455346074E-004
                    21  5.517783991132226E-004
                    22 -2.363320946998544E-004
                    23  1.948305758622755E-004
                    24 -3.394813187666158E-004
                    25 -1.178253787537224E-005
                    26 -9.617354976143420E-005
                    27  5.829435413573787E-005
                    28  4.008063217247856E-005
                    29 -5.469436338075754E-006
                    30 -9.320053256195690E-005
                    31 -9.278324828658241E-006
                    32 -3.244255015763362E-004
                    33  4.320465646111116E-004
                    34  2.639012558440121E-004
                    35 -4.679536979223628E-005
                    36 -2.795877724002249E-003
                    37 -4.082078486698438E-004
                    38 -3.091856812162067E-004
                    39  1.929330464409978E-004
                    40 -1.054766708412240E-004
                    41  9.559288428674650E-004
                    42  4.706081429201851E-003
                    43  7.043050261566511E-004
                    44 -3.515554999343621E-003
                    45 -1.588240169936739E-004
                    46  1.939701665623568E-005
                    47  1.448427283371731E-005
                    48  1.613462973471198E-004
                    49  3.573094136526635E-005
                    50  5.531617836423330E-004
                    51  7.529335151417302E-004
                    52 -9.999024100539530E-005
                    53 -1.735086031338809E-004
                    54 -3.020126987126808E-004
                    55  4.428244990673412E-005
                    56 -3.886521229044473E-005
                    57 -4.649605693050195E-006
                    58  4.775442763704244E-005
                    59  8.184408665398725E-008
                    60 -3.580338618122173E-005
                    61  9.911418522960341E-006
                    62 -7.545160059440441E-004
                    63 -2.708999715233326E-003
                    64 -6.859432251306966E-005
                    65  2.696197446977760E-003
                    66  2.504899556366975E-005
                    67 -2.095193562406482E-004
                    68 -4.394324365422689E-004
                    69  8.698129326716489E-004
                    70 -1.517270273668269E-005
                    71  6.693327915379229E-004
                    72  1.717443482927839E-003
                    73 -2.100076611980284E-006
                    74 -1.521799655408087E-003
                    75 -5.311180077608286E-005
                    76 -4.195784324606778E-005
                    77  5.547942773319891E-006
                    78  7.930080771009173E-005
                    79  3.269850653393001E-006
                    80  4.726032441901323E-004
                    81  1.743272882158760E-004
                    82 -8.758931062174475E-005
                    83 -6.386220673549327E-005
                    84  3.076286041631676E-006
                    85 -2.479327189490237E-005
                    86 -1.452259371614366E-004
                    87  7.812658632149995E-006
                    88  1.020948389513258E-005
                    89  1.912619576428935E-005
                    90 -7.302969219874934E-005
                    91 -9.435586397623286E-006
                    92  1.014998534802108E-005
                    93 -3.077823501920326E-004
                    94  3.004629769065401E-004
                    95 -1.131985840343605E-003
                    96  3.606955634887144E-004
                    97 -2.315154603094121E-004
                    98  2.530799141910399E-004
                    99  2.317948579339129E-004
                   100  2.417265082467720E-005
                   101  4.829100814516697E-004
                   102 -2.441627278173221E-003
                   103 -1.465737000067738E-004
                   104  1.723491542708026E-004
                   105 -5.303648832971634E-005
                   106 -6.396222028284195E-006
                   107  9.477547878773697E-007
                   108  3.177192287458370E-005
                   109 -2.385452461627177E-006
                   110 -1.099797533054901E-004
                   111 -2.089759853669249E-004
                   112  2.720317577148585E-005
                   113 -2.393776928113556E-004
                   114  4.168770708680021E-005
                   115 -2.487985590365836E-005
                   116  4.690120524092067E-005
                   117  9.596705111663076E-006
                   118  1.757607297147544E-005
                   119 -1.170540501429852E-005
                   120 -8.176689053101082E-006
                   121 -6.593485734483423E-006
                   122 -3.206735261908162E-004
                   123 -9.018089835314531E-004
                   124  1.143830244819522E-004
                   125  9.358044499881656E-004
                   126 -3.188361193895956E-004
                   127 -5.217900248979085E-005
                   128 -4.238388444932318E-005
                   129  5.672878518167920E-004
                   130 -2.772968094835892E-005
                   131  2.908031448064912E-004
                   132  2.896029532954392E-003
                   133  3.449261421798001E-005
                   134  4.760401218558735E-004
                   135  3.463778904953999E-005
                   136 -1.508995702501202E-006
                   137 -4.695564299677944E-006
                   138 -1.918056326039514E-005
                   139  8.525793940698240E-006
                   140  2.572290779583100E-004
                   141  3.806406212748973E-004
                   142  1.330864804980209E-006
                   143 -3.957304525081676E-004
                   144 -2.902641167624413E-005
                   145 -3.784493980536913E-005
                   146 -2.523356883583626E-005
                   147 -4.241784616614940E-006
                   148 -1.450570993774073E-005
                   149 -5.134947521715394E-006
                   150 -8.675591162758008E-005
                   151 -1.003761626923474E-006
                   152 -1.406826405086442E-004
                   153 -2.861012843272908E-004
                   154 -4.441936977501631E-005
                   155  5.303910394075856E-004
                   156 -2.594083311738126E-004
                   157 -3.407262216681248E-005
                   158 -5.712336105115700E-005
                   159 -2.319009418701068E-004
                   160 -3.339649237494672E-005
                   161  2.568969443366314E-004
                   162 -1.210838685768176E-003
                   163 -2.510749921608538E-005
                   164  9.309787660820532E-004
                   165 -2.156854237730193E-005
                   166  9.622925431160759E-006
                   167  1.896421607269627E-006
                   168  1.988944012607334E-005
                   169  5.470576383453092E-006
                   170 -8.797105112317960E-005
                   171 -2.396584474868366E-006
                   172  1.331481549640495E-005
                   173  5.277755529291722E-005
                   174  7.656592967688354E-006
                   175 -1.372899009403422E-005
                   176 -3.144719424661809E-006
                   177 -5.251220521110006E-007
                   178 -8.449472138831366E-006
                   179  4.941195154826294E-008
                   180  3.138694082273818E-006
                   181 -2.391098338039146E-006
                   182 -1.592361737648234E-004
                   183 -4.944419932563270E-004
                   184  3.914861975786229E-005
                   185  2.073706817794934E-004
                   186 -2.080435743914803E-005
                   187  2.051987636031502E-005
                   188 -9.050076689969299E-005
                   189  9.221375541134314E-005
                   190 -1.943109838947108E-005
                   191  4.195982180713775E-004
                   192 -4.469982115048358E-004
                   193 -1.896491363305711E-004
                   194  2.249186193164240E-003
                   195 -4.986499809919231E-006
                   196  5.306028476339331E-006
                   197  4.949667111768962E-007
                   198  7.722675258766712E-007
                   199 -1.223916192114939E-009
                   200 -1.330664296108158E-004
                   201 -3.418445717250957E-004
                   202  1.549400336255484E-005
                   203  6.563841997813237E-005
                   204  2.949976750960123E-005
                   205  3.533754261943872E-006
                   206  3.961918786634542E-006
                   207 -1.041316799241395E-006
                   208  2.569785501184958E-005
                   209 -2.087065052189209E-006
                   210 -4.400901577380300E-006
                   211 -3.135990174127721E-006
                   212  6.420810165312813E-004
                   213 -1.159261173238153E-003
                   214  1.097473166410860E-004
                   215  3.108365344135722E-004
                   216 -9.924379609213384E-006
                   217  1.572763346509989E-003
                   218 -1.552599996251425E-003
                   219  1.497322489713547E-004
                   220 -1.957568381751967E-005
                   221 -3.957745059227425E-004
                   222 -4.170359856647535E-004
                   223 -2.190220566746844E-004
                   224 -1.025864508805632E-004
                   225  2.622192633216103E-007
                   226  4.619842948356486E-005
                   227 -2.196626217432537E-004
                   228 -5.761137973411533E-004
                   229 -2.488627370800455E-005
                   230  1.243527934796154E-005
                   231 -5.321846581308894E-005
                   232  6.366394697397211E-005
                   233 -7.368952587947051E-004
                   234 -2.198756561045671E-006
                   235 -1.479396489344480E-006
                   236  6.648034047281611E-006
                   237 -1.181876960632295E-004
                   238 -2.264274835078629E-004
                   239  2.012387730597494E-005
                   240 -3.500230462441939E-006
                   241  2.344751633751746E-005
                   242 -2.853040652499501E-005
                   243  1.246819783541050E-004
                   244  3.089980237834212E-005
                   245  2.124947764169530E-006
                   246  1.794401776018720E-006
 Sym= __2_A__
 Ene=  0.000000000000000E+000
 Spin= Alpha
 Occup=    2.00000000000000     
                     1  6.007308691281861E-007
                     2 -9.253176209633065E-005
                     3  1.307694445659537E-003
                     4 -2.226156890769801E-005
                     5  1.188493819331927E-003
                     6  1.464523085562576E-003
                     7 -1.152477277403458E-004
                     8 -1.294349528091650E-004
                     9 -1.566503123545847E-004
                    10  1.066780360358221E-004
                    11 -4.458080466928429E-005
                    12  1.831300347806478E-004
                    13  1.517503868208690E-004
                    14  4.615998630647311E-006
                    15 -5.808439000546138E-005
                    16  1.849766348099627E-005
                    17 -5.772987841494466E-006
                    18  4.703876727425458E-005
                    19 -5.898302067850434E-007
                    20  8.655090916488102E-005
                    21 -6.823861085146562E-005
                    22  2.583391085273544E-005
                    23  1.228733286893100E-004
                    24 -6.106885244556023E-005
                    25 -5.525462140676968E-005
                    26  1.257878163237576E-004
                    27  1.347523994193356E-005
                    28 -2.683124455435548E-005
                    29 -8.632756723908297E-006
                    30  1.221431486720011E-004
                    31  3.139972524277370E-005
                    32   1.00088288111834     
                    33  8.634462948368093E-003
                    34  2.846610088654620E-003
                    35 -8.400068235493639E-003
                    36 -1.908136966060300E-003
                    37  3.303604723716129E-004
                    38  9.793994038447015E-005
                    39  1.021304717663521E-003
                    40 -1.342226045805611E-004
                    41 -2.366835333608110E-004
                    42  2.828395373807354E-003
                    43 -1.124305317184697E-004
                    44 -7.652796129743240E-005
                    45  3.097878625827174E-004
                    46  1.404388292594950E-005
                    47 -5.928164001217565E-005
                    48  3.506734319230176E-004
                    49 -3.220574172643878E-006
                    50 -9.840308409498468E-004
                    51 -2.405843496467537E-004
                    52  1.603080399178781E-004
                    53 -1.555214962693021E-004
                    54  1.481310961762662E-005
                    55 -1.452092181700896E-005
                    56  2.715175928158780E-004
                    57 -9.481248917728809E-006
                    58 -2.418009361491442E-005
                    59 -2.193483276967307E-005
                    60  6.838120585827442E-005
                    61  9.954566740168657E-006
                    62  1.506657971782766E-002
                    63 -1.684869403494826E-003
                    64 -2.866098650074047E-004
                    65  2.886568238885360E-003
                    66 -2.093213453666128E-004
                    67  8.439668788361893E-006
                    68  3.507265081224401E-004
                    69  3.224417451218234E-005
                    70 -3.231206994238787E-005
                    71  3.538633984128866E-004
                    72  4.041550927256083E-004
                    73  1.784599701035272E-004
                    74 -1.767211037495279E-003
                    75  3.551999649224622E-007
                    76  2.525246552587914E-005
                    77  4.323190174408544E-006
                    78 -4.230531863927894E-005
                    79 -2.496403514296063E-006
                    80 -4.824963581611703E-004
                    81 -3.911227625154016E-004
                    82  2.396994575962203E-005
                    83  7.958565633974180E-004
                    84  2.156986997628962E-005
                    85  3.978271232624879E-005
                    86  1.056231101325144E-004
                    87  1.682445498212660E-005
                    88 -2.220196443744288E-005
                    89 -2.161646093080878E-005
                    90 -2.481121555378236E-005
                    91  2.399671153607358E-006
                    92  1.709515129193349E-002
                    93 -1.665144621341289E-003
                    94 -3.371310052944286E-004
                    95  3.284090984585536E-003
                    96 -2.448878405818369E-004
                    97  6.305244993639248E-005
                    98 -3.399796270104308E-004
                    99 -6.877240734980447E-005
                   100  6.414903610989480E-005
                   101 -6.903478398776765E-004
                   102  1.478157222545128E-004
                   103 -1.162965922571940E-004
                   104  1.619018030191505E-003
                   105  6.090916828810024E-006
                   106 -9.740055257282677E-006
                   107  1.012382074807584E-006
                   108 -2.952289072605186E-005
                   109 -1.232476341275954E-006
                   110 -2.715465461982349E-004
                   111  4.883493156505686E-004
                   112 -3.402969859890180E-005
                   113  6.614667769737144E-004
                   114 -4.124338383843571E-005
                   115 -4.947435046282177E-005
                   116  9.190996027508376E-005
                   117 -8.766244179848681E-006
                   118  2.055608370260968E-005
                   119 -9.248860181874727E-006
                   120 -3.175993087918740E-005
                   121  2.424379055597620E-007
                   122 -1.003214494999958E-004
                   123 -7.641987545667745E-004
                   124  2.415443964406157E-004
                   125 -3.071419804451098E-004
                   126 -1.412094886047062E-004
                   127  9.841089742563340E-006
                   128 -5.417969757563029E-005
                   129  6.139998283760191E-004
                   130 -1.213073703468185E-005
                   131  7.409506593083886E-005
                   132  5.992602177050000E-004
                   133 -4.355812528332625E-005
                   134  4.149387830158983E-004
                   135  9.360096047402925E-007
                   136  3.866108491607194E-005
                   137  2.332786426449570E-006
                   138 -3.582683072546718E-005
                   139 -3.971557817857902E-006
                   140  1.957000120750509E-004
                   141 -2.693897442909981E-004
                   142 -6.771892586773997E-006
                   143 -2.403919302113856E-004
                   144  2.475507400647053E-005
                   145 -1.395560983057715E-005
                   146  1.354095915093007E-005
                   147 -2.423643063251284E-006
                   148 -6.949608344100320E-006
                   149 -3.681209300039273E-006
                   150 -2.087728027773266E-005
                   151  1.143450506703292E-006
                   152 -4.742974297460925E-005
                   153 -7.606437422707367E-004
                   154  2.428616932576725E-004
                   155 -2.477089280710297E-004
                   156 -1.166249442503261E-004
                   157 -8.442572108362823E-006
                   158  3.535037160411931E-005
                   159  5.208999942838028E-004
                   160  7.346422393464591E-006