[Molden Format]
[Atoms] AU
  N     1    7    -4.5075874400   -0.0631177000   -0.4023032300        
  C     2    6    -1.7511542200   -0.0662327400   -0.1754505900        
  C     3    6    -0.3519674000    0.2167263000   -2.3770519200        
  C     4    6    -0.4799261500   -0.2882505100    2.1224334700        
  C     5    6     2.2652879000    0.2639792400   -2.2879544800        
  C     6    6     2.1314495700   -0.2310422300    2.2027163300        
  C     7    6     3.5102819000    0.0435689700   -0.0039950600        
  H     8    1    -5.0796959400   -1.8072366600    0.3165187000        
  H     9    1    -5.1087672200    1.0769386400    1.0529590100        
  H    10    1    -1.3306061300    0.4045222600   -4.1393726600        
  H    11    1    -1.5403805100   -0.5088631200    3.8376710000        
  H    12    1     3.3270858500    0.4829612700   -4.0022539800        
  H    13    1     3.0891042300   -0.4047856600    3.9833230600        
  H    14    1     5.5377453200    0.0858714000    0.0616705500        
[5D]
[7F]
[GTO]
  1  0
   s    12 1.00
  0.114200D+05  0.172695D-04
  0.171200D+04  0.134411D-03
  0.389300D+03  0.694561D-03
  0.110000D+03  0.278531D-02
  0.355700D+02  0.863457D-02
  0.125400D+02  0.199805D-01
  0.464400D+01  0.262908D-01
  0.129300D+01 -0.243845D-01
  0.511800D+00 -0.924934D-01
  0.178700D+00 -0.339683D+00
  0.246240D-01  0.345111D+00
  0.112530D-01  0.752750D+00
   s    10 1.00
  0.114200D+05  0.523000D-03
  0.171200D+04  0.404500D-02
  0.389300D+03  0.207750D-01
  0.110000D+03  0.807269D-01
  0.355700D+02  0.233074D+00
  0.125400D+02  0.433501D+00
  0.464400D+01  0.347472D+00
  0.129300D+01  0.412620D-01
  0.511800D+00 -0.850799D-02
  0.178700D+00  0.238400D-02
   s    10 1.00
  0.114200D+05 -0.115000D-03
  0.171200D+04 -0.895000D-03
  0.389300D+03 -0.462400D-02
  0.110000D+03 -0.185280D-01
  0.355700D+02 -0.573390D-01
  0.125400D+02 -0.132076D+00
  0.464400D+01 -0.172510D+00
  0.129300D+01  0.151814D+00
  0.511800D+00  0.599944D+00
  0.178700D+00  0.387462D+00
   s     1 1.00
  0.129300D+01  0.100000D+01
   s     1 1.00
  0.178700D+00  0.100000D+01
   p     5 1.00
  0.266300D+02  0.146700D-01
  0.594800D+01  0.917640D-01
  0.174200D+01  0.298683D+00
  0.555000D+00  0.498487D+00
  0.172500D+00  0.337023D+00
   p     1 1.00
  0.174200D+01  0.100000D+01
   p     1 1.00
  0.555000D+00  0.100000D+01
   d     1 1.00
  0.165400D+01  0.100000D+01
   d     1 1.00
  0.469000D+00  0.100000D+01
   f     1 1.00
  0.109300D+01  0.100000D+01
  
  2  0
   s    10 1.00
  0.823600D+04  0.531000D-03
  0.123500D+04  0.410800D-02
  0.280800D+03  0.210870D-01
  0.792700D+02  0.818530D-01
  0.255900D+02  0.234817D+00
  0.899700D+01  0.434401D+00
  0.331900D+01  0.346129D+00
  0.905900D+00  0.393780D-01
  0.364300D+00 -0.898300D-02
  0.128500D+00  0.238500D-02
   s    10 1.00
  0.823600D+04 -0.113000D-03
  0.123500D+04 -0.878000D-03
  0.280800D+03 -0.454000D-02
  0.792700D+02 -0.181330D-01
  0.255900D+02 -0.557600D-01
  0.899700D+01 -0.126895D+00
  0.331900D+01 -0.170352D+00
  0.905900D+00  0.140382D+00
  0.364300D+00  0.598684D+00
  0.128500D+00  0.395389D+00
   s     1 1.00
  0.905900D+00  0.100000D+01
   s     1 1.00
  0.364300D+00  0.100000D+01
   p     5 1.00
  0.187100D+02  0.140310D-01
  0.413300D+01  0.868660D-01
  0.120000D+01  0.290216D+00
  0.382700D+00  0.501008D+00
  0.120900D+00  0.343406D+00
   p     1 1.00
  0.382700D+00  0.100000D+01
   p     1 1.00
  0.120900D+00  0.100000D+01
   d     1 1.00
  0.109700D+01  0.100000D+01
   d     1 1.00
  0.318000D+00  0.100000D+01
   f     1 1.00
  0.761000D+00  0.100000D+01
  
  3  0
   s    10 1.00
  0.823600D+04  0.531000D-03
  0.123500D+04  0.410800D-02
  0.280800D+03  0.210870D-01
  0.792700D+02  0.818530D-01
  0.255900D+02  0.234817D+00
  0.899700D+01  0.434401D+00
  0.331900D+01  0.346129D+00
  0.905900D+00  0.393780D-01
  0.364300D+00 -0.898300D-02
  0.128500D+00  0.238500D-02
   s    10 1.00
  0.823600D+04 -0.113000D-03
  0.123500D+04 -0.878000D-03
  0.280800D+03 -0.454000D-02
  0.792700D+02 -0.181330D-01
  0.255900D+02 -0.557600D-01
  0.899700D+01 -0.126895D+00
  0.331900D+01 -0.170352D+00
  0.905900D+00  0.140382D+00
  0.364300D+00  0.598684D+00
  0.128500D+00  0.395389D+00
   s     1 1.00
  0.905900D+00  0.100000D+01
   s     1 1.00
  0.364300D+00  0.100000D+01
   p     5 1.00
  0.187100D+02  0.140310D-01
  0.413300D+01  0.868660D-01
  0.120000D+01  0.290216D+00
  0.382700D+00  0.501008D+00
  0.120900D+00  0.343406D+00
   p     1 1.00
  0.382700D+00  0.100000D+01
   p     1 1.00
  0.120900D+00  0.100000D+01
   d     1 1.00
  0.109700D+01  0.100000D+01
   d     1 1.00
  0.318000D+00  0.100000D+01
   f     1 1.00
  0.761000D+00  0.100000D+01
  
  4  0
   s    10 1.00
  0.823600D+04  0.531000D-03
  0.123500D+04  0.410800D-02
  0.280800D+03  0.210870D-01
  0.792700D+02  0.818530D-01
  0.255900D+02  0.234817D+00
  0.899700D+01  0.434401D+00
  0.331900D+01  0.346129D+00
  0.905900D+00  0.393780D-01
  0.364300D+00 -0.898300D-02
  0.128500D+00  0.238500D-02
   s    10 1.00
  0.823600D+04 -0.113000D-03
  0.123500D+04 -0.878000D-03
  0.280800D+03 -0.454000D-02
  0.792700D+02 -0.181330D-01
  0.255900D+02 -0.557600D-01
  0.899700D+01 -0.126895D+00
  0.331900D+01 -0.170352D+00
  0.905900D+00  0.140382D+00
  0.364300D+00  0.598684D+00
  0.128500D+00  0.395389D+00
   s     1 1.00
  0.905900D+00  0.100000D+01
   s     1 1.00
  0.364300D+00  0.100000D+01
   p     5 1.00
  0.187100D+02  0.140310D-01
  0.413300D+01  0.868660D-01
  0.120000D+01  0.290216D+00
  0.382700D+00  0.501008D+00
  0.120900D+00  0.343406D+00
   p     1 1.00
  0.382700D+00  0.100000D+01
   p     1 1.00
  0.120900D+00  0.100000D+01
   d     1 1.00
  0.109700D+01  0.100000D+01
   d     1 1.00
  0.318000D+00  0.100000D+01
   f     1 1.00
  0.761000D+00  0.100000D+01
  
  5  0
   s    10 1.00
  0.823600D+04  0.531000D-03
  0.123500D+04  0.410800D-02
  0.280800D+03  0.210870D-01
  0.792700D+02  0.818530D-01
  0.255900D+02  0.234817D+00
  0.899700D+01  0.434401D+00
  0.331900D+01  0.346129D+00
  0.905900D+00  0.393780D-01
  0.364300D+00 -0.898300D-02
  0.128500D+00  0.238500D-02
   s    10 1.00
  0.823600D+04 -0.113000D-03
  0.123500D+04 -0.878000D-03
  0.280800D+03 -0.454000D-02
  0.792700D+02 -0.181330D-01
  0.255900D+02 -0.557600D-01
  0.899700D+01 -0.126895D+00
  0.331900D+01 -0.170352D+00
  0.905900D+00  0.140382D+00
  0.364300D+00  0.598684D+00
  0.128500D+00  0.395389D+00
   s     1 1.00
  0.905900D+00  0.100000D+01
   s     1 1.00
  0.364300D+00  0.100000D+01
   p     5 1.00
  0.187100D+02  0.140310D-01
  0.413300D+01  0.868660D-01
  0.120000D+01  0.290216D+00
  0.382700D+00  0.501008D+00
  0.120900D+00  0.343406D+00
   p     1 1.00
  0.382700D+00  0.100000D+01
   p     1 1.00
  0.120900D+00  0.100000D+01
   d     1 1.00
  0.109700D+01  0.100000D+01
   d     1 1.00
  0.318000D+00  0.100000D+01
   f     1 1.00
  0.761000D+00  0.100000D+01
  
  6  0
   s    10 1.00
  0.823600D+04  0.531000D-03
  0.123500D+04  0.410800D-02
  0.280800D+03  0.210870D-01
  0.792700D+02  0.818530D-01
  0.255900D+02  0.234817D+00
  0.899700D+01  0.434401D+00
  0.331900D+01  0.346129D+00
  0.905900D+00  0.393780D-01
  0.364300D+00 -0.898300D-02
  0.128500D+00  0.238500D-02
   s    10 1.00
  0.823600D+04 -0.113000D-03
  0.123500D+04 -0.878000D-03
  0.280800D+03 -0.454000D-02
  0.792700D+02 -0.181330D-01
  0.255900D+02 -0.557600D-01
  0.899700D+01 -0.126895D+00
  0.331900D+01 -0.170352D+00
  0.905900D+00  0.140382D+00
  0.364300D+00  0.598684D+00
  0.128500D+00  0.395389D+00
   s     1 1.00
  0.905900D+00  0.100000D+01
   s     1 1.00
  0.364300D+00  0.100000D+01
   p     5 1.00
  0.187100D+02  0.140310D-01
  0.413300D+01  0.868660D-01
  0.120000D+01  0.290216D+00
  0.382700D+00  0.501008D+00
  0.120900D+00  0.343406D+00
   p     1 1.00
  0.382700D+00  0.100000D+01
   p     1 1.00
  0.120900D+00  0.100000D+01
   d     1 1.00
  0.109700D+01  0.100000D+01
   d     1 1.00
  0.318000D+00  0.100000D+01
   f     1 1.00
  0.761000D+00  0.100000D+01
  
  7  0
   s    10 1.00
  0.823600D+04  0.531000D-03
  0.123500D+04  0.410800D-02
  0.280800D+03  0.210870D-01
  0.792700D+02  0.818530D-01
  0.255900D+02  0.234817D+00
  0.899700D+01  0.434401D+00
  0.331900D+01  0.346129D+00
  0.905900D+00  0.393780D-01
  0.364300D+00 -0.898300D-02
  0.128500D+00  0.238500D-02
   s    10 1.00
  0.823600D+04 -0.113000D-03
  0.123500D+04 -0.878000D-03
  0.280800D+03 -0.454000D-02
  0.792700D+02 -0.181330D-01
  0.255900D+02 -0.557600D-01
  0.899700D+01 -0.126895D+00
  0.331900D+01 -0.170352D+00
  0.905900D+00  0.140382D+00
  0.364300D+00  0.598684D+00
  0.128500D+00  0.395389D+00
   s     1 1.00
  0.905900D+00  0.100000D+01
   s     1 1.00
  0.364300D+00  0.100000D+01
   p     5 1.00
  0.187100D+02  0.140310D-01
  0.413300D+01  0.868660D-01
  0.120000D+01  0.290216D+00
  0.382700D+00  0.501008D+00
  0.120900D+00  0.343406D+00
   p     1 1.00
  0.382700D+00  0.100000D+01
   p     1 1.00
  0.120900D+00  0.100000D+01
   d     1 1.00
  0.109700D+01  0.100000D+01
   d     1 1.00
  0.318000D+00  0.100000D+01
   f     1 1.00
  0.761000D+00  0.100000D+01
  
  8  0
   s     4 1.00
  0.130100D+02  0.196850D-01
  0.196200D+01  0.137977D+00
  0.444600D+00  0.478148D+00
  0.122000D+00  0.501240D+00
   s     1 1.00
  0.122000D+00  0.100000D+01
   p     1 1.00
  0.727000D+00  0.100000D+01
  
  9  0
   s     4 1.00
  0.130100D+02  0.196850D-01
  0.196200D+01  0.137977D+00
  0.444600D+00  0.478148D+00
  0.122000D+00  0.501240D+00
   s     1 1.00
  0.122000D+00  0.100000D+01
   p     1 1.00
  0.727000D+00  0.100000D+01
  
 10  0
   s     4 1.00
  0.130100D+02  0.196850D-01
  0.196200D+01  0.137977D+00
  0.444600D+00  0.478148D+00
  0.122000D+00  0.501240D+00
   s     1 1.00
  0.122000D+00  0.100000D+01
   p     1 1.00
  0.727000D+00  0.100000D+01
  
 11  0
   s     4 1.00
  0.130100D+02  0.196850D-01
  0.196200D+01  0.137977D+00
  0.444600D+00  0.478148D+00
  0.122000D+00  0.501240D+00
   s     1 1.00
  0.122000D+00  0.100000D+01
   p     1 1.00
  0.727000D+00  0.100000D+01
  
 12  0
   s     4 1.00
  0.130100D+02  0.196850D-01
  0.196200D+01  0.137977D+00
  0.444600D+00  0.478148D+00
  0.122000D+00  0.501240D+00
   s     1 1.00
  0.122000D+00  0.100000D+01
   p     1 1.00
  0.727000D+00  0.100000D+01
  
 13  0
   s     4 1.00
  0.130100D+02  0.196850D-01
  0.196200D+01  0.137977D+00
  0.444600D+00  0.478148D+00
  0.122000D+00  0.501240D+00
   s     1 1.00
  0.122000D+00  0.100000D+01
   p     1 1.00
  0.727000D+00  0.100000D+01
  
 14  0
   s     4 1.00
  0.130100D+02  0.196850D-01
  0.196200D+01  0.137977D+00
  0.444600D+00  0.478148D+00
  0.122000D+00  0.501240D+00
   s     1 1.00
  0.122000D+00  0.100000D+01
   p     1 1.00
  0.727000D+00  0.100000D+01
  
[MO]
 Sym= __1_a__
 Ene=  0.000000000000000E+000
 Spin= Alpha
 Occup=    2.00000000000000     
                     1 -3.842156453363580E-004
                     2  0.997963339042853     
                     3 -2.595158364008650E-002
                     4  2.073256509830980E-003
                     5  5.827404791129820E-003
                     6  1.155692094787470E-002
                     7 -3.962998464349530E-003
                     8  2.100246996232830E-002
                     9 -1.269648573787840E-003
                    10  3.418624307759820E-004
                    11 -1.663584517520840E-003
                    12 -3.315261602253870E-003
                    13  1.144448645471800E-003
                    14 -5.211771035037080E-003
                    15  1.447231871993861E-004
                    16  2.941114881932660E-005
                    17 -3.800574807810770E-005
                    18  4.593136120088920E-005
                    19 -3.181594481336140E-005
                    20  5.074573658219651E-004
                    21  6.774816959335730E-004
                    22 -2.191743147360950E-004
                    23  1.343748187915724E-004
                    24 -1.839273661411010E-004
                    25  3.118831406586611E-005
                    26 -6.899570278274949E-005
                    27  1.780503527553112E-005
                    28  2.146335713129000E-005
                    29  1.986430393220240E-005
                    30  1.127969748961560E-005
                    31 -1.633222549631599E-005
                    32 -3.870383579616820E-004
                    33  2.380002422965230E-004
                    34  2.388531902853300E-004
                    35  1.221496167382640E-004
                    36  2.667656015174290E-005
                    37 -1.184130801491240E-003
                    38 -8.911576100528469E-004
                    39 -4.482608418998630E-004
                    40 -5.759822404356720E-005
                    41  4.534192494731650E-004
                    42  3.495102509137790E-003
                    43  1.936014126044210E-004
                    44 -1.598224075870110E-003
                    45 -1.088898464662748E-005
                    46 -2.493429785759230E-004
                    47  3.307613380592060E-006
                    48  2.791672378706700E-006
                    49  3.901411093506130E-005
                    50  1.026784085178800E-004
                    51  5.939576402584850E-005
                    52 -5.757462158162700E-006
                    53 -2.034590708495320E-005
                    54 -3.414612039445830E-005
                    55  9.953569183299159E-005
                    56 -7.693363359793711E-006
                    57 -1.342547056166239E-006
                    58  1.026940190592552E-004
                    59 -6.883787058488210E-006
                    60 -3.770948851761061E-005
                    61 -2.276037079545770E-005
                    62 -7.797405269714760E-004
                    63 -5.484866097978250E-004
                    64 -1.161857269966230E-004
                    65  2.798559025453820E-003
                    66 -2.488501624328260E-003
                    67 -6.677191562110000E-004
                    68  4.754414260408950E-004
                    69  6.548279469153930E-004
                    70 -4.453525253196820E-005
                    71  5.222994550067420E-004
                    72  1.067414051849860E-003
                    73  3.722695424673260E-004
                    74 -2.066283159920780E-003
                    75  6.751627593059556E-005
                    76 -5.994191541360770E-005
                    77 -3.901711406055000E-005
                    78  2.814005385500320E-005
                    79  2.054049743579530E-005
                    80  1.662113762803617E-004
                    81 -1.489030883521160E-004
                    82 -5.273701366313360E-005
                    83 -3.498306299532300E-005
                    84  3.587381124384900E-005
                    85 -2.319880731179893E-005
                    86 -1.472637909350363E-004
                    87 -1.399082646861535E-005
                    88 -4.968405778206160E-006
                    89  2.397645180740350E-005
                    90 -7.357986656492767E-005
                    91 -1.439784502721501E-006
                    92  4.034716550226040E-005
                    93 -8.384947591543680E-004
                    94  2.879200157119710E-004
                    95 -1.086130454362480E-003
                    96  2.229990213971970E-004
                    97 -5.228739550828000E-004
                    98  8.015252501519090E-004
                    99  2.029638528541590E-005
                   100 -2.242551863815100E-005
                   101  2.243379614572530E-004
                   102 -1.489644608557300E-003
                   103  1.025350865732720E-004
                   104 -2.964478350247730E-004
                   105 -5.702009156750270E-005
                   106 -3.192135476875440E-006
                   107  2.392943630661220E-005
                   108  4.851354309983920E-005
                   109  1.370807584663750E-005
                   110  2.680560647394891E-005
                   111  1.712757301157170E-004
                   112  3.623069672021170E-005
                   113 -1.691689351021112E-004
                   114 -2.151806834115370E-005
                   115 -3.440712894389228E-005
                   116  2.129969203038305E-005
                   117 -7.628101072186933E-006
                   118 -1.397815019828542E-005
                   119 -8.566958129776440E-006
                   120  8.974677457006746E-006
                   121 -4.564961131012343E-006
                   122 -2.905069675208590E-004
                   123 -1.613678554021520E-003
                   124  1.380276920227840E-004
                   125  6.456513479552470E-004
                   126  1.140390457915080E-003
                   127  2.765080757617190E-005
                   128 -1.323213593339480E-004
                   129  4.549560672197360E-004
                   130 -2.210310943803590E-005
                   131  2.972285598818020E-004
                   132  1.135663280164270E-003
                   133 -3.831372498866420E-005
                   134  7.416036736741639E-004
                   135  5.880482501187591E-005
                   136 -1.674886908550180E-005
                   137 -3.717317163554290E-006
                   138 -4.969315260720580E-005
                   139  1.021343585151610E-005
                   140  2.138145901772430E-004
                   141  1.605933587443810E-004
                   142  2.458857166327350E-006
                   143 -3.076743903300880E-004
                   144 -9.620725470639780E-006
                   145 -1.511740458369223E-005
                   146 -3.257629687550922E-005
                   147 -4.750740560168443E-006
                   148  9.389863637979239E-006
                   149 -1.508647686423500E-006
                   150 -8.155418788195839E-005
                   151  1.685302369771583E-006
                   152 -1.214915971577850E-004
                   153 -1.500350889653190E-004
                   154 -7.696136189221540E-005
                   155  7.479125290728599E-004
                   156  6.080251654916940E-005
                   157  5.020629321726710E-005
                   158  7.585196483064539E-005
                   159 -3.379654768534880E-004
                   160 -8.174395180154420E-006
                   161  4.030343091235760E-005
                   162 -2.028586745976860E-004
                   163 -8.740764252166970E-005
                   164  9.510948172345310E-004
                   165 -9.933989314649750E-006
                   166 -5.910273284777820E-006
                   167 -3.309493129163440E-006
                   168  2.456140332902280E-005
                   169  1.080350916602010E-005
                   170 -7.868853729431728E-005
                   171  1.519358043795970E-005
                   172  1.814611875462070E-005
                   173 -4.771809897557360E-005
                   174  5.124116217622610E-006
                   175 -8.180575143206364E-007
                   176 -1.055532662805552E-005
                   177  2.036160747253703E-007
                   178 -7.680465233122640E-007
                   179 -1.081313389262650E-006
                   180  9.920700207903337E-007
                   181  3.284161198373311E-007
                   182 -1.238925314827760E-004
                   183 -2.484962718946320E-004
                   184  3.001924360741830E-005
                   185  2.185563815558840E-004
                   186 -1.688984960590140E-004
                   187  2.214669614372830E-004
                   188 -9.207708503943781E-005
                   189  1.191755112177240E-004
                   190 -3.640598476199410E-005
                   191  3.719461693144610E-004
                   192 -4.472834435839940E-004
                   193 -7.450250877808910E-005
                   194  9.235282056119740E-004
                   195  1.686663508986225E-005
                   196 -8.265528347521049E-006
                   197 -1.501278538000140E-006
                   198 -8.447994304390679E-006
                   199  4.384558071826370E-007
                   200 -6.084739678280839E-005
                   201 -2.257383324730350E-004
                   202  9.354066459610800E-006
                   203  1.186342377330024E-005
                   204  2.172994856021790E-005
                   205 -1.247796136901776E-006
                   206  6.253565254170757E-006
                   207 -1.052159381436739E-006
                   208  1.322133561871032E-005
                   209 -1.941124553383320E-006
                   210 -4.509480253366219E-006
                   211 -9.140199236369758E-007
                   212 -2.936527469553210E-003
                   213  1.414510306955130E-003
                   214  1.195020474988160E-004
                   215 -1.305957074288090E-004
                   216  2.396725598507690E-004
                   217 -1.228722953751720E-003
                   218  8.995240697669010E-004
                   219  1.447944246327580E-004
                   220 -1.131642701055660E-005
                   221  2.087285390161810E-004
                   222  1.033020916536610E-003
                   223 -1.464997351009270E-003
                   224 -2.922299368409530E-005
                   225 -2.245734190002200E-005
                   226  1.047244987104350E-004
                   227  7.699394451636159E-005
                   228  7.390220271094060E-005
                   229 -4.629292037759390E-005
                   230  1.667074505334150E-006
                   231 -8.460305814616880E-005
                   232  5.873056997431290E-004
                   233 -8.296800028499921E-005
                   234  2.568239991887770E-006
                   235 -2.492938040277580E-006
                   236  3.307612819349310E-005
                   237  5.337653101982130E-005
                   238 -5.947855406998030E-004
                   239 -2.158684928016070E-005
                   240  3.036890076176380E-006
                   241 -5.084320892431520E-006
                   242 -2.313653460837140E-004
                   243  2.072416240424890E-004
                   244  3.083670385878240E-005
                   245  6.381256083147470E-006
                   246 -1.835812221628870E-006
 Sym= __2_a__
 Ene=  0.000000000000000E+000
 Spin= Alpha
 Occup=    2.00000000000000     
                     1 -3.613254333508750E-005
                     2  2.484680610703740E-005
                     3 -7.880707449553280E-004
                     4 -1.168807725313130E-005
                     5  1.082996379552520E-003
                     6  1.414251696462820E-003
                     7 -2.541668635760400E-004
                     8  9.983696583033921E-004
                     9 -1.587541723583810E-004
                    10  5.681559795394390E-005
                    11 -1.326610211603670E-004
                    12  1.683603200898660E-004
                    13  7.493238855959090E-005
                    14 -1.430938799183470E-004
                    15 -4.401408911116449E-005
                    16  2.923448290882990E-005
                    17  1.053051123903530E-006
                    18  4.913091023632000E-005
                    19 -2.678581327801960E-006
                    20  7.095628015532951E-005
                    21 -6.170487095594760E-005
                    22 -1.946881189181260E-005
                    23  9.600787407442340E-005
                    24 -1.173837255906590E-005
                    25 -3.499401430633047E-005
                    26  1.267838604994693E-004
                    27  1.314509748713889E-005
                    28 -5.984922057760460E-005
                    29 -1.094695693186620E-005
                    30  1.177233162790418E-004
                    31  9.505461271777200E-006
                    32   1.00083633086706     
                    33  8.412588813241509E-003
                    34  2.860561260011980E-003
                    35 -8.434468981290140E-003
                    36 -1.161971966044770E-003
                    37 -5.729944772507670E-005
                    38  1.261408745357690E-004
                    39  8.229650390642310E-004
                    40  3.477572006598300E-005
                    41 -4.597811717226670E-004
                    42  2.402800661330480E-003
                    43 -3.688164429702250E-005
                    44  3.970599172758860E-004
                    45  3.251993207363508E-004
                    46 -1.647251454298340E-005
                    47 -9.359372038806880E-005
                    48  3.048800063151400E-004
                    49  1.454305279985270E-005
                    50 -1.001727842067060E-003
                    51 -3.975506051985770E-004
                    52  2.026409622073470E-004
                    53 -1.356524935657506E-004
                    54  4.116605259433800E-005
                    55 -2.151094182760670E-005
                    56  2.528909183755655E-004
                    57  1.981278972584632E-006
                    58 -3.192999003762140E-005
                    59 -3.721887672801690E-005
                    60  6.461718376370848E-005
                    61  2.034675699443707E-006
                    62  1.623222106947690E-002
                    63 -1.332610367747260E-003
                    64 -2.879070217806970E-004
                    65  2.731141947385980E-003
                    66 -4.417441374833510E-004
                    67 -9.200026239208430E-005
                    68  4.830670554839320E-004
                    69  3.383465868811790E-005
                    70 -3.286967658615820E-005
                    71  2.674663135656390E-004
                    72  1.714731026751640E-004
                    73  2.255843165344700E-004
                    74 -1.756193485369050E-003
                    75  1.708533725228246E-005
                    76  2.572963445110540E-005
                    77  9.136333585683270E-007
                    78 -5.094210010438900E-005
                    79 -3.969025909325590E-006
                    80 -5.592946827292935E-004
                    81 -3.843064411698240E-004
                    82  1.263488688208450E-005
                    83  8.128644901357680E-004
                    84  7.906739584602070E-005
                    85  3.397427868811888E-005
                    86  1.056941430357603E-004
                    87  1.799790659892671E-005
                    88 -3.064771106268220E-005
                    89 -2.463109736030190E-005
                    90 -2.623692106970229E-005
                    91  6.152608932784291E-006
                    92  1.887957065553850E-002
                    93 -1.705657328650740E-003
                    94 -3.436937123399610E-004
                    95  3.404887126447740E-003
                    96 -2.880988904118430E-004
                    97  8.814591781872150E-006
                    98 -3.482379847246280E-004
                    99 -1.306969311938890E-004
                   100  8.599786789533840E-005
                   101 -8.124549579726970E-004
                   102  4.053401959581110E-004
                   103 -1.385232322823180E-004
                   104  1.496960959977750E-003
                   105  1.136900519708372E-005
                   106 -1.666775379379250E-006
                   107  1.845539161499640E-006
                   108 -2.282102480785360E-005
                   109  2.511289310055470E-008
                   110 -1.464127800655743E-004
                   111  5.301604041451660E-004
                   112 -3.099994621758260E-005
                   113  6.110709669129560E-004
                   114 -3.373203401250060E-005
                   115 -4.457501459501794E-005
                   116  8.133483533443261E-005
                   117 -1.257145941282380E-005
                   118  1.712142061821894E-005
                   119 -1.585381579326970E-005
                   120 -2.826084241892479E-005
                   121 -6.491522915926438E-007
                   122 -4.920161230443250E-005
                   123 -7.664475833785270E-004
                   124  2.457565179513530E-004
                   125 -4.319413936216360E-004
                   126 -5.240172849448930E-006
                   127  8.401091710109629E-006
                   128 -5.937895786830780E-005
                   129  6.231314365903900E-004
                   130  7.687155828497120E-006
                   131  5.850616889604150E-005
                   132  2.299220385767390E-004
                   133 -4.532432728956070E-005
                   134  4.118800537452100E-004
                   135  2.826294996407059E-006
                   136  3.454311743718200E-005
                   137  5.124265203157750E-006
                   138 -4.138149820249860E-005
                   139 -5.467167304428000E-006
                   140  1.858319501099397E-004
                   141 -3.044673344509770E-004
                   142 -1.865938475531540E-005
                   143 -2.188213466696820E-004
                   144  2.613707219529740E-005
                   145 -6.642618194920508E-006
                   146  1.085194513893323E-005
                   147 -1.590754379504800E-006
                   148  3.005436152218300E-007
                   149 -4.218875309806080E-006
                   150 -1.906909993218363E-005
                   151  1.375887988060463E-006
                   152  4.193073679911590E-005
                   153 -7.858566390521130E-004
                   154  2.277679047398180E-004
                   155 -1.241601005588150E-004
                   156 -6.400902461747041E-005
                   157 -3.429949764713400E-006
                   158  4.609073334685530E-005
                   159  4.719333243118230E-004
                   160  1.612978915560370E-005