[Molden Format]
[Atoms] AU
  N     1    7     0.0000000000   -0.0091485900   -4.2707658400        
  C     2    6     0.0000000000    0.0035729500   -1.7771667400        
  C     3    6     0.0000000000   -2.3387851900   -0.4151493300        
  C     4    6     0.0000000000    2.3394202200   -0.4147983100        
  C     5    6     0.0000000000   -2.3006828000    2.1567444000        
  C     6    6     0.0000000000    2.3029749800    2.1574505300        
  C     7    6     0.0000000000    0.0004145800    3.4674630700        
  H     8    1     0.0000000000   -1.1234668100   -4.9835888600        
  H     9    1     0.0000000000    1.6675107300   -5.2283111000        
  H    10    1     0.0000000000   -4.0711016200   -1.4529688400        
  H    11    1     0.0000000000    4.0741714500   -1.4500856900        
  H    12    1     0.0000000000   -4.0399575000    3.1924186600        
  H    13    1     0.0000000000    4.0449403900    3.1896834700        
  H    14    1     0.0000000000   -0.0000913300    5.4939014800        
[5D]
[7F]
[GTO]
  1  0
   s    12 1.00
  0.114200D+05  0.172695D-04
  0.171200D+04  0.134411D-03
  0.389300D+03  0.694561D-03
  0.110000D+03  0.278531D-02
  0.355700D+02  0.863457D-02
  0.125400D+02  0.199805D-01
  0.464400D+01  0.262908D-01
  0.129300D+01 -0.243845D-01
  0.511800D+00 -0.924934D-01
  0.178700D+00 -0.339683D+00
  0.246240D-01  0.345111D+00
  0.112530D-01  0.752750D+00
   s    10 1.00
  0.114200D+05  0.523000D-03
  0.171200D+04  0.404500D-02
  0.389300D+03  0.207750D-01
  0.110000D+03  0.807269D-01
  0.355700D+02  0.233074D+00
  0.125400D+02  0.433501D+00
  0.464400D+01  0.347472D+00
  0.129300D+01  0.412620D-01
  0.511800D+00 -0.850799D-02
  0.178700D+00  0.238400D-02
   s    10 1.00
  0.114200D+05 -0.115000D-03
  0.171200D+04 -0.895000D-03
  0.389300D+03 -0.462400D-02
  0.110000D+03 -0.185280D-01
  0.355700D+02 -0.573390D-01
  0.125400D+02 -0.132076D+00
  0.464400D+01 -0.172510D+00
  0.129300D+01  0.151814D+00
  0.511800D+00  0.599944D+00
  0.178700D+00  0.387462D+00
   s     1 1.00
  0.129300D+01  0.100000D+01
   s     1 1.00
  0.178700D+00  0.100000D+01
   p     5 1.00
  0.266300D+02  0.146700D-01
  0.594800D+01  0.917640D-01
  0.174200D+01  0.298683D+00
  0.555000D+00  0.498487D+00
  0.172500D+00  0.337023D+00
   p     1 1.00
  0.174200D+01  0.100000D+01
   p     1 1.00
  0.555000D+00  0.100000D+01
   d     1 1.00
  0.165400D+01  0.100000D+01
   d     1 1.00
  0.469000D+00  0.100000D+01
   f     1 1.00
  0.109300D+01  0.100000D+01
  
  2  0
   s    10 1.00
  0.823600D+04  0.531000D-03
  0.123500D+04  0.410800D-02
  0.280800D+03  0.210870D-01
  0.792700D+02  0.818530D-01
  0.255900D+02  0.234817D+00
  0.899700D+01  0.434401D+00
  0.331900D+01  0.346129D+00
  0.905900D+00  0.393780D-01
  0.364300D+00 -0.898300D-02
  0.128500D+00  0.238500D-02
   s    10 1.00
  0.823600D+04 -0.113000D-03
  0.123500D+04 -0.878000D-03
  0.280800D+03 -0.454000D-02
  0.792700D+02 -0.181330D-01
  0.255900D+02 -0.557600D-01
  0.899700D+01 -0.126895D+00
  0.331900D+01 -0.170352D+00
  0.905900D+00  0.140382D+00
  0.364300D+00  0.598684D+00
  0.128500D+00  0.395389D+00
   s     1 1.00
  0.905900D+00  0.100000D+01
   s     1 1.00
  0.364300D+00  0.100000D+01
   p     5 1.00
  0.187100D+02  0.140310D-01
  0.413300D+01  0.868660D-01
  0.120000D+01  0.290216D+00
  0.382700D+00  0.501008D+00
  0.120900D+00  0.343406D+00
   p     1 1.00
  0.382700D+00  0.100000D+01
   p     1 1.00
  0.120900D+00  0.100000D+01
   d     1 1.00
  0.109700D+01  0.100000D+01
   d     1 1.00
  0.318000D+00  0.100000D+01
   f     1 1.00
  0.761000D+00  0.100000D+01
  
  3  0
   s    10 1.00
  0.823600D+04  0.531000D-03
  0.123500D+04  0.410800D-02
  0.280800D+03  0.210870D-01
  0.792700D+02  0.818530D-01
  0.255900D+02  0.234817D+00
  0.899700D+01  0.434401D+00
  0.331900D+01  0.346129D+00
  0.905900D+00  0.393780D-01
  0.364300D+00 -0.898300D-02
  0.128500D+00  0.238500D-02
   s    10 1.00
  0.823600D+04 -0.113000D-03
  0.123500D+04 -0.878000D-03
  0.280800D+03 -0.454000D-02
  0.792700D+02 -0.181330D-01
  0.255900D+02 -0.557600D-01
  0.899700D+01 -0.126895D+00
  0.331900D+01 -0.170352D+00
  0.905900D+00  0.140382D+00
  0.364300D+00  0.598684D+00
  0.128500D+00  0.395389D+00
   s     1 1.00
  0.905900D+00  0.100000D+01
   s     1 1.00
  0.364300D+00  0.100000D+01
   p     5 1.00
  0.187100D+02  0.140310D-01
  0.413300D+01  0.868660D-01
  0.120000D+01  0.290216D+00
  0.382700D+00  0.501008D+00
  0.120900D+00  0.343406D+00
   p     1 1.00
  0.382700D+00  0.100000D+01
   p     1 1.00
  0.120900D+00  0.100000D+01
   d     1 1.00
  0.109700D+01  0.100000D+01
   d     1 1.00
  0.318000D+00  0.100000D+01
   f     1 1.00
  0.761000D+00  0.100000D+01
  
  4  0
   s    10 1.00
  0.823600D+04  0.531000D-03
  0.123500D+04  0.410800D-02
  0.280800D+03  0.210870D-01
  0.792700D+02  0.818530D-01
  0.255900D+02  0.234817D+00
  0.899700D+01  0.434401D+00
  0.331900D+01  0.346129D+00
  0.905900D+00  0.393780D-01
  0.364300D+00 -0.898300D-02
  0.128500D+00  0.238500D-02
   s    10 1.00
  0.823600D+04 -0.113000D-03
  0.123500D+04 -0.878000D-03
  0.280800D+03 -0.454000D-02
  0.792700D+02 -0.181330D-01
  0.255900D+02 -0.557600D-01
  0.899700D+01 -0.126895D+00
  0.331900D+01 -0.170352D+00
  0.905900D+00  0.140382D+00
  0.364300D+00  0.598684D+00
  0.128500D+00  0.395389D+00
   s     1 1.00
  0.905900D+00  0.100000D+01
   s     1 1.00
  0.364300D+00  0.100000D+01
   p     5 1.00
  0.187100D+02  0.140310D-01
  0.413300D+01  0.868660D-01
  0.120000D+01  0.290216D+00
  0.382700D+00  0.501008D+00
  0.120900D+00  0.343406D+00
   p     1 1.00
  0.382700D+00  0.100000D+01
   p     1 1.00
  0.120900D+00  0.100000D+01
   d     1 1.00
  0.109700D+01  0.100000D+01
   d     1 1.00
  0.318000D+00  0.100000D+01
   f     1 1.00
  0.761000D+00  0.100000D+01
  
  5  0
   s    10 1.00
  0.823600D+04  0.531000D-03
  0.123500D+04  0.410800D-02
  0.280800D+03  0.210870D-01
  0.792700D+02  0.818530D-01
  0.255900D+02  0.234817D+00
  0.899700D+01  0.434401D+00
  0.331900D+01  0.346129D+00
  0.905900D+00  0.393780D-01
  0.364300D+00 -0.898300D-02
  0.128500D+00  0.238500D-02
   s    10 1.00
  0.823600D+04 -0.113000D-03
  0.123500D+04 -0.878000D-03
  0.280800D+03 -0.454000D-02
  0.792700D+02 -0.181330D-01
  0.255900D+02 -0.557600D-01
  0.899700D+01 -0.126895D+00
  0.331900D+01 -0.170352D+00
  0.905900D+00  0.140382D+00
  0.364300D+00  0.598684D+00
  0.128500D+00  0.395389D+00
   s     1 1.00
  0.905900D+00  0.100000D+01
   s     1 1.00
  0.364300D+00  0.100000D+01
   p     5 1.00
  0.187100D+02  0.140310D-01
  0.413300D+01  0.868660D-01
  0.120000D+01  0.290216D+00
  0.382700D+00  0.501008D+00
  0.120900D+00  0.343406D+00
   p     1 1.00
  0.382700D+00  0.100000D+01
   p     1 1.00
  0.120900D+00  0.100000D+01
   d     1 1.00
  0.109700D+01  0.100000D+01
   d     1 1.00
  0.318000D+00  0.100000D+01
   f     1 1.00
  0.761000D+00  0.100000D+01
  
  6  0
   s    10 1.00
  0.823600D+04  0.531000D-03
  0.123500D+04  0.410800D-02
  0.280800D+03  0.210870D-01
  0.792700D+02  0.818530D-01
  0.255900D+02  0.234817D+00
  0.899700D+01  0.434401D+00
  0.331900D+01  0.346129D+00
  0.905900D+00  0.393780D-01
  0.364300D+00 -0.898300D-02
  0.128500D+00  0.238500D-02
   s    10 1.00
  0.823600D+04 -0.113000D-03
  0.123500D+04 -0.878000D-03
  0.280800D+03 -0.454000D-02
  0.792700D+02 -0.181330D-01
  0.255900D+02 -0.557600D-01
  0.899700D+01 -0.126895D+00
  0.331900D+01 -0.170352D+00
  0.905900D+00  0.140382D+00
  0.364300D+00  0.598684D+00
  0.128500D+00  0.395389D+00
   s     1 1.00
  0.905900D+00  0.100000D+01
   s     1 1.00
  0.364300D+00  0.100000D+01
   p     5 1.00
  0.187100D+02  0.140310D-01
  0.413300D+01  0.868660D-01
  0.120000D+01  0.290216D+00
  0.382700D+00  0.501008D+00
  0.120900D+00  0.343406D+00
   p     1 1.00
  0.382700D+00  0.100000D+01
   p     1 1.00
  0.120900D+00  0.100000D+01
   d     1 1.00
  0.109700D+01  0.100000D+01
   d     1 1.00
  0.318000D+00  0.100000D+01
   f     1 1.00
  0.761000D+00  0.100000D+01
  
  7  0
   s    10 1.00
  0.823600D+04  0.531000D-03
  0.123500D+04  0.410800D-02
  0.280800D+03  0.210870D-01
  0.792700D+02  0.818530D-01
  0.255900D+02  0.234817D+00
  0.899700D+01  0.434401D+00
  0.331900D+01  0.346129D+00
  0.905900D+00  0.393780D-01
  0.364300D+00 -0.898300D-02
  0.128500D+00  0.238500D-02
   s    10 1.00
  0.823600D+04 -0.113000D-03
  0.123500D+04 -0.878000D-03
  0.280800D+03 -0.454000D-02
  0.792700D+02 -0.181330D-01
  0.255900D+02 -0.557600D-01
  0.899700D+01 -0.126895D+00
  0.331900D+01 -0.170352D+00
  0.905900D+00  0.140382D+00
  0.364300D+00  0.598684D+00
  0.128500D+00  0.395389D+00
   s     1 1.00
  0.905900D+00  0.100000D+01
   s     1 1.00
  0.364300D+00  0.100000D+01
   p     5 1.00
  0.187100D+02  0.140310D-01
  0.413300D+01  0.868660D-01
  0.120000D+01  0.290216D+00
  0.382700D+00  0.501008D+00
  0.120900D+00  0.343406D+00
   p     1 1.00
  0.382700D+00  0.100000D+01
   p     1 1.00
  0.120900D+00  0.100000D+01
   d     1 1.00
  0.109700D+01  0.100000D+01
   d     1 1.00
  0.318000D+00  0.100000D+01
   f     1 1.00
  0.761000D+00  0.100000D+01
  
  8  0
   s     4 1.00
  0.130100D+02  0.196850D-01
  0.196200D+01  0.137977D+00
  0.444600D+00  0.478148D+00
  0.122000D+00  0.501240D+00
   s     1 1.00
  0.122000D+00  0.100000D+01
   p     1 1.00
  0.727000D+00  0.100000D+01
  
  9  0
   s     4 1.00
  0.130100D+02  0.196850D-01
  0.196200D+01  0.137977D+00
  0.444600D+00  0.478148D+00
  0.122000D+00  0.501240D+00
   s     1 1.00
  0.122000D+00  0.100000D+01
   p     1 1.00
  0.727000D+00  0.100000D+01
  
 10  0
   s     4 1.00
  0.130100D+02  0.196850D-01
  0.196200D+01  0.137977D+00
  0.444600D+00  0.478148D+00
  0.122000D+00  0.501240D+00
   s     1 1.00
  0.122000D+00  0.100000D+01
   p     1 1.00
  0.727000D+00  0.100000D+01
  
 11  0
   s     4 1.00
  0.130100D+02  0.196850D-01
  0.196200D+01  0.137977D+00
  0.444600D+00  0.478148D+00
  0.122000D+00  0.501240D+00
   s     1 1.00
  0.122000D+00  0.100000D+01
   p     1 1.00
  0.727000D+00  0.100000D+01
  
 12  0
   s     4 1.00
  0.130100D+02  0.196850D-01
  0.196200D+01  0.137977D+00
  0.444600D+00  0.478148D+00
  0.122000D+00  0.501240D+00
   s     1 1.00
  0.122000D+00  0.100000D+01
   p     1 1.00
  0.727000D+00  0.100000D+01
  
 13  0
   s     4 1.00
  0.130100D+02  0.196850D-01
  0.196200D+01  0.137977D+00
  0.444600D+00  0.478148D+00
  0.122000D+00  0.501240D+00
   s     1 1.00
  0.122000D+00  0.100000D+01
   p     1 1.00
  0.727000D+00  0.100000D+01
  
 14  0
   s     4 1.00
  0.130100D+02  0.196850D-01
  0.196200D+01  0.137977D+00
  0.444600D+00  0.478148D+00
  0.122000D+00  0.501240D+00
   s     1 1.00
  0.122000D+00  0.100000D+01
   p     1 1.00
  0.727000D+00  0.100000D+01
  
[MO]
 Sym= __1_A__
 Ene=  0.000000000000000E+000
 Spin= Alpha
 Occup=    2.00000000000000     
                     1  5.512591054842706E-005
                     2  0.997369198160080     
                     3  1.375038036321879E-002
                     4  2.969661475247291E-003
                     5 -7.366309253930638E-004
                     6 -3.655439731091834E-012
                     7 -1.179923369928331E-003
                     8  3.957891730889373E-003
                     9 -7.980092580276182E-012
                    10 -6.610749366446135E-004
                    11 -4.773025949614655E-004
                    12 -1.709965913118393E-012
                    13  5.711113230854300E-005
                    14  3.928248326020811E-004
                    15  2.452242446914321E-004
                    16 -4.610573696674341E-012
                    17  7.404974312492136E-004
                    18 -7.112003836817072E-004
                    19  4.240315330125377E-012
                    20  3.038989081703418E-004
                    21 -1.739826166352241E-013
                    22 -3.379113654558984E-004
                    23  5.620675107395358E-004
                    24 -3.771465376778329E-012
                    25 -4.576227016119540E-004
                    26  6.880593906968729E-013
                    27 -1.169468077084729E-004
                    28  4.674068414876082E-004
                    29  4.086330575930479E-013
                    30  3.089816882914425E-012
                    31  1.897828568875994E-004
                    32 -4.172396164610814E-004
                    33  3.256644607807879E-003
                    34  2.213299618303635E-004
                    35 -4.491571094625013E-004
                    36 -1.055918931469291E-011
                    37  3.937068617559265E-004
                    38 -8.400991095186073E-003
                    39 -5.640056268452081E-013
                    40 -7.991207410899691E-005
                    41  7.117250416205133E-004
                    42 -4.010912769887779E-012
                    43  3.931493314997136E-004
                    44  3.369504873731293E-003
                    45  3.514502798016577E-004
                    46 -9.949310965822312E-013
                    47  4.285169904827966E-005
                    48  1.714564784849853E-004
                    49  2.514862598901726E-012
                    50 -3.113058871018137E-004
                    51  3.782317384653393E-012
                    52 -7.874557674535578E-004
                    53 -6.780337441746950E-004
                    54 -7.122051392187128E-012
                    55 -2.015142872410285E-004
                    56  2.208029080381768E-012
                    57  5.094932884790022E-005
                    58  1.572603878507515E-004
                    59 -3.307779303600603E-012
                    60 -5.933676950263983E-013
                    61 -7.418232903527453E-006
                    62 -1.688811623376841E-004
                    63 -1.931196557446615E-003
                    64  1.149866547959640E-004
                    65  2.010061913541095E-005
                    66  2.022135390272915E-012
                    67 -1.131634732686941E-003
                    68  1.432790246433599E-003
                    69 -9.540021337003252E-012
                    70 -3.386844431296598E-004
                    71  7.324009132370258E-004
                    72 -8.869917072550555E-013
                    73 -2.526318813923468E-006
                    74 -2.452536230760054E-004
                    75  9.571348815963535E-005
                    76  9.982172040061245E-013
                    77 -4.825288488475236E-007
                    78  5.514897819578664E-005
                    79 -1.529189333122809E-012
                    80  5.283082806954266E-005
                    81 -1.795852140372303E-012
                    82  3.189525252018934E-004
                    83  4.132839378356260E-006
                    84 -1.225884055454140E-012
                    85 -8.908688730281839E-005
                    86 -1.283904963137154E-012
                    87 -4.346482415917992E-005
                    88  2.322342964281446E-005
                    89  2.813789240392564E-013
                    90 -2.880417003003880E-012
                    91 -3.302704823741867E-006
                    92 -1.542118023469575E-004
                    93 -1.522434700226323E-003
                    94  1.066761664392841E-005
                    95  7.624895945307609E-004
                    96 -6.866996160991256E-012
                    97  8.149544033946045E-004
                    98  1.015605968808833E-003
                    99  3.724911910530235E-012
                   100 -2.521127401217392E-004
                   101  7.266697783869738E-004
                   102  1.007477619593406E-012
                   103  2.019885587350062E-004
                   104  5.876033210540993E-004
                   105  1.211880548446829E-004
                   106  2.518047064210500E-013
                   107  4.959015996482679E-005
                   108  3.575358022270254E-005
                   109  3.286856390903450E-013
                   110 -3.538811934242957E-004
                   111 -8.604224122947543E-012
                   112 -4.134897990050883E-004
                   113 -2.127027717040034E-004
                   114 -5.719179251589886E-012
                   115 -1.355766380835404E-004
                   116  2.228888185504900E-013
                   117  5.987951572085157E-005
                   118  3.369858636525038E-005
                   119 -1.013657552549667E-012
                   120  2.064709200081961E-012
                   121 -1.183708131822663E-005
                   122 -1.259258222787830E-004
                   123  2.285758251485971E-004
                   124  1.279991495684722E-004
                   125 -8.557230239157712E-005
                   126 -8.746442854185008E-012
                   127  7.110596288765841E-005
                   128 -1.010076182758522E-003
                   129  8.968203961343397E-012
                   130 -3.208670342861859E-005
                   131  3.817175953172139E-004
                   132  2.429462682399845E-012
                   133 -2.512150378752714E-004
                   134  1.557331093834788E-004
                   135 -1.718453124378841E-005
                   136 -3.559833701735331E-012
                   137  6.181093348814537E-006
                   138  6.818397853091384E-006
                   139  1.756845714639287E-012
                   140 -1.382722168688811E-004
                   141  1.276794384515503E-012
                   142  1.382636451748118E-004
                   143  9.291305645219967E-006
                   144  4.392279465974338E-012
                   145 -3.176370894299799E-005
                   146 -7.696615890745542E-013
                   147  1.160383216053541E-005
                   148 -4.766795598312660E-006
                   149  4.220294458861190E-012
                   150  1.901996475328311E-012
                   151  1.948862536539828E-007
                   152 -1.286358495258767E-004
                   153  1.205559171902819E-004
                   154  1.239526128968198E-004
                   155  1.300891393912895E-004
                   156  9.673945136323095E-012
                   157 -4.993464904311229E-005
                   158 -8.864688707767351E-004
                   159 -7.874693542641679E-012
                   160  7.190553330324255E-005
                   161  3.352466061129493E-004
                   162  1.169713824249527E-012
                   163 -1.564271933877840E-005
                   164  9.156870493839001E-004
                   165 -2.940902506242371E-005
                   166  1.043860502731453E-012
                   167  2.619899843778863E-006
                   168  5.623554866883974E-006
                   169  2.217756435042591E-012
                   170 -1.885045733640567E-004
                   171 -9.413642720498738E-012
                   172 -2.610784180550012E-004
                   173  5.561278631215926E-006
                   174  6.164467946952017E-012
                   175 -5.603386891641698E-005
                   176  1.012875170228160E-012
                   177  2.517260628413818E-006
                   178 -9.149884346477180E-006
                   179  5.542558186186061E-012
                   180 -2.622204415606365E-012
                   181  5.051579400466203E-006
                   182 -1.075333246525284E-004
                   183 -2.709975635210734E-004
                   184  1.933614135197887E-005
                   185  1.280885989864526E-004
                   186  2.109078142162660E-012
                   187 -1.405211721656981E-005
                   188 -4.250258695666574E-005
                   189  2.810318542803496E-012
                   190 -3.681103757417743E-005
                   191 -1.898143214183747E-005
                   192 -2.700828421506826E-012
                   193 -4.340251383514610E-004
                   194  2.467402927273688E-004
                   195  2.269966491103903E-005
                   196 -4.523974267692329E-013
                   197 -9.119574155158468E-007
                   198  1.033735143215859E-005
                   199  3.970102302086303E-012
                   200  5.841783081156169E-005
                   201  1.456323632428614E-012
                   202  3.031043505501709E-005
                   203  3.247705674370092E-005
                   204  9.984408267240228E-012
                   205 -1.799971128444389E-005
                   206  8.459179839218517E-014
                   207 -2.519662161998012E-006
                   208  1.153106683525759E-005
                   209 -2.051564708436298E-012
                   210  1.344429462804988E-012
                   211 -3.932336679702255E-007
                   212  6.663282268634034E-003
                   213 -4.362656964643285E-003
                   214 -3.440735786882200E-012
                   215  1.075626202925759E-004
                   216  1.344660276848503E-004
                   217  4.466414438272498E-003
                   218 -2.391165190978341E-003
                   219 -1.621801647815306E-012
                   220 -4.075348516235011E-004
                   221  4.220352286764893E-004
                   222 -8.234165256475458E-004
                   223  2.346918401372479E-004
                   224 -2.397338368012991E-012
                   225 -4.459328041275349E-005
                   226 -2.749666474562372E-005
                   227 -9.363026122803562E-004
                   228  2.680611021888088E-004
                   229  7.083980138963206E-013
                   230  8.088811288612534E-006
                   231 -9.437075804515810E-005
                   232 -3.490151098853376E-004
                   233 -2.681437720693124E-004
                   234 -6.317372853369182E-013
                   235 -8.723063906749615E-006
                   236  9.653319989660358E-006
                   237 -2.200265164954805E-004
                   238 -3.696161962983995E-004
                   239  1.617919233828735E-012
                   240  3.577760952803579E-006
                   241  1.473399750203428E-005
                   242  7.947828341907179E-005
                   243 -2.051696827504927E-004
                   244 -2.403741215405750E-013
                   245  3.267459260566656E-006
                   246  1.008581523126879E-005
 Sym= __2_A__
 Ene=  0.000000000000000E+000
 Spin= Alpha
 Occup=    2.00000000000000     
                     1 -3.431234764500411E-005
                     2 -2.434508260470286E-004
                     3  1.693125965153460E-003
                     4  1.045042048728749E-004
                     5  1.641966975863748E-003
                     6 -1.381564396333977E-011
                     7  1.577149777511799E-004
                     8  3.054511946705852E-003
                     9  1.107171021688467E-012
                    10  3.211935335822971E-005
                    11 -3.935093890774704E-005
                    12  2.320962443220409E-012
                    13 -5.495571731188844E-005
                    14 -4.190994763891931E-004
                    15  1.802944110959268E-005
                    16  5.336736254750516E-013
                    17 -7.956047130354777E-006
                    18  6.337848517666116E-005
                    19  5.841293869135162E-012
                    20 -4.090159912126903E-004
                    21 -3.311272001758087E-012
                    22 -1.415942186150704E-004
                    23 -4.184071347622884E-004
                    24 -7.970303149428302E-012
                    25  1.613433459739758E-004
                    26  6.204279297045357E-013
                    27  4.604326568788710E-005
                    28 -9.795657127652099E-006
                    29  2.978667445633019E-012
                    30  2.694317102573723E-012
                    31  1.061926621248241E-005
                    32   1.00103505668022     
                    33  9.282097304755479E-003
                    34  2.723215183391844E-003
                    35 -7.810623814158672E-003
                    36 -4.819947799959945E-012
                    37  9.838318687529546E-006
                    38 -4.072870819413090E-003
                    39 -5.812449739173920E-012
                    40 -1.516294867275503E-005
                    41  1.012797904149772E-003
                    42 -2.284856238155994E-012
                    43 -1.362824786899179E-004
                    44  4.735195064850638E-003
                    45  4.852610245132446E-004
                    46  1.090286987795139E-012
                    47  1.692795117476004E-005
                    48 -4.381521711252066E-004
                    49 -3.172174629904109E-012
                    50  5.932559764849732E-004
                    51 -4.024080521367966E-012
                    52 -1.341882473559052E-004
                    53  9.793612869277437E-004
                    54  3.922869087776036E-012
                    55  3.908336946095260E-004
                    56 -1.236298932250616E-013
                    57 -9.258082929409389E-006
                    58 -2.179263367197004E-004
                    59 -1.190697312285240E-012
                    60 -2.996064184599103E-013
                    61 -1.528469648733171E-006
                    62  7.202024209425668E-003
                    63 -2.105020188978511E-003
                    64 -2.705636229997832E-004
                    65  3.058041360504698E-003
                    66  1.293489950035857E-012
                    67  1.218084313719827E-004
                    68 -3.824758743362393E-005
                    69  2.387855237039083E-012
                    70  5.640301501687741E-004
                    71  8.076643703275866E-006
                    72  5.691028969619224E-012
                    73 -2.273267605496368E-003
                    74  1.476240444162355E-004
                    75 -1.595655597396001E-005
                    76  8.623846661173338E-013
                    77  1.503193968117001E-005
                    78  2.853999796510494E-005
                    79 -1.680746601510770E-012
                    80  8.039616133556517E-004
                    81 -5.524320514826661E-012
                    82 -4.397724248141160E-004
                    83  9.973297556660410E-006
                    84  5.084768563195454E-012
                    85  7.851235791433568E-005
                    86  1.469271175219568E-012
                    87  5.866062833597280E-005
                    88 -1.269095046259496E-004
                    89  2.078495213443636E-012
                    90 -2.686512996825262E-013
                    91  5.161055262493218E-005
                    92  7.330411420190162E-003
                    93 -2.093887971462865E-003
                    94 -2.923174876943554E-004
                    95  3.196712894053888E-003
                    96 -3.799888035368174E-012
                    97 -1.120445040198125E-004
                    98 -5.386858202359901E-005
                    99 -2.382047530361890E-012
                   100 -6.707426328936646E-004
                   101  2.805839306798626E-005
                   102 -7.170637719624118E-012
                   103  2.159033226251906E-003
                   104 -5.066759145764322E-005
                   105 -1.528590073168840E-005
                   106  8.559854759473637E-013
                   107 -1.186732358192748E-005
                   108  2.633308799824312E-005
                   109 -4.008239684637887E-013
                   110  7.548744420849078E-004
                   111 -3.863109031082598E-012
                   112  4.309026978731535E-004
                   113 -2.164539412258696E-005
                   114 -4.457591111592975E-012
                   115  7.213378743231534E-005
                   116  1.229868012219432E-012
                   117 -4.450747397925546E-005
                   118 -1.289877457842208E-004
                   119  2.421158338887627E-012
                   120  3.415237629692448E-013
                   121 -5.078607835095357E-005
                   122 -2.491427669262727E-004
                   123 -8.155712339701102E-004
                   124  2.199796269053153E-004
                   125 -6.647431014484957E-005
                   126  4.388013703935886E-012
                   127 -2.448408582699727E-005
                   128 -2.275205818468618E-004
                   129 -2.527648355846467E-012
                   130  7.937651806849644E-006
                   131  5.382682644854721E-004
                   132 -4.975526018969405E-012
                   133  3.740598576907302E-004
                   134  8.984842816694842E-004
                   135 -1.165561051476713E-005
                   136  1.882294161352655E-012
                   137  5.301158907685349E-005
                   138  1.331477589037550E-005
                   139 -1.423837601755636E-012
                   140 -3.016251089439839E-004
                   141 -4.984612518705921E-012
                   142 -2.193408070292291E-004
                   143 -1.744837481675859E-005
                   144 -4.401972093816026E-012
                   145  2.796260553586049E-006
                   146 -2.549002882325376E-012
                   147 -4.450973731445499E-005
                   148 -4.007965079410826E-005
                   149 -4.001838559074137E-013
                   150  1.239144315285250E-013
                   151 -6.252272204094352E-006
                   152 -2.391054893900213E-004
                   153 -7.835523460417511E-004
                   154  2.294116706498096E-004
                   155 -1.080008497405013E-004
                   156  2.985049696334927E-012
                   157  1.751104748685524E-005
                   158 -2.345024675281401E-004
                   159 -7.359022255375371E-012
                   160  2.149710301420015E-005