[Molden Format]
[Atoms] AU
  N     1    7     0.0000000000   -0.0091485900   -4.2707658400        
  C     2    6     0.0000000000    0.0035729500   -1.7771667400        
  C     3    6     0.0000000000   -2.3387851900   -0.4151493300        
  C     4    6     0.0000000000    2.3394202200   -0.4147983100        
  C     5    6     0.0000000000   -2.3006828000    2.1567444000        
  C     6    6     0.0000000000    2.3029749800    2.1574505300        
  C     7    6     0.0000000000    0.0004145800    3.4674630700        
  H     8    1     0.0000000000   -1.1234668100   -4.9835888600        
  H     9    1     0.0000000000    1.6675107300   -5.2283111000        
  H    10    1     0.0000000000   -4.0711016200   -1.4529688400        
  H    11    1     0.0000000000    4.0741714500   -1.4500856900        
  H    12    1     0.0000000000   -4.0399575000    3.1924186600        
  H    13    1     0.0000000000    4.0449403900    3.1896834700        
  H    14    1     0.0000000000   -0.0000913300    5.4939014800        
[5D]
[7F]
[GTO]
  1  0
   s    12 1.00
  0.114200D+05  0.172695D-04
  0.171200D+04  0.134411D-03
  0.389300D+03  0.694561D-03
  0.110000D+03  0.278531D-02
  0.355700D+02  0.863457D-02
  0.125400D+02  0.199805D-01
  0.464400D+01  0.262908D-01
  0.129300D+01 -0.243845D-01
  0.511800D+00 -0.924934D-01
  0.178700D+00 -0.339683D+00
  0.246240D-01  0.345111D+00
  0.112530D-01  0.752750D+00
   s    10 1.00
  0.114200D+05  0.523000D-03
  0.171200D+04  0.404500D-02
  0.389300D+03  0.207750D-01
  0.110000D+03  0.807269D-01
  0.355700D+02  0.233074D+00
  0.125400D+02  0.433501D+00
  0.464400D+01  0.347472D+00
  0.129300D+01  0.412620D-01
  0.511800D+00 -0.850799D-02
  0.178700D+00  0.238400D-02
   s    10 1.00
  0.114200D+05 -0.115000D-03
  0.171200D+04 -0.895000D-03
  0.389300D+03 -0.462400D-02
  0.110000D+03 -0.185280D-01
  0.355700D+02 -0.573390D-01
  0.125400D+02 -0.132076D+00
  0.464400D+01 -0.172510D+00
  0.129300D+01  0.151814D+00
  0.511800D+00  0.599944D+00
  0.178700D+00  0.387462D+00
   s     1 1.00
  0.129300D+01  0.100000D+01
   s     1 1.00
  0.178700D+00  0.100000D+01
   p     5 1.00
  0.266300D+02  0.146700D-01
  0.594800D+01  0.917640D-01
  0.174200D+01  0.298683D+00
  0.555000D+00  0.498487D+00
  0.172500D+00  0.337023D+00
   p     1 1.00
  0.174200D+01  0.100000D+01
   p     1 1.00
  0.555000D+00  0.100000D+01
   d     1 1.00
  0.165400D+01  0.100000D+01
   d     1 1.00
  0.469000D+00  0.100000D+01
   f     1 1.00
  0.109300D+01  0.100000D+01
  
  2  0
   s    10 1.00
  0.823600D+04  0.531000D-03
  0.123500D+04  0.410800D-02
  0.280800D+03  0.210870D-01
  0.792700D+02  0.818530D-01
  0.255900D+02  0.234817D+00
  0.899700D+01  0.434401D+00
  0.331900D+01  0.346129D+00
  0.905900D+00  0.393780D-01
  0.364300D+00 -0.898300D-02
  0.128500D+00  0.238500D-02
   s    10 1.00
  0.823600D+04 -0.113000D-03
  0.123500D+04 -0.878000D-03
  0.280800D+03 -0.454000D-02
  0.792700D+02 -0.181330D-01
  0.255900D+02 -0.557600D-01
  0.899700D+01 -0.126895D+00
  0.331900D+01 -0.170352D+00
  0.905900D+00  0.140382D+00
  0.364300D+00  0.598684D+00
  0.128500D+00  0.395389D+00
   s     1 1.00
  0.905900D+00  0.100000D+01
   s     1 1.00
  0.364300D+00  0.100000D+01
   p     5 1.00
  0.187100D+02  0.140310D-01
  0.413300D+01  0.868660D-01
  0.120000D+01  0.290216D+00
  0.382700D+00  0.501008D+00
  0.120900D+00  0.343406D+00
   p     1 1.00
  0.382700D+00  0.100000D+01
   p     1 1.00
  0.120900D+00  0.100000D+01
   d     1 1.00
  0.109700D+01  0.100000D+01
   d     1 1.00
  0.318000D+00  0.100000D+01
   f     1 1.00
  0.761000D+00  0.100000D+01
  
  3  0
   s    10 1.00
  0.823600D+04  0.531000D-03
  0.123500D+04  0.410800D-02
  0.280800D+03  0.210870D-01
  0.792700D+02  0.818530D-01
  0.255900D+02  0.234817D+00
  0.899700D+01  0.434401D+00
  0.331900D+01  0.346129D+00
  0.905900D+00  0.393780D-01
  0.364300D+00 -0.898300D-02
  0.128500D+00  0.238500D-02
   s    10 1.00
  0.823600D+04 -0.113000D-03
  0.123500D+04 -0.878000D-03
  0.280800D+03 -0.454000D-02
  0.792700D+02 -0.181330D-01
  0.255900D+02 -0.557600D-01
  0.899700D+01 -0.126895D+00
  0.331900D+01 -0.170352D+00
  0.905900D+00  0.140382D+00
  0.364300D+00  0.598684D+00
  0.128500D+00  0.395389D+00
   s     1 1.00
  0.905900D+00  0.100000D+01
   s     1 1.00
  0.364300D+00  0.100000D+01
   p     5 1.00
  0.187100D+02  0.140310D-01
  0.413300D+01  0.868660D-01
  0.120000D+01  0.290216D+00
  0.382700D+00  0.501008D+00
  0.120900D+00  0.343406D+00
   p     1 1.00
  0.382700D+00  0.100000D+01
   p     1 1.00
  0.120900D+00  0.100000D+01
   d     1 1.00
  0.109700D+01  0.100000D+01
   d     1 1.00
  0.318000D+00  0.100000D+01
   f     1 1.00
  0.761000D+00  0.100000D+01
  
  4  0
   s    10 1.00
  0.823600D+04  0.531000D-03
  0.123500D+04  0.410800D-02
  0.280800D+03  0.210870D-01
  0.792700D+02  0.818530D-01
  0.255900D+02  0.234817D+00
  0.899700D+01  0.434401D+00
  0.331900D+01  0.346129D+00
  0.905900D+00  0.393780D-01
  0.364300D+00 -0.898300D-02
  0.128500D+00  0.238500D-02
   s    10 1.00
  0.823600D+04 -0.113000D-03
  0.123500D+04 -0.878000D-03
  0.280800D+03 -0.454000D-02
  0.792700D+02 -0.181330D-01
  0.255900D+02 -0.557600D-01
  0.899700D+01 -0.126895D+00
  0.331900D+01 -0.170352D+00
  0.905900D+00  0.140382D+00
  0.364300D+00  0.598684D+00
  0.128500D+00  0.395389D+00
   s     1 1.00
  0.905900D+00  0.100000D+01
   s     1 1.00
  0.364300D+00  0.100000D+01
   p     5 1.00
  0.187100D+02  0.140310D-01
  0.413300D+01  0.868660D-01
  0.120000D+01  0.290216D+00
  0.382700D+00  0.501008D+00
  0.120900D+00  0.343406D+00
   p     1 1.00
  0.382700D+00  0.100000D+01
   p     1 1.00
  0.120900D+00  0.100000D+01
   d     1 1.00
  0.109700D+01  0.100000D+01
   d     1 1.00
  0.318000D+00  0.100000D+01
   f     1 1.00
  0.761000D+00  0.100000D+01
  
  5  0
   s    10 1.00
  0.823600D+04  0.531000D-03
  0.123500D+04  0.410800D-02
  0.280800D+03  0.210870D-01
  0.792700D+02  0.818530D-01
  0.255900D+02  0.234817D+00
  0.899700D+01  0.434401D+00
  0.331900D+01  0.346129D+00
  0.905900D+00  0.393780D-01
  0.364300D+00 -0.898300D-02
  0.128500D+00  0.238500D-02
   s    10 1.00
  0.823600D+04 -0.113000D-03
  0.123500D+04 -0.878000D-03
  0.280800D+03 -0.454000D-02
  0.792700D+02 -0.181330D-01
  0.255900D+02 -0.557600D-01
  0.899700D+01 -0.126895D+00
  0.331900D+01 -0.170352D+00
  0.905900D+00  0.140382D+00
  0.364300D+00  0.598684D+00
  0.128500D+00  0.395389D+00
   s     1 1.00
  0.905900D+00  0.100000D+01
   s     1 1.00
  0.364300D+00  0.100000D+01
   p     5 1.00
  0.187100D+02  0.140310D-01
  0.413300D+01  0.868660D-01
  0.120000D+01  0.290216D+00
  0.382700D+00  0.501008D+00
  0.120900D+00  0.343406D+00
   p     1 1.00
  0.382700D+00  0.100000D+01
   p     1 1.00
  0.120900D+00  0.100000D+01
   d     1 1.00
  0.109700D+01  0.100000D+01
   d     1 1.00
  0.318000D+00  0.100000D+01
   f     1 1.00
  0.761000D+00  0.100000D+01
  
  6  0
   s    10 1.00
  0.823600D+04  0.531000D-03
  0.123500D+04  0.410800D-02
  0.280800D+03  0.210870D-01
  0.792700D+02  0.818530D-01
  0.255900D+02  0.234817D+00
  0.899700D+01  0.434401D+00
  0.331900D+01  0.346129D+00
  0.905900D+00  0.393780D-01
  0.364300D+00 -0.898300D-02
  0.128500D+00  0.238500D-02
   s    10 1.00
  0.823600D+04 -0.113000D-03
  0.123500D+04 -0.878000D-03
  0.280800D+03 -0.454000D-02
  0.792700D+02 -0.181330D-01
  0.255900D+02 -0.557600D-01
  0.899700D+01 -0.126895D+00
  0.331900D+01 -0.170352D+00
  0.905900D+00  0.140382D+00
  0.364300D+00  0.598684D+00
  0.128500D+00  0.395389D+00
   s     1 1.00
  0.905900D+00  0.100000D+01
   s     1 1.00
  0.364300D+00  0.100000D+01
   p     5 1.00
  0.187100D+02  0.140310D-01
  0.413300D+01  0.868660D-01
  0.120000D+01  0.290216D+00
  0.382700D+00  0.501008D+00
  0.120900D+00  0.343406D+00
   p     1 1.00
  0.382700D+00  0.100000D+01
   p     1 1.00
  0.120900D+00  0.100000D+01
   d     1 1.00
  0.109700D+01  0.100000D+01
   d     1 1.00
  0.318000D+00  0.100000D+01
   f     1 1.00
  0.761000D+00  0.100000D+01
  
  7  0
   s    10 1.00
  0.823600D+04  0.531000D-03
  0.123500D+04  0.410800D-02
  0.280800D+03  0.210870D-01
  0.792700D+02  0.818530D-01
  0.255900D+02  0.234817D+00
  0.899700D+01  0.434401D+00
  0.331900D+01  0.346129D+00
  0.905900D+00  0.393780D-01
  0.364300D+00 -0.898300D-02
  0.128500D+00  0.238500D-02
   s    10 1.00
  0.823600D+04 -0.113000D-03
  0.123500D+04 -0.878000D-03
  0.280800D+03 -0.454000D-02
  0.792700D+02 -0.181330D-01
  0.255900D+02 -0.557600D-01
  0.899700D+01 -0.126895D+00
  0.331900D+01 -0.170352D+00
  0.905900D+00  0.140382D+00
  0.364300D+00  0.598684D+00
  0.128500D+00  0.395389D+00
   s     1 1.00
  0.905900D+00  0.100000D+01
   s     1 1.00
  0.364300D+00  0.100000D+01
   p     5 1.00
  0.187100D+02  0.140310D-01
  0.413300D+01  0.868660D-01
  0.120000D+01  0.290216D+00
  0.382700D+00  0.501008D+00
  0.120900D+00  0.343406D+00
   p     1 1.00
  0.382700D+00  0.100000D+01
   p     1 1.00
  0.120900D+00  0.100000D+01
   d     1 1.00
  0.109700D+01  0.100000D+01
   d     1 1.00
  0.318000D+00  0.100000D+01
   f     1 1.00
  0.761000D+00  0.100000D+01
  
  8  0
   s     4 1.00
  0.130100D+02  0.196850D-01
  0.196200D+01  0.137977D+00
  0.444600D+00  0.478148D+00
  0.122000D+00  0.501240D+00
   s     1 1.00
  0.122000D+00  0.100000D+01
   p     1 1.00
  0.727000D+00  0.100000D+01
  
  9  0
   s     4 1.00
  0.130100D+02  0.196850D-01
  0.196200D+01  0.137977D+00
  0.444600D+00  0.478148D+00
  0.122000D+00  0.501240D+00
   s     1 1.00
  0.122000D+00  0.100000D+01
   p     1 1.00
  0.727000D+00  0.100000D+01
  
 10  0
   s     4 1.00
  0.130100D+02  0.196850D-01
  0.196200D+01  0.137977D+00
  0.444600D+00  0.478148D+00
  0.122000D+00  0.501240D+00
   s     1 1.00
  0.122000D+00  0.100000D+01
   p     1 1.00
  0.727000D+00  0.100000D+01
  
 11  0
   s     4 1.00
  0.130100D+02  0.196850D-01
  0.196200D+01  0.137977D+00
  0.444600D+00  0.478148D+00
  0.122000D+00  0.501240D+00
   s     1 1.00
  0.122000D+00  0.100000D+01
   p     1 1.00
  0.727000D+00  0.100000D+01
  
 12  0
   s     4 1.00
  0.130100D+02  0.196850D-01
  0.196200D+01  0.137977D+00
  0.444600D+00  0.478148D+00
  0.122000D+00  0.501240D+00
   s     1 1.00
  0.122000D+00  0.100000D+01
   p     1 1.00
  0.727000D+00  0.100000D+01
  
 13  0
   s     4 1.00
  0.130100D+02  0.196850D-01
  0.196200D+01  0.137977D+00
  0.444600D+00  0.478148D+00
  0.122000D+00  0.501240D+00
   s     1 1.00
  0.122000D+00  0.100000D+01
   p     1 1.00
  0.727000D+00  0.100000D+01
  
 14  0
   s     4 1.00
  0.130100D+02  0.196850D-01
  0.196200D+01  0.137977D+00
  0.444600D+00  0.478148D+00
  0.122000D+00  0.501240D+00
   s     1 1.00
  0.122000D+00  0.100000D+01
   p     1 1.00
  0.727000D+00  0.100000D+01
  
[MO]
 Sym= __1_A__
 Ene=   1.00000000000000     
 Spin= Alpha
 Occup=    1.00000000000000     
                     1  5.512591044863838E-005
                     2  0.997369198160529     
                     3  1.375038036150970E-002
                     4  2.969661475391176E-003
                     5 -7.366309222579788E-004
                     6 -3.655439713126970E-012
                     7 -1.179923369207689E-003
                     8  3.957891731046170E-003
                     9 -7.980092580494174E-012
                    10 -6.610749366133284E-004
                    11 -4.773025950732233E-004
                    12 -1.709965913372729E-012
                    13  5.711113219183710E-005
                    14  3.928248327437126E-004
                    15  2.452242446403238E-004
                    16 -4.610573696446981E-012
                    17  7.404974313214005E-004
                    18 -7.112003836096833E-004
                    19  4.240315330047141E-012
                    20  3.038989076993141E-004
                    21 -1.739826164966167E-013
                    22 -3.379113651110697E-004
                    23  5.620675106588568E-004
                    24 -3.771465376338713E-012
                    25 -4.576227015324548E-004
                    26  6.880593908863718E-013
                    27 -1.169468076308478E-004
                    28  4.674068415190794E-004
                    29  4.086330575519425E-013
                    30  3.089816882747777E-012
                    31  1.897828568814191E-004
                    32 -4.172396098001533E-004
                    33  3.256644574083980E-003
                    34  2.213299621743416E-004
                    35 -4.491571072479336E-004
                    36 -1.055918930423549E-011
                    37  3.937068733382073E-004
                    38 -8.400991107146991E-003
                    39 -5.640056282917275E-013
                    40 -7.991207500097798E-005
                    41  7.117250416434716E-004
                    42 -4.010912769985387E-012
                    43  3.931493269237621E-004
                    44  3.369504873139771E-003
                    45  3.514502803069426E-004
                    46 -9.949310969719918E-013
                    47  4.285169934431543E-005
                    48  1.714564793469778E-004
                    49  2.514862598927179E-012
                    50 -3.113058877227348E-004
                    51  3.782317383317125E-012
                    52 -7.874557669140576E-004
                    53 -6.780337432121276E-004
                    54 -7.122051392503380E-012
                    55 -2.015142875792532E-004
                    56  2.208029080749744E-012
                    57  5.094932886206803E-005
                    58  1.572603882474585E-004
                    59 -3.307779303739446E-012
                    60 -5.933676954225210E-013
                    61 -7.418233008195649E-006
                    62 -1.688811607196036E-004
                    63 -1.931196579658706E-003
                    64  1.149866551206270E-004
                    65  2.010061954711680E-005
                    66  2.022135389380353E-012
                    67 -1.131634741235996E-003
                    68  1.432790272914683E-003
                    69 -9.540021336965086E-012
                    70 -3.386844431727449E-004
                    71  7.324009098584738E-004
                    72 -8.869917088332336E-013
                    73 -2.526313548702371E-006
                    74 -2.452536291110389E-004
                    75  9.571348867986935E-005
                    76  9.982172039886570E-013
                    77 -4.825285576839405E-007
                    78  5.514897894877224E-005
                    79 -1.529189332727678E-012
                    80  5.283082716674357E-005
                    81 -1.795852140786589E-012
                    82  3.189525272301357E-004
                    83  4.132839347075118E-006
                    84 -1.225884054969375E-012
                    85 -8.908688713156010E-005
                    86 -1.283904962550440E-012
                    87 -4.346482421960248E-005
                    88  2.322342928639966E-005
                    89  2.813789236418718E-013
                    90 -2.880417002781678E-012
                    91 -3.302704692793465E-006
                    92 -1.542118015245606E-004
                    93 -1.522434702622763E-003
                    94  1.066761667588833E-005
                    95  7.624895935239597E-004
                    96 -6.866996160278120E-012
                    97  8.149544050121824E-004
                    98  1.015605987543056E-003
                    99  3.724911911806643E-012
                   100 -2.521127402016348E-004
                   101  7.266697758574740E-004
                   102  1.007477619328969E-012
                   103  2.019885540117086E-004
                   104  5.876033151276472E-004
                   105  1.211880554346108E-004
                   106  2.518047062311225E-013
                   107  4.959015993070275E-005
                   108  3.575358064259446E-005
                   109  3.286856389565884E-013
                   110 -3.538811936627613E-004
                   111 -8.604224123420647E-012
                   112 -4.134897999676779E-004
                   113 -2.127027717619558E-004
                   114 -5.719179252460103E-012
                   115 -1.355766381020089E-004
                   116  2.228888185471834E-013
                   117  5.987951570271738E-005
                   118  3.369858622316144E-005
                   119 -1.013657552296286E-012
                   120  2.064709200347981E-012
                   121 -1.183708134967822E-005
                   122 -1.259258216706609E-004
                   123  2.285758373738748E-004
                   124  1.279991490755480E-004
                   125 -8.557230196152570E-005
                   126 -8.746442857056526E-012
                   127  7.110596092639549E-005
                   128 -1.010076193233172E-003
                   129  8.968203959873827E-012
                   130 -3.208670378511413E-005
                   131  3.817175949990886E-004
                   132  2.429462683152375E-012
                   133 -2.512150384476666E-004
                   134  1.557331086245883E-004
                   135 -1.718453089036008E-005
                   136 -3.559833701219363E-012
                   137  6.181093398544081E-006
                   138  6.818397803399888E-006
                   139  1.756845714669168E-012
                   140 -1.382722158235473E-004
                   141  1.276794384082453E-012
                   142  1.382636461531179E-004
                   143  9.291305938020853E-006
                   144  4.392279465936253E-012
                   145 -3.176370868632136E-005
                   146 -7.696615893970995E-013
                   147  1.160383205454493E-005
                   148 -4.766795666319680E-006
                   149  4.220294458600075E-012
                   150  1.901996475273704E-012
                   151  1.948862374990362E-007
                   152 -1.286358489793999E-004
                   153  1.205559322429161E-004
                   154  1.239526124740806E-004
                   155  1.300891388828448E-004
                   156  9.673945137630897E-012
                   157 -4.993464871319940E-005
                   158 -8.864688820507820E-004
                   159 -7.874693541841897E-012
                   160  7.190553329244864E-005
                   161  3.352466063388096E-004
                   162  1.169713823546519E-012
                   163 -1.564271853726964E-005
                   164  9.156870493011696E-004
                   165 -2.940902464426037E-005
                   166  1.043860502597835E-012
                   167  2.619899824154209E-006
                   168  5.623554806728676E-006
                   169  2.217756434995344E-012
                   170 -1.885045723198795E-004
                   171 -9.413642720627150E-012
                   172 -2.610784187711015E-004
                   173  5.561278818850524E-006
                   174  6.164467947431445E-012
                   175 -5.603386863785629E-005
                   176  1.012875170133645E-012
                   177  2.517260670756801E-006
                   178 -9.149884409305488E-006
                   179  5.542558186286380E-012
                   180 -2.622204415804086E-012
                   181  5.051579423619462E-006
                   182 -1.075333244881364E-004
                   183 -2.709975650331803E-004
                   184  1.933614140501194E-005
                   185  1.280885980675552E-004
                   186  2.109078141012113E-012
                   187 -1.405211618420292E-005
                   188 -4.250258974414078E-005
                   189  2.810318543259827E-012
                   190 -3.681103773345094E-005
                   191 -1.898143215514388E-005
                   192 -2.700828421175072E-012
                   193 -4.340251389630776E-004
                   194  2.467402941540658E-004
                   195  2.269966499819645E-005
                   196 -4.523974268312397E-013
                   197 -9.119574627362573E-007
                   198  1.033735150348048E-005
                   199  3.970102302146549E-012
                   200  5.841783137133317E-005
                   201  1.456323632334199E-012
                   202  3.031043510944933E-005
                   203  3.247705725958332E-005
                   204  9.984408267491056E-012
                   205 -1.799971119404280E-005
                   206  8.459179836294864E-014
                   207 -2.519662153660899E-006
                   208  1.153106678910348E-005
                   209 -2.051564708561351E-012
                   210  1.344429462912989E-012
                   211 -3.932336696880436E-007
                   212  6.663282267124706E-003
                   213 -4.362656964767088E-003
                   214 -3.440735785705454E-012
                   215  1.075626202775780E-004
                   216  1.344660275547355E-004
                   217  4.466414436570048E-003
                   218 -2.391165191654449E-003
                   219 -1.621801647405851E-012
                   220 -4.075348516034873E-004
                   221  4.220352286444553E-004
                   222 -8.234165423869490E-004
                   223  2.346918488554574E-004
                   224 -2.397338368221346E-012
                   225 -4.459328155802676E-005
                   226 -2.749666502949335E-005
                   227 -9.363026229521860E-004
                   228  2.680611072296883E-004
                   229  7.083980140524573E-013
                   230  8.088811869387242E-006
                   231 -9.437075814466431E-005
                   232 -3.490151087376460E-004
                   233 -2.681437730467708E-004
                   234 -6.317372855017557E-013
                   235 -8.723063864863746E-006
                   236  9.653319774843768E-006
                   237 -2.200265154852134E-004
                   238 -3.696161970391086E-004
                   239  1.617919233958639E-012
                   240  3.577760868571800E-006
                   241  1.473399729185500E-005
                   242  7.947828098686851E-005
                   243 -2.051696807749457E-004
                   244 -2.403741215343603E-013
                   245  3.267459266792780E-006
                   246  1.008581535079811E-005
 Sym= __2_A__
 Ene=   2.00000000000000     
 Spin= Alpha
 Occup=    1.00000000000000     
                     1 -3.431234766758327E-005
                     2 -2.434508317793592E-004
                     3  1.693125964672127E-003
                     4  1.045042048841779E-004
                     5  1.641966976551660E-003
                     6 -1.381564395837934E-011
                     7  1.577149779004275E-004
                     8  3.054511946713020E-003
                     9  1.107171021438047E-012
                    10  3.211935338480970E-005
                    11 -3.935093894107083E-005
                    12  2.320962443020773E-012
                    13 -5.495571737282121E-005
                    14 -4.190994763749897E-004
                    15  1.802944109796870E-005
                    16  5.336736254044001E-013
                    17 -7.956047104104115E-006
                    18  6.337848519557462E-005
                    19  5.841293869416206E-012
                    20 -4.090159913157102E-004
                    21 -3.311272001454724E-012
                    22 -1.415942185524641E-004
                    23 -4.184071348018902E-004
                    24 -7.970303149577618E-012
                    25  1.613433459897280E-004
                    26  6.204279298125213E-013
                    27  4.604326570348784E-005
                    28 -9.795657122724411E-006
                    29  2.978667445827032E-012
                    30  2.694317102379485E-012
                    31  1.061926620848127E-005
                    32   1.00103505668044     
                    33  9.282097297240617E-003
                    34  2.723215183470522E-003
                    35 -7.810623813780533E-003
                    36 -4.819947797429904E-012
                    37  9.838322423041206E-006
                    38 -4.072870822231334E-003
                    39 -5.812449739274597E-012
                    40 -1.516294865103972E-005
                    41  1.012797904201629E-003
                    42 -2.284856238354515E-012
                    43 -1.362824796834224E-004
                    44  4.735195064812431E-003
                    45  4.852610245952856E-004
                    46  1.090286987692576E-012
                    47  1.692795128184127E-005
                    48 -4.381521709468438E-004
                    49 -3.172174630163905E-012
                    50  5.932559763882953E-004
                    51 -4.024080521327432E-012
                    52 -1.341882472163421E-004
                    53  9.793612871611499E-004
                    54  3.922869087940261E-012
                    55  3.908336945314699E-004
                    56 -1.236298932864477E-013
                    57 -9.258082918818852E-006
                    58 -2.179263366298322E-004
                    59 -1.190697312140887E-012
                    60 -2.996064182696171E-013
                    61 -1.528469671228827E-006
                    62  7.202024130277766E-003
                    63 -2.105020193083313E-003
                    64 -2.705636231849713E-004
                    65  3.058041361196329E-003
                    66  1.293489950413417E-012
                    67  1.218084272231393E-004
                    68 -3.824758233416857E-005
                    69  2.387855236433311E-012
                    70  5.640301504818614E-004
                    71  8.076643120143423E-006
                    72  5.691028968505893E-012
                    73 -2.273267604168854E-003
                    74  1.476240430423360E-004
                    75 -1.595655589266124E-005
                    76  8.623846660512751E-013
                    77  1.503193982936895E-005
                    78  2.853999812903256E-005
                    79 -1.680746601392967E-012
                    80  8.039616132948647E-004
                    81 -5.524320515561506E-012
                    82 -4.397724246149937E-004
                    83  9.973297611015114E-006
                    84  5.084768563187096E-012
                    85  7.851235796110803E-005
                    86  1.469271175034301E-012
                    87  5.866062832598735E-005
                    88 -1.269095047105175E-004
                    89  2.078495213590830E-012
                    90 -2.686512996136497E-013
                    91  5.161055265406195E-005
                    92  7.330411497822249E-003
                    93 -2.093887972321358E-003
                    94 -2.923174874567110E-004
                    95  3.196712893283092E-003
                    96 -3.799888035461962E-012
                    97 -1.120445043517836E-004
                    98 -5.386857954679844E-005
                    99 -2.382047530365770E-012
                   100 -6.707426326991460E-004
                   101  2.805839260952723E-005
                   102 -7.170637718996168E-012
                   103  2.159033225211127E-003
                   104 -5.066759218096276E-005
                   105 -1.528590062517808E-005
                   106  8.559854759439149E-013
                   107 -1.186732355682634E-005
                   108  2.633308806251316E-005
                   109 -4.008239684661040E-013
                   110  7.548744419661526E-004
                   111 -3.863109031145832E-012
                   112  4.309026976341033E-004
                   113 -2.164539410181998E-005
                   114 -4.457591111675306E-012
                   115  7.213378743906448E-005
                   116  1.229868012136287E-012
                   117 -4.450747398684103E-005
                   118 -1.289877457980560E-004
                   119  2.421158338848317E-012
                   120  3.415237629658384E-013
                   121 -5.078607836677076E-005
                   122 -2.491427662932313E-004
                   123 -8.155712316673752E-004
                   124  2.199796268467764E-004
                   125 -6.647431041111597E-005
                   126  4.388013703231616E-012
                   127 -2.448408530554577E-005
                   128 -2.275205842037883E-004
                   129 -2.527648355167593E-012
                   130  7.937651640949211E-006
                   131  5.382682645201947E-004
                   132 -4.975526018180210E-012
                   133  3.740598577438390E-004
                   134  8.984842813639110E-004
                   135 -1.165561042741649E-005
                   136  1.882294161535509E-012
                   137  5.301158915980711E-005
                   138  1.331477589370013E-005
                   139 -1.423837601852894E-012
                   140 -3.016251088069104E-004
                   141 -4.984612519306280E-012
                   142 -2.193408069710226E-004
                   143 -1.744837477598679E-005
                   144 -4.401972093782152E-012
                   145  2.796260609713698E-006
                   146 -2.549002882096201E-012
                   147 -4.450973734597044E-005
                   148 -4.007965080028106E-005
                   149 -4.001838559060841E-013
                   150  1.239144314212364E-013
                   151 -6.252272208090630E-006
                   152 -2.391054827279821E-004
                   153 -7.835523448112782E-004
                   154  2.294116705711264E-004
                   155 -1.080008496542011E-004
                   156  2.985049696911360E-012
                   157  1.751104775352710E-005
                   158 -2.345024689404834E-004
                   159 -7.359022255449193E-012
                   160  2.149710306432792E-005