[Molden Format]
[Atoms] AU
  N     1    7     0.0000000000   -4.2907334100    0.0000000000        
  C     2    6     0.0000000000   -1.7772236300    0.0000000000        
  C     3    6    -2.3389203600   -0.4111016300    0.0000000000        
  C     4    6     2.3389203600   -0.4111016300    0.0000000000        
  C     5    6    -2.2998668500    2.1639215300    0.0000000000        
  C     6    6     2.2998668500    2.1639215300    0.0000000000        
  C     7    6     0.0000000000    3.4755251800    0.0000000000        
  H     8    1    -3.0557711500   -6.1758877400    0.0000000000        
  H     9    1     1.6528040300   -5.3103747800    0.0000000000        
  H    10    1    -4.0745407300   -1.4447408500    0.0000000000        
  H    11    1     4.0745407300   -1.4447408500    0.0000000000        
  H    12    1    -4.0420632100    3.1963889500    0.0000000000        
  H    13    1     4.0420632100    3.1963889500    0.0000000000        
  H    14    1     0.0000000000    5.5020335600    0.0000000000        
[5D]
[7F]
[GTO]
  1  0
   s    12 1.00
  0.114200D+05  0.172695D-04
  0.171200D+04  0.134411D-03
  0.389300D+03  0.694561D-03
  0.110000D+03  0.278531D-02
  0.355700D+02  0.863457D-02
  0.125400D+02  0.199805D-01
  0.464400D+01  0.262908D-01
  0.129300D+01 -0.243845D-01
  0.511800D+00 -0.924934D-01
  0.178700D+00 -0.339683D+00
  0.246240D-01  0.345111D+00
  0.112530D-01  0.752750D+00
   s    10 1.00
  0.114200D+05  0.523000D-03
  0.171200D+04  0.404500D-02
  0.389300D+03  0.207750D-01
  0.110000D+03  0.807269D-01
  0.355700D+02  0.233074D+00
  0.125400D+02  0.433501D+00
  0.464400D+01  0.347472D+00
  0.129300D+01  0.412620D-01
  0.511800D+00 -0.850799D-02
  0.178700D+00  0.238400D-02
   s    10 1.00
  0.114200D+05 -0.115000D-03
  0.171200D+04 -0.895000D-03
  0.389300D+03 -0.462400D-02
  0.110000D+03 -0.185280D-01
  0.355700D+02 -0.573390D-01
  0.125400D+02 -0.132076D+00
  0.464400D+01 -0.172510D+00
  0.129300D+01  0.151814D+00
  0.511800D+00  0.599944D+00
  0.178700D+00  0.387462D+00
   s     1 1.00
  0.129300D+01  0.100000D+01
   s     1 1.00
  0.178700D+00  0.100000D+01
   p     5 1.00
  0.266300D+02  0.146700D-01
  0.594800D+01  0.917640D-01
  0.174200D+01  0.298683D+00
  0.555000D+00  0.498487D+00
  0.172500D+00  0.337023D+00
   p     1 1.00
  0.174200D+01  0.100000D+01
   p     1 1.00
  0.555000D+00  0.100000D+01
   d     1 1.00
  0.165400D+01  0.100000D+01
   d     1 1.00
  0.469000D+00  0.100000D+01
   f     1 1.00
  0.109300D+01  0.100000D+01
  
  2  0
   s    10 1.00
  0.823600D+04  0.531000D-03
  0.123500D+04  0.410800D-02
  0.280800D+03  0.210870D-01
  0.792700D+02  0.818530D-01
  0.255900D+02  0.234817D+00
  0.899700D+01  0.434401D+00
  0.331900D+01  0.346129D+00
  0.905900D+00  0.393780D-01
  0.364300D+00 -0.898300D-02
  0.128500D+00  0.238500D-02
   s    10 1.00
  0.823600D+04 -0.113000D-03
  0.123500D+04 -0.878000D-03
  0.280800D+03 -0.454000D-02
  0.792700D+02 -0.181330D-01
  0.255900D+02 -0.557600D-01
  0.899700D+01 -0.126895D+00
  0.331900D+01 -0.170352D+00
  0.905900D+00  0.140382D+00
  0.364300D+00  0.598684D+00
  0.128500D+00  0.395389D+00
   s     1 1.00
  0.905900D+00  0.100000D+01
   s     1 1.00
  0.364300D+00  0.100000D+01
   p     5 1.00
  0.187100D+02  0.140310D-01
  0.413300D+01  0.868660D-01
  0.120000D+01  0.290216D+00
  0.382700D+00  0.501008D+00
  0.120900D+00  0.343406D+00
   p     1 1.00
  0.382700D+00  0.100000D+01
   p     1 1.00
  0.120900D+00  0.100000D+01
   d     1 1.00
  0.109700D+01  0.100000D+01
   d     1 1.00
  0.318000D+00  0.100000D+01
   f     1 1.00
  0.761000D+00  0.100000D+01
  
  3  0
   s    10 1.00
  0.823600D+04  0.531000D-03
  0.123500D+04  0.410800D-02
  0.280800D+03  0.210870D-01
  0.792700D+02  0.818530D-01
  0.255900D+02  0.234817D+00
  0.899700D+01  0.434401D+00
  0.331900D+01  0.346129D+00
  0.905900D+00  0.393780D-01
  0.364300D+00 -0.898300D-02
  0.128500D+00  0.238500D-02
   s    10 1.00
  0.823600D+04 -0.113000D-03
  0.123500D+04 -0.878000D-03
  0.280800D+03 -0.454000D-02
  0.792700D+02 -0.181330D-01
  0.255900D+02 -0.557600D-01
  0.899700D+01 -0.126895D+00
  0.331900D+01 -0.170352D+00
  0.905900D+00  0.140382D+00
  0.364300D+00  0.598684D+00
  0.128500D+00  0.395389D+00
   s     1 1.00
  0.905900D+00  0.100000D+01
   s     1 1.00
  0.364300D+00  0.100000D+01
   p     5 1.00
  0.187100D+02  0.140310D-01
  0.413300D+01  0.868660D-01
  0.120000D+01  0.290216D+00
  0.382700D+00  0.501008D+00
  0.120900D+00  0.343406D+00
   p     1 1.00
  0.382700D+00  0.100000D+01
   p     1 1.00
  0.120900D+00  0.100000D+01
   d     1 1.00
  0.109700D+01  0.100000D+01
   d     1 1.00
  0.318000D+00  0.100000D+01
   f     1 1.00
  0.761000D+00  0.100000D+01
  
  4  0
   s    10 1.00
  0.823600D+04  0.531000D-03
  0.123500D+04  0.410800D-02
  0.280800D+03  0.210870D-01
  0.792700D+02  0.818530D-01
  0.255900D+02  0.234817D+00
  0.899700D+01  0.434401D+00
  0.331900D+01  0.346129D+00
  0.905900D+00  0.393780D-01
  0.364300D+00 -0.898300D-02
  0.128500D+00  0.238500D-02
   s    10 1.00
  0.823600D+04 -0.113000D-03
  0.123500D+04 -0.878000D-03
  0.280800D+03 -0.454000D-02
  0.792700D+02 -0.181330D-01
  0.255900D+02 -0.557600D-01
  0.899700D+01 -0.126895D+00
  0.331900D+01 -0.170352D+00
  0.905900D+00  0.140382D+00
  0.364300D+00  0.598684D+00
  0.128500D+00  0.395389D+00
   s     1 1.00
  0.905900D+00  0.100000D+01
   s     1 1.00
  0.364300D+00  0.100000D+01
   p     5 1.00
  0.187100D+02  0.140310D-01
  0.413300D+01  0.868660D-01
  0.120000D+01  0.290216D+00
  0.382700D+00  0.501008D+00
  0.120900D+00  0.343406D+00
   p     1 1.00
  0.382700D+00  0.100000D+01
   p     1 1.00
  0.120900D+00  0.100000D+01
   d     1 1.00
  0.109700D+01  0.100000D+01
   d     1 1.00
  0.318000D+00  0.100000D+01
   f     1 1.00
  0.761000D+00  0.100000D+01
  
  5  0
   s    10 1.00
  0.823600D+04  0.531000D-03
  0.123500D+04  0.410800D-02
  0.280800D+03  0.210870D-01
  0.792700D+02  0.818530D-01
  0.255900D+02  0.234817D+00
  0.899700D+01  0.434401D+00
  0.331900D+01  0.346129D+00
  0.905900D+00  0.393780D-01
  0.364300D+00 -0.898300D-02
  0.128500D+00  0.238500D-02
   s    10 1.00
  0.823600D+04 -0.113000D-03
  0.123500D+04 -0.878000D-03
  0.280800D+03 -0.454000D-02
  0.792700D+02 -0.181330D-01
  0.255900D+02 -0.557600D-01
  0.899700D+01 -0.126895D+00
  0.331900D+01 -0.170352D+00
  0.905900D+00  0.140382D+00
  0.364300D+00  0.598684D+00
  0.128500D+00  0.395389D+00
   s     1 1.00
  0.905900D+00  0.100000D+01
   s     1 1.00
  0.364300D+00  0.100000D+01
   p     5 1.00
  0.187100D+02  0.140310D-01
  0.413300D+01  0.868660D-01
  0.120000D+01  0.290216D+00
  0.382700D+00  0.501008D+00
  0.120900D+00  0.343406D+00
   p     1 1.00
  0.382700D+00  0.100000D+01
   p     1 1.00
  0.120900D+00  0.100000D+01
   d     1 1.00
  0.109700D+01  0.100000D+01
   d     1 1.00
  0.318000D+00  0.100000D+01
   f     1 1.00
  0.761000D+00  0.100000D+01
  
  6  0
   s    10 1.00
  0.823600D+04  0.531000D-03
  0.123500D+04  0.410800D-02
  0.280800D+03  0.210870D-01
  0.792700D+02  0.818530D-01
  0.255900D+02  0.234817D+00
  0.899700D+01  0.434401D+00
  0.331900D+01  0.346129D+00
  0.905900D+00  0.393780D-01
  0.364300D+00 -0.898300D-02
  0.128500D+00  0.238500D-02
   s    10 1.00
  0.823600D+04 -0.113000D-03
  0.123500D+04 -0.878000D-03
  0.280800D+03 -0.454000D-02
  0.792700D+02 -0.181330D-01
  0.255900D+02 -0.557600D-01
  0.899700D+01 -0.126895D+00
  0.331900D+01 -0.170352D+00
  0.905900D+00  0.140382D+00
  0.364300D+00  0.598684D+00
  0.128500D+00  0.395389D+00
   s     1 1.00
  0.905900D+00  0.100000D+01
   s     1 1.00
  0.364300D+00  0.100000D+01
   p     5 1.00
  0.187100D+02  0.140310D-01
  0.413300D+01  0.868660D-01
  0.120000D+01  0.290216D+00
  0.382700D+00  0.501008D+00
  0.120900D+00  0.343406D+00
   p     1 1.00
  0.382700D+00  0.100000D+01
   p     1 1.00
  0.120900D+00  0.100000D+01
   d     1 1.00
  0.109700D+01  0.100000D+01
   d     1 1.00
  0.318000D+00  0.100000D+01
   f     1 1.00
  0.761000D+00  0.100000D+01
  
  7  0
   s    10 1.00
  0.823600D+04  0.531000D-03
  0.123500D+04  0.410800D-02
  0.280800D+03  0.210870D-01
  0.792700D+02  0.818530D-01
  0.255900D+02  0.234817D+00
  0.899700D+01  0.434401D+00
  0.331900D+01  0.346129D+00
  0.905900D+00  0.393780D-01
  0.364300D+00 -0.898300D-02
  0.128500D+00  0.238500D-02
   s    10 1.00
  0.823600D+04 -0.113000D-03
  0.123500D+04 -0.878000D-03
  0.280800D+03 -0.454000D-02
  0.792700D+02 -0.181330D-01
  0.255900D+02 -0.557600D-01
  0.899700D+01 -0.126895D+00
  0.331900D+01 -0.170352D+00
  0.905900D+00  0.140382D+00
  0.364300D+00  0.598684D+00
  0.128500D+00  0.395389D+00
   s     1 1.00
  0.905900D+00  0.100000D+01
   s     1 1.00
  0.364300D+00  0.100000D+01
   p     5 1.00
  0.187100D+02  0.140310D-01
  0.413300D+01  0.868660D-01
  0.120000D+01  0.290216D+00
  0.382700D+00  0.501008D+00
  0.120900D+00  0.343406D+00
   p     1 1.00
  0.382700D+00  0.100000D+01
   p     1 1.00
  0.120900D+00  0.100000D+01
   d     1 1.00
  0.109700D+01  0.100000D+01
   d     1 1.00
  0.318000D+00  0.100000D+01
   f     1 1.00
  0.761000D+00  0.100000D+01
  
  8  0
   s     4 1.00
  0.130100D+02  0.196850D-01
  0.196200D+01  0.137977D+00
  0.444600D+00  0.478148D+00
  0.122000D+00  0.501240D+00
   s     1 1.00
  0.122000D+00  0.100000D+01
   p     1 1.00
  0.727000D+00  0.100000D+01
  
  9  0
   s     4 1.00
  0.130100D+02  0.196850D-01
  0.196200D+01  0.137977D+00
  0.444600D+00  0.478148D+00
  0.122000D+00  0.501240D+00
   s     1 1.00
  0.122000D+00  0.100000D+01
   p     1 1.00
  0.727000D+00  0.100000D+01
  
 10  0
   s     4 1.00
  0.130100D+02  0.196850D-01
  0.196200D+01  0.137977D+00
  0.444600D+00  0.478148D+00
  0.122000D+00  0.501240D+00
   s     1 1.00
  0.122000D+00  0.100000D+01
   p     1 1.00
  0.727000D+00  0.100000D+01
  
 11  0
   s     4 1.00
  0.130100D+02  0.196850D-01
  0.196200D+01  0.137977D+00
  0.444600D+00  0.478148D+00
  0.122000D+00  0.501240D+00
   s     1 1.00
  0.122000D+00  0.100000D+01
   p     1 1.00
  0.727000D+00  0.100000D+01
  
 12  0
   s     4 1.00
  0.130100D+02  0.196850D-01
  0.196200D+01  0.137977D+00
  0.444600D+00  0.478148D+00
  0.122000D+00  0.501240D+00
   s     1 1.00
  0.122000D+00  0.100000D+01
   p     1 1.00
  0.727000D+00  0.100000D+01
  
 13  0
   s     4 1.00
  0.130100D+02  0.196850D-01
  0.196200D+01  0.137977D+00
  0.444600D+00  0.478148D+00
  0.122000D+00  0.501240D+00
   s     1 1.00
  0.122000D+00  0.100000D+01
   p     1 1.00
  0.727000D+00  0.100000D+01
  
 14  0
   s     4 1.00
  0.130100D+02  0.196850D-01
  0.196200D+01  0.137977D+00
  0.444600D+00  0.478148D+00
  0.122000D+00  0.501240D+00
   s     1 1.00
  0.122000D+00  0.100000D+01
   p     1 1.00
  0.727000D+00  0.100000D+01
  
[MO]
 Sym= __1_a__
 Ene=  0.000000000000000E+000
 Spin= Alpha
 Occup=    2.00000000000000     
                     1  8.514038327288281E-005
                     2  0.998332060307242     
                     3  2.249559677368110E-003
                     4  1.794875326740940E-003
                     5  5.132773171657900E-003
                     6  3.087381223240490E-003
                     7  5.773471271002620E-003
                     8 -5.658354768546650E-012
                     9 -6.034108470385120E-004
                    10 -4.620958892749680E-004
                    11  3.815554650212950E-012
                    12 -2.344103853063640E-003
                    13 -1.287019285676680E-003
                    14  7.345647469253321E-012
                    15 -1.137002903251165E-004
                    16 -6.525792789639340E-013
                    17 -9.266652507604371E-013
                    18 -2.097838098924680E-004
                    19 -1.158029891397530E-004
                    20  1.557489183959313E-004
                    21  2.228533053285380E-012
                    22 -1.110074430622440E-012
                    23 -2.299978986274400E-004
                    24  6.545688275558260E-004
                    25  2.223081618311853E-012
                    26 -3.287524351149718E-006
                    27 -5.578284698193223E-005
                    28 -6.650102194773020E-013
                    29 -7.691878989498380E-013
                    30  2.145120118262945E-005
                    31 -1.404091812259788E-004
                    32 -3.451093134368330E-004
                    33  1.227525354367510E-003
                    34  2.873021715606210E-004
                    35 -2.726443952946650E-004
                    36 -2.071332591028860E-004
                    37 -4.881768868614750E-003
                    38 -4.538240393169050E-012
                    39  4.939470674223920E-004
                    40  3.431027322408340E-004
                    41  3.200318168702330E-012
                    42 -2.195504178115650E-003
                    43  5.240800885550900E-003
                    44 -2.226265652866360E-012
                    45 -2.078757139824705E-005
                    46 -5.297757597854090E-013
                    47  2.350334120708180E-012
                    48 -2.405360893694520E-004
                    49 -1.302745766050290E-005
                    50 -2.438020917226298E-004
                    51 -2.278090962596400E-012
                    52 -4.013188861213290E-013
                    53  1.139274519869450E-004
                    54  8.846929795316071E-004
                    55  3.187347873295500E-012
                    56 -1.082504093734055E-005
                    57 -5.672545782746952E-005
                    58 -1.936198071337912E-012
                    59 -9.879252664335139E-013
                    60 -1.789496297446224E-005
                    61 -1.282709701640108E-004
                    62 -4.874881710758040E-004
                    63 -2.287948972144590E-003
                    64 -8.491592777615721E-005
                    65  2.101629890335590E-003
                    66 -7.086278042820580E-004
                    67  5.543676921503750E-004
                    68  2.941934417167520E-012
                    69  4.808565484752050E-004
                    70  8.023436721709380E-004
                    71 -6.513132709247200E-012
                    72 -1.689402323211770E-003
                    73  7.584618940504740E-004
                    74  6.089365296206730E-012
                    75 -4.118314618680399E-005
                    76  1.564295612258810E-012
                    77  1.765605182643560E-012
                    78 -9.124115635051340E-005
                    79 -3.391652204089340E-005
                    80 -1.289787350226050E-004
                    81  2.362558019752780E-012
                    82 -2.864360715595770E-012
                    83  1.355405357034564E-004
                    84  1.388346094466300E-004
                    85  3.645684427173373E-013
                    86  1.254724209611717E-005
                    87 -4.685383077495996E-005
                    88  1.136134288004314E-012
                    89 -2.027644358937150E-012
                    90 -1.280822227213578E-005
                    91 -1.491109096689898E-004
                    92 -1.234952740029840E-004
                    93 -1.041097615432150E-003
                    94  2.213178880668380E-004
                    95 -3.883421667870450E-004
                    96  6.029732019076750E-004
                    97  7.433152302688650E-004
                    98 -6.207163487819510E-012
                    99  4.549280584075770E-004
                   100  3.152695324017350E-004
                   101  1.213511968863650E-011
                   102  4.439939241263570E-004
                   103 -1.461765963296670E-003
                   104  5.675830913229250E-012
                   105 -5.595171863556628E-007
                   106 -3.271238095714300E-012
                   107 -1.236586167844320E-012
                   108 -6.972174999414440E-005
                   109 -2.007788472697290E-005
                   110  1.372209127931051E-004
                   111  1.695349998900840E-012
                   112  1.880157053080260E-013
                   113 -1.326264288755016E-004
                   114 -7.658380052853300E-005
                   115  9.421477557123796E-013
                   116 -2.434511583857225E-005
                   117 -2.916548561876649E-005
                   118  6.623780736498480E-013
                   119  1.171436088713670E-013
                   120  1.203479565945921E-005
                   121 -2.068954228745308E-005
                   122 -2.590180392067620E-004
                   123 -4.887539846123430E-004
                   124  1.663546714902520E-004
                   125  3.876102246838740E-004
                   126 -5.474802492166150E-006
                   127 -5.920580690823360E-004
                   128  1.885966289442090E-012
                   129  1.589270674080930E-004
                   130  5.851185644894370E-004
                   131  1.959610676628650E-012
                   132  3.856695439699610E-004
                   133  2.005963652066850E-003
                   134 -7.114672036888730E-012
                   135  1.209241109546650E-005
                   136  2.150350719686100E-012
                   137 -2.750072156561400E-012
                   138  3.981387942137960E-005
                   139  1.068950654314230E-006
                   140  1.964456969569217E-004
                   141 -3.121311517067640E-012
                   142  1.306893783449330E-012
                   143  3.534451228775800E-004
                   144  2.677998933139850E-004
                   145 -8.958427404471745E-013
                   146 -8.063411305439981E-006
                   147 -6.016726395262498E-005
                   148 -5.402790674743640E-013
                   149 -4.352447983209550E-012
                   150 -2.324528151166139E-005
                   151 -4.884716271760640E-005
                   152 -1.731273300787950E-004
                   153 -2.192598014879700E-004
                   154  3.278397855664590E-005
                   155  3.789178167194900E-004
                   156 -3.609478681419630E-005
                   157 -5.310018955393220E-004
                   158  5.645246343395170E-012
                   159  3.347725837762780E-005
                   160  4.236391328581890E-005
                   161  2.908016513487480E-013
                   162  7.119898471559850E-004
                   163 -2.846467617437280E-004
                   164 -3.150884700856460E-012
                   165 -3.521859836001781E-006
                   166 -2.124470035727690E-012
                   167  2.507194822105270E-012
                   168 -1.130434923301464E-005
                   169  3.757314030438810E-006
                   170  5.410933815510090E-005
                   171 -2.121263011740450E-012
                   172 -1.212939039178890E-012
                   173  7.815775281763579E-006
                   174 -3.352736315647580E-005
                   175  6.137414338034000E-013
                   176  3.907295117476867E-006
                   177 -6.763115490453810E-006
                   178  1.558409377054948E-012
                   179  4.757641516558980E-013
                   180 -2.220247588848401E-005
                   181 -6.809431348754348E-006
                   182 -1.669220685709750E-004
                   183 -4.800581501614730E-004
                   184  4.502308127121870E-005
                   185  2.385842086461200E-004
                   186 -3.611314194639210E-005
                   187 -5.007250803211810E-005
                   188  2.305828541700740E-012
                   189  1.996529361546490E-004
                   190  6.458993887468210E-005
                   191 -3.113782649928500E-012
                   192  1.294299266054640E-003
                   193 -1.758525322919230E-004
                   194  3.587247163067530E-012
                   195 -4.316425811367923E-007
                   196  5.405626715109079E-013
                   197 -2.132515694828630E-012
                   198 -1.384996587792516E-005
                   199  6.811691816118290E-006
                   200  1.066811197257738E-005
                   201 -2.981882619899180E-012
                   202  6.131577601371320E-012
                   203 -8.762004633016860E-005
                   204 -1.762437804194750E-004
                   205  2.056912130184706E-012
                   206 -5.160133541705968E-006
                   207 -4.974153381815945E-006
                   208 -4.040176018368180E-012
                   209  9.904911830075219E-013
                   210  1.086070714860712E-005
                   211 -6.084154784317370E-006
                   212 -4.293726236358980E-005
                   213  9.863242758521979E-005
                   214  5.000762954167120E-005
                   215  6.577087562634499E-005
                   216 -1.192139093153880E-012
                   217  1.241461727029850E-003
                   218 -1.563501619330200E-003
                   219 -4.249525525978260E-004
                   220  1.984613315627680E-004
                   221 -1.993256947765260E-012
                   222 -5.034656108956010E-004
                   223 -5.830711079985940E-004
                   224  8.126491549592699E-006
                   225 -7.644697574965410E-005
                   226  2.175705259712850E-012
                   227 -2.932532281030060E-004
                   228 -4.310260979361060E-004
                   229 -4.912628389700340E-006
                   230 -1.614313096822210E-005
                   231 -1.031320829347280E-013
                   232 -8.425139135375590E-005
                   233 -5.467676383038040E-004
                   234  3.676145130067650E-006
                   235  2.484336138011310E-008
                   236 -1.274337053142800E-012
                   237 -1.909662774023920E-004
                   238 -3.830238923825250E-004
                   239  9.701085402803450E-006
                   240  4.808596246395490E-006
                   241 -1.546751548378310E-012
                   242  1.753144840670490E-005
                   243 -1.561865384805340E-005
                   244 -9.059635481242220E-007
                   245  2.355655953322310E-005
                   246 -2.961285329607070E-012
 Sym= __2_a__
 Ene=  0.000000000000000E+000
 Spin= Alpha
 Occup=    2.00000000000000     
                     1 -4.805896784893430E-005
                     2 -3.134879642560860E-004
                     3  2.759690560231320E-003
                     4  1.388632441335350E-004
                     5  1.367165928157460E-003
                     6 -3.751049495680610E-004
                     7  2.988224610540180E-003
                     8 -5.955413744499300E-012
                     9 -8.485488946534590E-005
                    10 -1.072231776476340E-004
                    11  5.021899430250270E-012
                    12  1.078307996522460E-004
                    13 -4.195706632949450E-004
                    14 -4.136250693639870E-012
                    15  3.074857056819730E-005
                    16  8.514389127985510E-013
                    17  5.981365590451560E-013
                    18 -4.478416013347260E-005
                    19  1.134543239829520E-005
                    20 -1.167534706401270E-004
                    21 -1.033808899714230E-012
                    22 -8.015779991988570E-012
                    23  1.562112108175866E-004
                    24 -2.652430990857950E-005
                    25  4.243183249891179E-013
                    26 -2.115537448603405E-005
                    27  8.670851111061071E-005
                    28  3.034874581046680E-012
                    29  5.486950451598450E-013
                    30 -2.349709403493505E-005
                    31  1.446863127734496E-004
                    32   1.00104969021024     
                    33  9.317730379525310E-003
                    34  2.696513037431130E-003
                    35 -8.143321209299311E-003
                    36 -1.325582910799940E-004
                    37 -3.571154618346420E-003
                    38 -6.627625024444960E-012
                    39  1.403029254370790E-004
                    40  4.120287642414090E-004
                    41  8.554401285334631E-012
                    42  3.865888198120380E-005
                    43  4.236020832423560E-003
                    44  7.717017059505130E-012
                    45 -5.657767313388055E-004
                    46 -1.119935229474940E-013
                    47 -8.208008258765560E-014
                    48 -1.979504807444566E-004
                    49 -8.539177373638810E-006
                    50  5.468315791488349E-004
                    51 -4.069427516256850E-012
                    52 -6.186555639460150E-012
                    53 -9.019038199267240E-004
                    54  6.059268412896850E-005
                    55  3.344051034215211E-012
                    56 -4.272628953599190E-006
                    57  9.474337478989089E-005
                    58  1.512864200846918E-012
                    59  2.542919971495830E-013
                    60  3.063784369119939E-006
                    61  3.975774988233594E-004
                    62  8.928971716146761E-003
                    63 -2.083559210247030E-003
                    64 -3.008914218612270E-004
                    65  3.070499097433820E-003
                    66 -2.365703503335050E-005
                    67  1.268011816355750E-004
                    68  6.872141842488150E-012
                    69  7.431121094968210E-004
                    70 -6.155079015405730E-006
                    71 -1.102328826175350E-011
                    72 -2.072776942244930E-003
                    73  6.329924738302550E-005
                    74 -3.219990939745620E-012
                    75  2.568360833765570E-005
                    76 -1.362093080709410E-012
                    77  8.588966643176180E-013
                    78 -2.402690101875340E-006
                    79  3.280233977652450E-008
                    80 -4.150015525977783E-004
                    81  1.462189437779090E-012
                    82  2.180826153976990E-012
                    83 -5.875405418331020E-004
                    84 -3.765644325871690E-004
                    85 -2.369898990052281E-012
                    86  3.286036560081571E-005
                    87 -5.963387854033332E-005
                    88 -1.160683735663358E-012
                    89  6.309267767051920E-013
                    90  5.069388429124064E-005
                    91  1.398326798872725E-004
                    92  9.785485972026249E-003
                    93 -2.067707857896440E-003
                    94 -2.833757714258100E-004
                    95  3.017592412006330E-003
                    96  2.843964807442280E-005
                    97  9.807378066727121E-005
                    98 -1.557838654796700E-012
                    99 -6.636034149852650E-004
                   100  4.899587700853310E-005
                   101  6.742260131724090E-012
                   102  2.030737964005340E-003
                   103  5.131825876206080E-005
                   104 -8.572603289501220E-012
                   105  3.084919632014827E-005
                   106 -1.337858962610240E-012
                   107  2.027994480467880E-012
                   108 -5.342498599019360E-006
                   109 -7.867292200563631E-006
                   110 -4.123642363157244E-004
                   111  1.278427461128120E-012
                   112  1.754018827347850E-012
                   113 -6.140519749537640E-004
                   114  3.661898211272080E-004
                   115 -4.475822205020537E-013
                   116 -3.203926200723894E-005
                   117 -6.019613468280429E-005
                   118 -1.996845850526222E-012
                   119  2.002672367878100E-012
                   120 -4.869709779490520E-005
                   121  1.356870010865991E-004
                   122 -1.543543787729980E-004
                   123 -6.597262619638440E-004
                   124  2.259822820648990E-004
                   125 -1.113729351978300E-004
                   126 -3.057554507930180E-006
                   127 -3.517698303992720E-004
                   128 -1.162613981361130E-012
                   129 -6.280262194967240E-005
                   130  5.431885770880200E-004
                   131  1.794704433272800E-012
                   132  3.227687166388680E-004
                   133  7.635950270986990E-004
                   134  1.188469922843640E-011
                   135  1.887153348715493E-005
                   136 -1.498552530860470E-012
                   137  8.227224092616710E-013
                   138  4.063539027705620E-006
                   139  5.267212832937140E-005
                   140  1.384369618801833E-004
                   141  6.011576940482020E-012
                   142  3.549281076106410E-012
                   143  2.424090232794260E-004
                   144 -1.795322085499930E-004
                   145  1.402902749939327E-012
                   146  7.335062933754946E-006
                   147 -3.405653966832020E-005
                   148  3.176843058587520E-013
                   149  3.493095889143220E-012
                   150 -4.769485037691922E-005
                   151  2.857685386236296E-005
                   152 -1.362967152688140E-004
                   153 -6.688790025277770E-004
                   154  2.301561763364200E-004
                   155 -1.383312979259280E-004
                   156 -9.107501273147480E-007
                   157 -3.437878630143680E-004
                   158  5.242616520565830E-013
                   159  4.619407498902490E-005
                   160  5.667033532599100E-004