[Molden Format]
[Atoms] AU
  N     1    7    -4.4718672400    0.1181762100   -0.1903234100        
  C     2    6    -1.7679091300   -0.0260711000   -0.0843635200        
  C     3    6    -0.3905072200    0.0840076300   -2.3300171700        
  C     4    6    -0.4650942000   -0.1052482900    2.2001505700        
  C     5    6     2.2202571800    0.0676039900   -2.2775683000        
  C     6    6     2.1553848900   -0.0730836200    2.2348842200        
  C     7    6     3.5094566800    0.0012650800    0.0029587600        
  H     8    1    -5.1820815100   -1.4668715800   -1.0535273300        
  H     9    1    -5.1615240900    0.0904219500    1.6215005600        
  H    10    1    -1.3769461000    0.1953758300   -4.0972115800        
  H    11    1    -1.4948490800   -0.2030401400    3.9451656800        
  H    12    1     3.2550562100    0.1383371800   -4.0214993000        
  H    13    1     3.1301767500   -0.1275609700    4.0138016800        
  H    14    1     5.5374544900    0.0108290900    0.0331428800        
[5D]
[7F]
[GTO]
  1  0
   s    12 1.00
  0.114200D+05  0.172695D-04
  0.171200D+04  0.134411D-03
  0.389300D+03  0.694561D-03
  0.110000D+03  0.278531D-02
  0.355700D+02  0.863457D-02
  0.125400D+02  0.199805D-01
  0.464400D+01  0.262908D-01
  0.129300D+01 -0.243845D-01
  0.511800D+00 -0.924934D-01
  0.178700D+00 -0.339683D+00
  0.246240D-01  0.345111D+00
  0.112530D-01  0.752750D+00
   s    10 1.00
  0.114200D+05  0.523000D-03
  0.171200D+04  0.404500D-02
  0.389300D+03  0.207750D-01
  0.110000D+03  0.807269D-01
  0.355700D+02  0.233074D+00
  0.125400D+02  0.433501D+00
  0.464400D+01  0.347472D+00
  0.129300D+01  0.412620D-01
  0.511800D+00 -0.850799D-02
  0.178700D+00  0.238400D-02
   s    10 1.00
  0.114200D+05 -0.115000D-03
  0.171200D+04 -0.895000D-03
  0.389300D+03 -0.462400D-02
  0.110000D+03 -0.185280D-01
  0.355700D+02 -0.573390D-01
  0.125400D+02 -0.132076D+00
  0.464400D+01 -0.172510D+00
  0.129300D+01  0.151814D+00
  0.511800D+00  0.599944D+00
  0.178700D+00  0.387462D+00
   s     1 1.00
  0.129300D+01  0.100000D+01
   s     1 1.00
  0.178700D+00  0.100000D+01
   p     5 1.00
  0.266300D+02  0.146700D-01
  0.594800D+01  0.917640D-01
  0.174200D+01  0.298683D+00
  0.555000D+00  0.498487D+00
  0.172500D+00  0.337023D+00
   p     1 1.00
  0.174200D+01  0.100000D+01
   p     1 1.00
  0.555000D+00  0.100000D+01
   d     1 1.00
  0.165400D+01  0.100000D+01
   d     1 1.00
  0.469000D+00  0.100000D+01
   f     1 1.00
  0.109300D+01  0.100000D+01
  
  2  0
   s    10 1.00
  0.823600D+04  0.531000D-03
  0.123500D+04  0.410800D-02
  0.280800D+03  0.210870D-01
  0.792700D+02  0.818530D-01
  0.255900D+02  0.234817D+00
  0.899700D+01  0.434401D+00
  0.331900D+01  0.346129D+00
  0.905900D+00  0.393780D-01
  0.364300D+00 -0.898300D-02
  0.128500D+00  0.238500D-02
   s    10 1.00
  0.823600D+04 -0.113000D-03
  0.123500D+04 -0.878000D-03
  0.280800D+03 -0.454000D-02
  0.792700D+02 -0.181330D-01
  0.255900D+02 -0.557600D-01
  0.899700D+01 -0.126895D+00
  0.331900D+01 -0.170352D+00
  0.905900D+00  0.140382D+00
  0.364300D+00  0.598684D+00
  0.128500D+00  0.395389D+00
   s     1 1.00
  0.905900D+00  0.100000D+01
   s     1 1.00
  0.364300D+00  0.100000D+01
   p     5 1.00
  0.187100D+02  0.140310D-01
  0.413300D+01  0.868660D-01
  0.120000D+01  0.290216D+00
  0.382700D+00  0.501008D+00
  0.120900D+00  0.343406D+00
   p     1 1.00
  0.382700D+00  0.100000D+01
   p     1 1.00
  0.120900D+00  0.100000D+01
   d     1 1.00
  0.109700D+01  0.100000D+01
   d     1 1.00
  0.318000D+00  0.100000D+01
   f     1 1.00
  0.761000D+00  0.100000D+01
  
  3  0
   s    10 1.00
  0.823600D+04  0.531000D-03
  0.123500D+04  0.410800D-02
  0.280800D+03  0.210870D-01
  0.792700D+02  0.818530D-01
  0.255900D+02  0.234817D+00
  0.899700D+01  0.434401D+00
  0.331900D+01  0.346129D+00
  0.905900D+00  0.393780D-01
  0.364300D+00 -0.898300D-02
  0.128500D+00  0.238500D-02
   s    10 1.00
  0.823600D+04 -0.113000D-03
  0.123500D+04 -0.878000D-03
  0.280800D+03 -0.454000D-02
  0.792700D+02 -0.181330D-01
  0.255900D+02 -0.557600D-01
  0.899700D+01 -0.126895D+00
  0.331900D+01 -0.170352D+00
  0.905900D+00  0.140382D+00
  0.364300D+00  0.598684D+00
  0.128500D+00  0.395389D+00
   s     1 1.00
  0.905900D+00  0.100000D+01
   s     1 1.00
  0.364300D+00  0.100000D+01
   p     5 1.00
  0.187100D+02  0.140310D-01
  0.413300D+01  0.868660D-01
  0.120000D+01  0.290216D+00
  0.382700D+00  0.501008D+00
  0.120900D+00  0.343406D+00
   p     1 1.00
  0.382700D+00  0.100000D+01
   p     1 1.00
  0.120900D+00  0.100000D+01
   d     1 1.00
  0.109700D+01  0.100000D+01
   d     1 1.00
  0.318000D+00  0.100000D+01
   f     1 1.00
  0.761000D+00  0.100000D+01
  
  4  0
   s    10 1.00
  0.823600D+04  0.531000D-03
  0.123500D+04  0.410800D-02
  0.280800D+03  0.210870D-01
  0.792700D+02  0.818530D-01
  0.255900D+02  0.234817D+00
  0.899700D+01  0.434401D+00
  0.331900D+01  0.346129D+00
  0.905900D+00  0.393780D-01
  0.364300D+00 -0.898300D-02
  0.128500D+00  0.238500D-02
   s    10 1.00
  0.823600D+04 -0.113000D-03
  0.123500D+04 -0.878000D-03
  0.280800D+03 -0.454000D-02
  0.792700D+02 -0.181330D-01
  0.255900D+02 -0.557600D-01
  0.899700D+01 -0.126895D+00
  0.331900D+01 -0.170352D+00
  0.905900D+00  0.140382D+00
  0.364300D+00  0.598684D+00
  0.128500D+00  0.395389D+00
   s     1 1.00
  0.905900D+00  0.100000D+01
   s     1 1.00
  0.364300D+00  0.100000D+01
   p     5 1.00
  0.187100D+02  0.140310D-01
  0.413300D+01  0.868660D-01
  0.120000D+01  0.290216D+00
  0.382700D+00  0.501008D+00
  0.120900D+00  0.343406D+00
   p     1 1.00
  0.382700D+00  0.100000D+01
   p     1 1.00
  0.120900D+00  0.100000D+01
   d     1 1.00
  0.109700D+01  0.100000D+01
   d     1 1.00
  0.318000D+00  0.100000D+01
   f     1 1.00
  0.761000D+00  0.100000D+01
  
  5  0
   s    10 1.00
  0.823600D+04  0.531000D-03
  0.123500D+04  0.410800D-02
  0.280800D+03  0.210870D-01
  0.792700D+02  0.818530D-01
  0.255900D+02  0.234817D+00
  0.899700D+01  0.434401D+00
  0.331900D+01  0.346129D+00
  0.905900D+00  0.393780D-01
  0.364300D+00 -0.898300D-02
  0.128500D+00  0.238500D-02
   s    10 1.00
  0.823600D+04 -0.113000D-03
  0.123500D+04 -0.878000D-03
  0.280800D+03 -0.454000D-02
  0.792700D+02 -0.181330D-01
  0.255900D+02 -0.557600D-01
  0.899700D+01 -0.126895D+00
  0.331900D+01 -0.170352D+00
  0.905900D+00  0.140382D+00
  0.364300D+00  0.598684D+00
  0.128500D+00  0.395389D+00
   s     1 1.00
  0.905900D+00  0.100000D+01
   s     1 1.00
  0.364300D+00  0.100000D+01
   p     5 1.00
  0.187100D+02  0.140310D-01
  0.413300D+01  0.868660D-01
  0.120000D+01  0.290216D+00
  0.382700D+00  0.501008D+00
  0.120900D+00  0.343406D+00
   p     1 1.00
  0.382700D+00  0.100000D+01
   p     1 1.00
  0.120900D+00  0.100000D+01
   d     1 1.00
  0.109700D+01  0.100000D+01
   d     1 1.00
  0.318000D+00  0.100000D+01
   f     1 1.00
  0.761000D+00  0.100000D+01
  
  6  0
   s    10 1.00
  0.823600D+04  0.531000D-03
  0.123500D+04  0.410800D-02
  0.280800D+03  0.210870D-01
  0.792700D+02  0.818530D-01
  0.255900D+02  0.234817D+00
  0.899700D+01  0.434401D+00
  0.331900D+01  0.346129D+00
  0.905900D+00  0.393780D-01
  0.364300D+00 -0.898300D-02
  0.128500D+00  0.238500D-02
   s    10 1.00
  0.823600D+04 -0.113000D-03
  0.123500D+04 -0.878000D-03
  0.280800D+03 -0.454000D-02
  0.792700D+02 -0.181330D-01
  0.255900D+02 -0.557600D-01
  0.899700D+01 -0.126895D+00
  0.331900D+01 -0.170352D+00
  0.905900D+00  0.140382D+00
  0.364300D+00  0.598684D+00
  0.128500D+00  0.395389D+00
   s     1 1.00
  0.905900D+00  0.100000D+01
   s     1 1.00
  0.364300D+00  0.100000D+01
   p     5 1.00
  0.187100D+02  0.140310D-01
  0.413300D+01  0.868660D-01
  0.120000D+01  0.290216D+00
  0.382700D+00  0.501008D+00
  0.120900D+00  0.343406D+00
   p     1 1.00
  0.382700D+00  0.100000D+01
   p     1 1.00
  0.120900D+00  0.100000D+01
   d     1 1.00
  0.109700D+01  0.100000D+01
   d     1 1.00
  0.318000D+00  0.100000D+01
   f     1 1.00
  0.761000D+00  0.100000D+01
  
  7  0
   s    10 1.00
  0.823600D+04  0.531000D-03
  0.123500D+04  0.410800D-02
  0.280800D+03  0.210870D-01
  0.792700D+02  0.818530D-01
  0.255900D+02  0.234817D+00
  0.899700D+01  0.434401D+00
  0.331900D+01  0.346129D+00
  0.905900D+00  0.393780D-01
  0.364300D+00 -0.898300D-02
  0.128500D+00  0.238500D-02
   s    10 1.00
  0.823600D+04 -0.113000D-03
  0.123500D+04 -0.878000D-03
  0.280800D+03 -0.454000D-02
  0.792700D+02 -0.181330D-01
  0.255900D+02 -0.557600D-01
  0.899700D+01 -0.126895D+00
  0.331900D+01 -0.170352D+00
  0.905900D+00  0.140382D+00
  0.364300D+00  0.598684D+00
  0.128500D+00  0.395389D+00
   s     1 1.00
  0.905900D+00  0.100000D+01
   s     1 1.00
  0.364300D+00  0.100000D+01
   p     5 1.00
  0.187100D+02  0.140310D-01
  0.413300D+01  0.868660D-01
  0.120000D+01  0.290216D+00
  0.382700D+00  0.501008D+00
  0.120900D+00  0.343406D+00
   p     1 1.00
  0.382700D+00  0.100000D+01
   p     1 1.00
  0.120900D+00  0.100000D+01
   d     1 1.00
  0.109700D+01  0.100000D+01
   d     1 1.00
  0.318000D+00  0.100000D+01
   f     1 1.00
  0.761000D+00  0.100000D+01
  
  8  0
   s     4 1.00
  0.130100D+02  0.196850D-01
  0.196200D+01  0.137977D+00
  0.444600D+00  0.478148D+00
  0.122000D+00  0.501240D+00
   s     1 1.00
  0.122000D+00  0.100000D+01
   p     1 1.00
  0.727000D+00  0.100000D+01
  
  9  0
   s     4 1.00
  0.130100D+02  0.196850D-01
  0.196200D+01  0.137977D+00
  0.444600D+00  0.478148D+00
  0.122000D+00  0.501240D+00
   s     1 1.00
  0.122000D+00  0.100000D+01
   p     1 1.00
  0.727000D+00  0.100000D+01
  
 10  0
   s     4 1.00
  0.130100D+02  0.196850D-01
  0.196200D+01  0.137977D+00
  0.444600D+00  0.478148D+00
  0.122000D+00  0.501240D+00
   s     1 1.00
  0.122000D+00  0.100000D+01
   p     1 1.00
  0.727000D+00  0.100000D+01
  
 11  0
   s     4 1.00
  0.130100D+02  0.196850D-01
  0.196200D+01  0.137977D+00
  0.444600D+00  0.478148D+00
  0.122000D+00  0.501240D+00
   s     1 1.00
  0.122000D+00  0.100000D+01
   p     1 1.00
  0.727000D+00  0.100000D+01
  
 12  0
   s     4 1.00
  0.130100D+02  0.196850D-01
  0.196200D+01  0.137977D+00
  0.444600D+00  0.478148D+00
  0.122000D+00  0.501240D+00
   s     1 1.00
  0.122000D+00  0.100000D+01
   p     1 1.00
  0.727000D+00  0.100000D+01
  
 13  0
   s     4 1.00
  0.130100D+02  0.196850D-01
  0.196200D+01  0.137977D+00
  0.444600D+00  0.478148D+00
  0.122000D+00  0.501240D+00
   s     1 1.00
  0.122000D+00  0.100000D+01
   p     1 1.00
  0.727000D+00  0.100000D+01
  
 14  0
   s     4 1.00
  0.130100D+02  0.196850D-01
  0.196200D+01  0.137977D+00
  0.444600D+00  0.478148D+00
  0.122000D+00  0.501240D+00
   s     1 1.00
  0.122000D+00  0.100000D+01
   p     1 1.00
  0.727000D+00  0.100000D+01
  
[MO]
 Sym= __1_A__
 Ene=  0.000000000000000E+000
 Spin= Alpha
 Occup=    2.00000000000000     
                     1  2.313648257208824E-004
                     2  0.998085264363831     
                     3  2.028861033654398E-003
                     4  1.931118672031088E-003
                     5  6.078964867887563E-003
                     6  5.744389278082193E-003
                     7 -4.373148730383210E-003
                     8  3.438066591908914E-003
                     9 -8.469815711461410E-004
                    10  2.883070906603813E-004
                    11 -4.036980981491880E-004
                    12 -1.618312911952137E-003
                    13  2.864149942145319E-003
                    14 -2.034048169056753E-003
                    15 -5.013766781450766E-006
                    16 -5.149117515715134E-005
                    17 -1.166860404201976E-005
                    18  5.435398393354348E-005
                    19  5.083719442934247E-005
                    20 -2.831033698565815E-004
                    21  3.786920032079255E-004
                    22 -1.813434334345450E-004
                    23  1.065570525553156E-004
                    24 -4.163392063350202E-004
                    25 -5.023979449157412E-005
                    26 -1.178247406636580E-004
                    27  1.125922909186128E-005
                    28  6.344062711887850E-005
                    29 -2.035118796920250E-005
                    30 -1.047631289234885E-004
                    31 -2.624799171968234E-005
                    32 -3.593668468939278E-004
                    33  7.508084586331621E-004
                    34  2.480956023823681E-004
                    35 -8.425558612699157E-005
                    36 -3.823046272463824E-003
                    37 -1.231900603839224E-004
                    38 -1.933636350043254E-004
                    39  2.080142229929970E-004
                    40 -4.356067602354759E-005
                    41  6.043340728775419E-004
                    42  4.801014942346803E-003
                    43  7.643143068318667E-004
                    44 -2.651845592742395E-003
                    45 -2.008035970068530E-004
                    46  2.580334009657791E-005
                    47  8.935671068233422E-006
                    48  1.922472049013643E-004
                    49  4.536627735331204E-005
                    50  5.057920458466425E-004
                    51  4.708268088740692E-004
                    52 -6.111869161244501E-005
                    53 -9.579609714273564E-005
                    54 -3.380526751659866E-004
                    55  2.984188641253924E-005
                    56 -5.174746428510565E-005
                    57  2.421912107283726E-006
                    58  2.593831353953242E-005
                    59  2.330759743981628E-006
                    60 -3.416822346110008E-005
                    61  2.763339388210814E-005
                    62 -6.157955010374733E-004
                    63 -2.519361559702184E-003
                    64 -1.026468683351089E-005
                    65  2.051256558833313E-003
                    66  3.599102708805646E-004
                    67 -1.156833796266764E-004
                    68 -5.872530938420622E-004
                    69  8.335566262243857E-004
                    70  4.963188870832005E-005
                    71  4.606360062676233E-004
                    72  1.179042338841312E-003
                    73 -2.187480711108643E-004
                    74 -1.396373521765647E-003
                    75 -6.866229553017167E-005
                    76 -2.695833640060522E-005
                    77  1.670365213379491E-005
                    78  7.628811574401974E-005
                    79 -4.773114669583033E-006
                    80  3.520232068188247E-004
                    81  1.923976120981649E-004
                    82 -5.097760434590238E-005
                    83 -5.548410202319020E-005
                    84  2.241791685431815E-005
                    85 -1.915777760155087E-005
                    86 -1.178219741058393E-004
                    87  1.793337519679450E-005
                    88  1.761850200872335E-006
                    89  1.339037764677390E-005
                    90 -6.730154897252050E-005
                    91 -1.073223319275089E-005
                    92 -1.062024022745829E-004
                    93 -8.559921261341525E-004
                    94  2.213177476649387E-004
                    95 -4.351596772432910E-004
                    96  5.337956016961050E-004
                    97 -1.238043879761142E-004
                    98  4.271000890039835E-004
                    99  3.250684025539365E-004
                   100  7.446944849776213E-005
                   101  2.580092146190588E-004
                   102 -2.013711390729600E-003
                   103 -2.804909754115394E-004
                   104  2.170029737293745E-004
                   105 -6.534945209651622E-005
                   106  2.126507140437399E-006
                   107 -1.047809080778886E-005
                   108  4.375995433391720E-005
                   109 -8.422984258540898E-006
                   110  6.477946640698282E-006
                   111 -2.010315543776879E-004
                   112  1.010265892227873E-005
                   113 -2.126031498148414E-004
                   114  5.415716642734098E-005
                   115 -1.154379237655543E-005
                   116  1.247633941144582E-005
                   117  1.778364782971990E-005
                   118  1.794419098731277E-005
                   119 -1.044205837794402E-005
                   120 -2.093900289245973E-005
                   121 -6.567197247677745E-006
                   122 -2.778745369514914E-004
                   123 -6.512955206354134E-004
                   124  1.005928987186884E-004
                   125  7.805588075922476E-004
                   126 -4.916081638515419E-004
                   127 -4.812131179077041E-005
                   128 -1.758693904263582E-005
                   129  5.071873580461570E-004
                   130 -2.089209287646637E-005
                   131  2.181907194689335E-004
                   132  2.428195988548001E-003
                   133  1.159491191856822E-004
                   134  3.511788268227387E-004
                   135  2.423389954740080E-005
                   136  1.377314281839751E-006
                   137 -4.244566973722263E-006
                   138 -1.314165239887885E-005
                   139  9.130550351269842E-006
                   140  2.204541367088530E-004
                   141  3.280037938174834E-004
                   142  7.665892040754394E-006
                   143 -3.410662984769758E-004
                   144 -2.492989094802252E-005
                   145 -3.071463987868923E-005
                   146 -2.072841400226974E-005
                   147 -2.559975016294811E-007
                   148 -1.110236385103690E-005
                   149 -3.540361875898842E-006
                   150 -7.407587608679420E-005
                   151 -8.455558178432398E-007
                   152 -1.392837187902274E-004
                   153 -2.001528345835340E-004
                   154 -8.613984431287081E-006
                   155  4.730090294503524E-004
                   156 -4.160119311761437E-004
                   157 -3.950809251187281E-005
                   158 -5.653494173766100E-005
                   159 -1.043552642851136E-004
                   160 -3.231057359559060E-005
                   161  1.980670693398276E-004
                   162 -7.416097438649301E-004
                   163  6.614556628203069E-005
                   164  8.406585730082006E-004
                   165 -1.391031364692198E-005
                   166  6.587648577472784E-006
                   167  2.763728666378169E-006
                   168  1.325240555844306E-005
                   169  6.347159112713891E-006
                   170 -6.072705263476613E-005
                   171 -6.085624492055536E-005
                   172  3.564401456504683E-006
                   173 -1.318790863612959E-005
                   174  4.393898623019195E-006
                   175 -7.370169253345171E-006
                   176 -8.084975279067410E-006
                   177  2.003748607167269E-006
                   178 -3.459486822628080E-006
                   179  3.020593515349797E-007
                   180 -1.246995294826768E-005
                   181 -3.699241102396756E-006
                   182 -1.427493935700670E-004
                   183 -4.422418549377120E-004
                   184  3.290410343443883E-005
                   185  1.812665036544417E-004
                   186 -1.812341657604883E-005
                   187 -3.200791143034402E-005
                   188 -7.242726823162868E-005
                   189  9.033469945937363E-005
                   190  7.511507658034575E-006
                   191  3.185339214793496E-004
                   192 -4.016705621304806E-004
                   193 -1.259854314457004E-004
                   194  1.739758785391459E-003
                   195 -8.271041063116943E-006
                   196  3.106020734730335E-006
                   197  4.677059428812634E-008
                   198  2.897849472709552E-006
                   199 -9.830868470029201E-007
                   200 -1.252796356018797E-004
                   201 -2.615299150396840E-004
                   202  5.086320671960464E-006
                   203  6.595940050510418E-005
                   204  1.935770092723063E-005
                   205  3.084982825210086E-006
                   206  2.121917834172885E-006
                   207  1.426893559264573E-006
                   208  2.064240257695584E-005
                   209 -1.036966565739309E-006
                   210 -5.019206228386760E-006
                   211 -2.549348800341085E-006
                   212  1.891838814146198E-003
                   213 -1.775404738835093E-003
                   214  1.342209643996823E-004
                   215  3.829348178716937E-004
                   216  1.263296900958707E-004
                   217  2.449590103282548E-003
                   218 -2.039995901699989E-003
                   219  1.781694650443315E-004
                   220  8.178480717368338E-005
                   221 -4.663035443442285E-004
                   222 -4.951830725618490E-004
                   223 -2.437733521797756E-004
                   224 -8.610831923337123E-005
                   225  6.866513872854884E-006
                   226  3.663754089038493E-005
                   227 -3.648266868337288E-004
                   228 -4.358483627769780E-004
                   229 -3.784196234792058E-005
                   230  1.384441156102368E-005
                   231 -4.683133397496585E-005
                   232 -3.812810134186139E-005
                   233 -6.451753235098346E-004
                   234 -6.332274049197889E-007
                   235 -1.114254743044984E-006
                   236 -5.617732475900396E-007
                   237 -1.319320619355805E-004
                   238 -3.051658316016899E-004
                   239  1.542104877598670E-005
                   240 -3.008228826697604E-006
                   241  1.853083081203775E-005
                   242  1.076518451463585E-008
                   243  1.178965483632729E-004
                   244  3.011681216559903E-005
                   245  1.786211392589764E-006
                   246  1.641755303195751E-006
 Sym= __2_A__
 Ene=  0.000000000000000E+000
 Spin= Alpha
 Occup=    2.00000000000000     
                     1 -9.949981162460941E-006
                     2 -8.542365031666246E-005
                     3  1.782929453290081E-003
                     4 -1.868860496345359E-005
                     5  1.210490570236012E-003
                     6  1.747063998971210E-003
                     7  1.162503525509727E-004
                     8 -2.052980927718866E-004
                     9 -1.542230225965546E-004
                    10  1.019898230532907E-004
                    11 -2.551678973212185E-005
                    12  1.115278919935097E-004
                    13  1.126224850005415E-004
                    14  5.679904932601072E-005
                    15 -6.583171656868209E-005
                    16  1.378930164096395E-005
                    17 -8.617570170346437E-006
                    18  4.390937727616644E-005
                    19 -1.236230359632609E-006
                    20  1.424163003998741E-004
                    21 -6.826608283939183E-005
                    22  3.275128573620341E-005
                    23  1.151949977035648E-004
                    24 -5.885641141294750E-005
                    25 -5.946199897139877E-005
                    26  1.319057224559881E-004
                    27 -1.542210598369481E-005
                    28 -7.530821138060292E-006
                    29 -1.150845041838166E-006
                    30  1.273904213111987E-004
                    31  3.445407352421094E-005
                    32   1.00093686140501     
                    33  8.739452510765076E-003
                    34  2.812290232635331E-003
                    35 -8.305477840191797E-003
                    36 -2.349618916010686E-003
                    37  5.534488127218845E-004
                    38  2.904029881360528E-005
                    39  1.086863469698153E-003
                    40 -1.963266474057607E-004
                    41 -1.227858211302463E-004
                    42  3.194700894321159E-003
                    43 -1.091808542269206E-004
                    44 -1.844786535414695E-004
                    45  3.021983734151243E-004
                    46  1.905548233437140E-005
                    47 -2.180315822816287E-005
                    48  3.895710995621636E-004
                    49 -1.207420719533057E-005
                    50 -1.017675151191922E-003
                    51 -1.646279441061410E-004
                    52  8.397169100970327E-005
                    53 -1.366319822525347E-004
                    54  1.882743198894825E-005
                    55 -1.127114173287377E-005
                    56  2.946503770109856E-004
                    57 -8.888365669176913E-006
                    58 -1.697316006468677E-005
                    59 -6.485272227888392E-006
                    60  7.552675292370787E-005
                    61  1.370647614247276E-005
                    62  1.331434270620510E-002
                    63 -1.821997563169913E-003
                    64 -2.883471953439460E-004
                    65  2.986300710305866E-003
                    66 -1.574775582043195E-004
                    67  7.537199266828437E-005
                    68  2.962592953027557E-004
                    69  3.275408491788526E-005
                    70 -1.582071015440168E-005
                    71  4.073546093822008E-004
                    72  4.092231263107795E-004
                    73  6.774456881766614E-005
                    74 -1.832820359186178E-003
                    75 -7.252102573835298E-006
                    76  2.585855486078210E-005
                    77  7.774378982678263E-006
                    78 -3.907051290639590E-005
                    79 -3.769202914127412E-006
                    80 -4.599839010822426E-004
                    81 -4.169456537147710E-004
                    82  1.287200181237632E-005
                    83  7.847616642560152E-004
                    84  7.725677174008411E-006
                    85  4.564029823923021E-005
                    86  1.098643980840685E-004
                    87  1.056501150114768E-005
                    88 -1.770391813384942E-005
                    89 -1.511311332319108E-005
                    90 -2.492791429131746E-005
                    91  2.558500827064096E-006
                    92  1.473605874966198E-002
                    93 -1.743867941194768E-003
                    94 -3.351878918771246E-004
                    95  3.249415255466720E-003
                    96 -1.951669497840150E-004
                    97  1.009930157774081E-004
                    98 -2.857397638359659E-004
                    99 -1.687856176794559E-005
                   100  2.994260202136429E-005
                   101 -6.311679095488580E-004
                   102  2.180241067366763E-005
                   103 -7.879869868248239E-005
                   104  1.720309061545874E-003
                   105 -2.062750171326279E-006
                   106 -1.714527215603853E-005
                   107 -3.208131458498551E-006
                   108 -3.273922660612620E-005
                   109 -3.488494713364465E-006
                   110 -3.422676790141901E-004
                   111  4.902417640935348E-004
                   112 -1.286779123617901E-005
                   113  7.084067249965426E-004
                   114 -1.356304317322386E-005
                   115 -5.151205629220899E-005
                   116  9.805813941497326E-005
                   117 -4.091399614604592E-006
                   118  2.014431568188830E-005
                   119 -1.026629995054569E-006
                   120 -3.299108251036618E-005
                   121  3.985252216614127E-006
                   122 -1.391107422195066E-004
                   123 -7.586281987715346E-004
                   124  2.420000147567217E-004
                   125 -2.735592858857782E-004
                   126 -1.762850655981049E-004
                   127  1.884334888319670E-005
                   128 -5.268852085181990E-005
                   129  6.070631590131704E-004
                   130 -9.572054050240826E-006
                   131  7.809719871778063E-005
                   132  7.115991607628216E-004
                   133 -1.423765688874760E-005
                   134  4.116006003545404E-004
                   135  3.886426894532748E-007
                   136  4.079623626275109E-005
                   137  6.328736928740515E-007
                   138 -3.293913955266386E-005
                   139 -2.661720197946579E-006
                   140  1.980398009173205E-004
                   141 -2.615229984772806E-004
                   142  7.902325024759581E-007
                   143 -2.541282373256620E-004
                   144  9.229184866027299E-006
                   145 -1.775621332675465E-005
                   146  1.534837328542158E-005
                   147 -1.284358730511564E-006
                   148 -1.071761064780878E-005
                   149 -2.884931061245340E-006
                   150 -2.236597532738060E-005
                   151  6.629968047782865E-007
                   152 -1.032995654341542E-004
                   153 -7.154943718385343E-004
                   154  2.538065371748273E-004
                   155 -3.272237613018547E-004
                   156 -1.580710747028635E-004
                   157  4.665130369928910E-006
                   158  3.378506914524081E-005
                   159  5.631096731920757E-004
                   160  8.057729229505195E-006