[Molden Format]
[Atoms] AU
  N     1    7    -4.5082829200   -0.1342819900   -0.4228200100        
  C     2    6    -1.7496705200   -0.0824342700   -0.1838819400        
  C     3    6    -0.3491890900    0.2202010900   -2.3813599000        
  C     4    6    -0.4819141000   -0.3194027500    2.1144844200        
  C     5    6     2.2679837200    0.2851297300   -2.2867536700        
  C     6    6     2.1285900100   -0.2535069600    2.1993448600        
  C     7    6     3.5096699900    0.0491470500   -0.0030301700        
  H     8    1    -5.0800915200   -1.8566336900    0.5908505700        
  H     9    1    -5.1710165100    1.2661961700    0.9629770900        
  H    10    1    -1.3260875200    0.4019365300   -4.1451509600        
  H    11    1    -1.5448115400   -0.5543420500    3.8263524900        
  H    12    1     3.3318141500    0.5199799700   -3.9976458500        
  H    13    1     3.0845146800   -0.4378414600    3.9798216900        
  H    14    1     5.5368142800    0.0998677000    0.0666404700        
[5D]
[7F]
[GTO]
  1  0
   s    12 1.00
  0.114200D+05  0.172695D-04
  0.171200D+04  0.134411D-03
  0.389300D+03  0.694561D-03
  0.110000D+03  0.278531D-02
  0.355700D+02  0.863457D-02
  0.125400D+02  0.199805D-01
  0.464400D+01  0.262908D-01
  0.129300D+01 -0.243845D-01
  0.511800D+00 -0.924934D-01
  0.178700D+00 -0.339683D+00
  0.246240D-01  0.345111D+00
  0.112530D-01  0.752750D+00
   s    10 1.00
  0.114200D+05  0.523000D-03
  0.171200D+04  0.404500D-02
  0.389300D+03  0.207750D-01
  0.110000D+03  0.807269D-01
  0.355700D+02  0.233074D+00
  0.125400D+02  0.433501D+00
  0.464400D+01  0.347472D+00
  0.129300D+01  0.412620D-01
  0.511800D+00 -0.850799D-02
  0.178700D+00  0.238400D-02
   s    10 1.00
  0.114200D+05 -0.115000D-03
  0.171200D+04 -0.895000D-03
  0.389300D+03 -0.462400D-02
  0.110000D+03 -0.185280D-01
  0.355700D+02 -0.573390D-01
  0.125400D+02 -0.132076D+00
  0.464400D+01 -0.172510D+00
  0.129300D+01  0.151814D+00
  0.511800D+00  0.599944D+00
  0.178700D+00  0.387462D+00
   s     1 1.00
  0.129300D+01  0.100000D+01
   s     1 1.00
  0.178700D+00  0.100000D+01
   p     5 1.00
  0.266300D+02  0.146700D-01
  0.594800D+01  0.917640D-01
  0.174200D+01  0.298683D+00
  0.555000D+00  0.498487D+00
  0.172500D+00  0.337023D+00
   p     1 1.00
  0.174200D+01  0.100000D+01
   p     1 1.00
  0.555000D+00  0.100000D+01
   d     1 1.00
  0.165400D+01  0.100000D+01
   d     1 1.00
  0.469000D+00  0.100000D+01
   f     1 1.00
  0.109300D+01  0.100000D+01
  
  2  0
   s    10 1.00
  0.823600D+04  0.531000D-03
  0.123500D+04  0.410800D-02
  0.280800D+03  0.210870D-01
  0.792700D+02  0.818530D-01
  0.255900D+02  0.234817D+00
  0.899700D+01  0.434401D+00
  0.331900D+01  0.346129D+00
  0.905900D+00  0.393780D-01
  0.364300D+00 -0.898300D-02
  0.128500D+00  0.238500D-02
   s    10 1.00
  0.823600D+04 -0.113000D-03
  0.123500D+04 -0.878000D-03
  0.280800D+03 -0.454000D-02
  0.792700D+02 -0.181330D-01
  0.255900D+02 -0.557600D-01
  0.899700D+01 -0.126895D+00
  0.331900D+01 -0.170352D+00
  0.905900D+00  0.140382D+00
  0.364300D+00  0.598684D+00
  0.128500D+00  0.395389D+00
   s     1 1.00
  0.905900D+00  0.100000D+01
   s     1 1.00
  0.364300D+00  0.100000D+01
   p     5 1.00
  0.187100D+02  0.140310D-01
  0.413300D+01  0.868660D-01
  0.120000D+01  0.290216D+00
  0.382700D+00  0.501008D+00
  0.120900D+00  0.343406D+00
   p     1 1.00
  0.382700D+00  0.100000D+01
   p     1 1.00
  0.120900D+00  0.100000D+01
   d     1 1.00
  0.109700D+01  0.100000D+01
   d     1 1.00
  0.318000D+00  0.100000D+01
   f     1 1.00
  0.761000D+00  0.100000D+01
  
  3  0
   s    10 1.00
  0.823600D+04  0.531000D-03
  0.123500D+04  0.410800D-02
  0.280800D+03  0.210870D-01
  0.792700D+02  0.818530D-01
  0.255900D+02  0.234817D+00
  0.899700D+01  0.434401D+00
  0.331900D+01  0.346129D+00
  0.905900D+00  0.393780D-01
  0.364300D+00 -0.898300D-02
  0.128500D+00  0.238500D-02
   s    10 1.00
  0.823600D+04 -0.113000D-03
  0.123500D+04 -0.878000D-03
  0.280800D+03 -0.454000D-02
  0.792700D+02 -0.181330D-01
  0.255900D+02 -0.557600D-01
  0.899700D+01 -0.126895D+00
  0.331900D+01 -0.170352D+00
  0.905900D+00  0.140382D+00
  0.364300D+00  0.598684D+00
  0.128500D+00  0.395389D+00
   s     1 1.00
  0.905900D+00  0.100000D+01
   s     1 1.00
  0.364300D+00  0.100000D+01
   p     5 1.00
  0.187100D+02  0.140310D-01
  0.413300D+01  0.868660D-01
  0.120000D+01  0.290216D+00
  0.382700D+00  0.501008D+00
  0.120900D+00  0.343406D+00
   p     1 1.00
  0.382700D+00  0.100000D+01
   p     1 1.00
  0.120900D+00  0.100000D+01
   d     1 1.00
  0.109700D+01  0.100000D+01
   d     1 1.00
  0.318000D+00  0.100000D+01
   f     1 1.00
  0.761000D+00  0.100000D+01
  
  4  0
   s    10 1.00
  0.823600D+04  0.531000D-03
  0.123500D+04  0.410800D-02
  0.280800D+03  0.210870D-01
  0.792700D+02  0.818530D-01
  0.255900D+02  0.234817D+00
  0.899700D+01  0.434401D+00
  0.331900D+01  0.346129D+00
  0.905900D+00  0.393780D-01
  0.364300D+00 -0.898300D-02
  0.128500D+00  0.238500D-02
   s    10 1.00
  0.823600D+04 -0.113000D-03
  0.123500D+04 -0.878000D-03
  0.280800D+03 -0.454000D-02
  0.792700D+02 -0.181330D-01
  0.255900D+02 -0.557600D-01
  0.899700D+01 -0.126895D+00
  0.331900D+01 -0.170352D+00
  0.905900D+00  0.140382D+00
  0.364300D+00  0.598684D+00
  0.128500D+00  0.395389D+00
   s     1 1.00
  0.905900D+00  0.100000D+01
   s     1 1.00
  0.364300D+00  0.100000D+01
   p     5 1.00
  0.187100D+02  0.140310D-01
  0.413300D+01  0.868660D-01
  0.120000D+01  0.290216D+00
  0.382700D+00  0.501008D+00
  0.120900D+00  0.343406D+00
   p     1 1.00
  0.382700D+00  0.100000D+01
   p     1 1.00
  0.120900D+00  0.100000D+01
   d     1 1.00
  0.109700D+01  0.100000D+01
   d     1 1.00
  0.318000D+00  0.100000D+01
   f     1 1.00
  0.761000D+00  0.100000D+01
  
  5  0
   s    10 1.00
  0.823600D+04  0.531000D-03
  0.123500D+04  0.410800D-02
  0.280800D+03  0.210870D-01
  0.792700D+02  0.818530D-01
  0.255900D+02  0.234817D+00
  0.899700D+01  0.434401D+00
  0.331900D+01  0.346129D+00
  0.905900D+00  0.393780D-01
  0.364300D+00 -0.898300D-02
  0.128500D+00  0.238500D-02
   s    10 1.00
  0.823600D+04 -0.113000D-03
  0.123500D+04 -0.878000D-03
  0.280800D+03 -0.454000D-02
  0.792700D+02 -0.181330D-01
  0.255900D+02 -0.557600D-01
  0.899700D+01 -0.126895D+00
  0.331900D+01 -0.170352D+00
  0.905900D+00  0.140382D+00
  0.364300D+00  0.598684D+00
  0.128500D+00  0.395389D+00
   s     1 1.00
  0.905900D+00  0.100000D+01
   s     1 1.00
  0.364300D+00  0.100000D+01
   p     5 1.00
  0.187100D+02  0.140310D-01
  0.413300D+01  0.868660D-01
  0.120000D+01  0.290216D+00
  0.382700D+00  0.501008D+00
  0.120900D+00  0.343406D+00
   p     1 1.00
  0.382700D+00  0.100000D+01
   p     1 1.00
  0.120900D+00  0.100000D+01
   d     1 1.00
  0.109700D+01  0.100000D+01
   d     1 1.00
  0.318000D+00  0.100000D+01
   f     1 1.00
  0.761000D+00  0.100000D+01
  
  6  0
   s    10 1.00
  0.823600D+04  0.531000D-03
  0.123500D+04  0.410800D-02
  0.280800D+03  0.210870D-01
  0.792700D+02  0.818530D-01
  0.255900D+02  0.234817D+00
  0.899700D+01  0.434401D+00
  0.331900D+01  0.346129D+00
  0.905900D+00  0.393780D-01
  0.364300D+00 -0.898300D-02
  0.128500D+00  0.238500D-02
   s    10 1.00
  0.823600D+04 -0.113000D-03
  0.123500D+04 -0.878000D-03
  0.280800D+03 -0.454000D-02
  0.792700D+02 -0.181330D-01
  0.255900D+02 -0.557600D-01
  0.899700D+01 -0.126895D+00
  0.331900D+01 -0.170352D+00
  0.905900D+00  0.140382D+00
  0.364300D+00  0.598684D+00
  0.128500D+00  0.395389D+00
   s     1 1.00
  0.905900D+00  0.100000D+01
   s     1 1.00
  0.364300D+00  0.100000D+01
   p     5 1.00
  0.187100D+02  0.140310D-01
  0.413300D+01  0.868660D-01
  0.120000D+01  0.290216D+00
  0.382700D+00  0.501008D+00
  0.120900D+00  0.343406D+00
   p     1 1.00
  0.382700D+00  0.100000D+01
   p     1 1.00
  0.120900D+00  0.100000D+01
   d     1 1.00
  0.109700D+01  0.100000D+01
   d     1 1.00
  0.318000D+00  0.100000D+01
   f     1 1.00
  0.761000D+00  0.100000D+01
  
  7  0
   s    10 1.00
  0.823600D+04  0.531000D-03
  0.123500D+04  0.410800D-02
  0.280800D+03  0.210870D-01
  0.792700D+02  0.818530D-01
  0.255900D+02  0.234817D+00
  0.899700D+01  0.434401D+00
  0.331900D+01  0.346129D+00
  0.905900D+00  0.393780D-01
  0.364300D+00 -0.898300D-02
  0.128500D+00  0.238500D-02
   s    10 1.00
  0.823600D+04 -0.113000D-03
  0.123500D+04 -0.878000D-03
  0.280800D+03 -0.454000D-02
  0.792700D+02 -0.181330D-01
  0.255900D+02 -0.557600D-01
  0.899700D+01 -0.126895D+00
  0.331900D+01 -0.170352D+00
  0.905900D+00  0.140382D+00
  0.364300D+00  0.598684D+00
  0.128500D+00  0.395389D+00
   s     1 1.00
  0.905900D+00  0.100000D+01
   s     1 1.00
  0.364300D+00  0.100000D+01
   p     5 1.00
  0.187100D+02  0.140310D-01
  0.413300D+01  0.868660D-01
  0.120000D+01  0.290216D+00
  0.382700D+00  0.501008D+00
  0.120900D+00  0.343406D+00
   p     1 1.00
  0.382700D+00  0.100000D+01
   p     1 1.00
  0.120900D+00  0.100000D+01
   d     1 1.00
  0.109700D+01  0.100000D+01
   d     1 1.00
  0.318000D+00  0.100000D+01
   f     1 1.00
  0.761000D+00  0.100000D+01
  
  8  0
   s     4 1.00
  0.130100D+02  0.196850D-01
  0.196200D+01  0.137977D+00
  0.444600D+00  0.478148D+00
  0.122000D+00  0.501240D+00
   s     1 1.00
  0.122000D+00  0.100000D+01
   p     1 1.00
  0.727000D+00  0.100000D+01
  
  9  0
   s     4 1.00
  0.130100D+02  0.196850D-01
  0.196200D+01  0.137977D+00
  0.444600D+00  0.478148D+00
  0.122000D+00  0.501240D+00
   s     1 1.00
  0.122000D+00  0.100000D+01
   p     1 1.00
  0.727000D+00  0.100000D+01
  
 10  0
   s     4 1.00
  0.130100D+02  0.196850D-01
  0.196200D+01  0.137977D+00
  0.444600D+00  0.478148D+00
  0.122000D+00  0.501240D+00
   s     1 1.00
  0.122000D+00  0.100000D+01
   p     1 1.00
  0.727000D+00  0.100000D+01
  
 11  0
   s     4 1.00
  0.130100D+02  0.196850D-01
  0.196200D+01  0.137977D+00
  0.444600D+00  0.478148D+00
  0.122000D+00  0.501240D+00
   s     1 1.00
  0.122000D+00  0.100000D+01
   p     1 1.00
  0.727000D+00  0.100000D+01
  
 12  0
   s     4 1.00
  0.130100D+02  0.196850D-01
  0.196200D+01  0.137977D+00
  0.444600D+00  0.478148D+00
  0.122000D+00  0.501240D+00
   s     1 1.00
  0.122000D+00  0.100000D+01
   p     1 1.00
  0.727000D+00  0.100000D+01
  
 13  0
   s     4 1.00
  0.130100D+02  0.196850D-01
  0.196200D+01  0.137977D+00
  0.444600D+00  0.478148D+00
  0.122000D+00  0.501240D+00
   s     1 1.00
  0.122000D+00  0.100000D+01
   p     1 1.00
  0.727000D+00  0.100000D+01
  
 14  0
   s     4 1.00
  0.130100D+02  0.196850D-01
  0.196200D+01  0.137977D+00
  0.444600D+00  0.478148D+00
  0.122000D+00  0.501240D+00
   s     1 1.00
  0.122000D+00  0.100000D+01
   p     1 1.00
  0.727000D+00  0.100000D+01
  
[MO]
 Sym= __1_A__
 Ene=   1.00000000000000     
 Spin= Alpha
 Occup=    1.00000000000000     
                     1 -6.900275090803406E-004
                     2  0.997674604629911     
                     3 -3.762263699246085E-002
                     4  1.881241049360287E-003
                     5  4.006331287209867E-003
                     6  1.375127471057474E-002
                     7 -3.026496625734786E-003
                     8  2.875787772064834E-002
                     9 -1.373734151283760E-003
                    10  1.973379179481220E-004
                    11 -1.991686520620671E-003
                    12 -3.703925559476478E-003
                    13  5.909097766065378E-004
                    14 -5.863840376294041E-003
                    15  1.751519536448365E-004
                    16  8.758560912817505E-005
                    17 -4.023305390688901E-005
                    18  5.107745901258480E-005
                    19 -7.329220462357018E-006
                    20  7.690784626862132E-004
                    21  7.818691275268777E-004
                    22 -1.502630437156961E-004
                    23  1.045595199675420E-004
                    24 -8.663368044382338E-005
                    25  2.975948109830059E-005
                    26 -5.411082404292700E-005
                    27 -2.371381891577971E-006
                    28  4.859261622809914E-005
                    29  2.252363166506870E-005
                    30  6.204901216969720E-005
                    31 -1.275281846727709E-005
                    32 -5.166538708537124E-004
                    33  4.100855539465597E-004
                    34  2.101084970931307E-004
                    35  2.192842254409432E-004
                    36  1.354313770870144E-003
                    37  1.542983669581521E-004
                    38 -9.639388671445148E-004
                    39 -7.553348081760189E-004
                    40 -4.358006543775631E-005
                    41  1.811563106106895E-004
                    42  2.487269905163019E-003
                    43  1.803818368600097E-004
                    44 -9.060068839430623E-004
                    45  6.572905075770905E-005
                    46 -4.034121270408531E-004
                    47 -1.544083346072847E-005
                    48 -8.593463207833379E-005
                    49  4.315795286699220E-005
                    50 -9.049176887796925E-005
                    51 -3.149903268764267E-004
                    52  6.377740134199954E-006
                    53  2.587165444881444E-005
                    54  3.905195168430980E-005
                    55  1.230532097785437E-004
                    56 -2.766404768921417E-007
                    57  1.090844989109447E-005
                    58  1.340353858636117E-004
                    59 -1.763592456456186E-008
                    60 -5.426245047456678E-005
                    61 -1.478999246794756E-005
                    62 -7.610658321645488E-004
                    63  8.417403806704557E-004
                    64 -1.363741988986177E-004
                    65  2.719796256303637E-003
                    66 -4.124820974931154E-003
                    67 -2.276264880658298E-004
                    68  9.023521861648673E-004
                    69  5.823917286292958E-004
                    70 -3.689043058616503E-005
                    71  4.518806313228080E-004
                    72  1.089546635273643E-003
                    73  3.169554082525649E-004
                    74 -2.393622049095233E-003
                    75  1.434229191597531E-004
                    76 -7.190794798379768E-005
                    77 -3.239960668567802E-005
                    78  1.789797043445083E-006
                    79  8.792875133139834E-006
                    80  2.852962700888356E-005
                    81 -3.066275134844605E-004
                    82 -1.093824255039516E-005
                    83 -3.485113703447608E-005
                    84  3.457642650541661E-005
                    85 -2.660494258388416E-005
                    86 -1.510104066507562E-004
                    87 -1.033637628038311E-005
                    88 -1.179421110469609E-005
                    89  1.775462673520799E-005
                    90 -7.044496049124985E-005
                    91  7.688942534754980E-006
                    92  4.019450333728323E-005
                    93 -1.145204626213478E-003
                    94  2.703726835217153E-004
                    95 -1.005151432093992E-003
                    96 -1.385675391385692E-004
                    97 -1.508797453702882E-004
                    98  1.232299036584485E-003
                    99 -2.477302461013916E-006
                   100 -1.068429615976415E-005
                   101  8.906082606066179E-005
                   102 -1.081217756368136E-003
                   103  6.599798369801401E-005
                   104 -8.180202029402117E-004
                   105 -5.925423127387397E-005
                   106 -3.186273236113476E-006
                   107  6.045578761011343E-006
                   108  5.174201993297476E-005
                   109  3.374614638679333E-006
                   110  9.662102528959832E-005
                   111  3.749915683962210E-004
                   112  6.129548634886232E-006
                   113 -1.249269970206630E-004
                   114 -5.202502755832510E-005
                   115 -3.573237547023917E-005
                   116  3.454437326756347E-006
                   117 -5.861346288566038E-006
                   118 -2.472901427108092E-005
                   119  3.371386459116842E-007
                   120  1.648224698129702E-005
                   121  2.122879762338940E-006
                   122 -2.663536012929964E-004
                   123 -2.051852140782494E-003
                   124  1.517330134132244E-004
                   125  4.757926642813466E-004
                   126  2.108369420446727E-003
                   127  8.294065931406301E-005
                   128 -1.808653403500105E-004
                   129  3.788373005997305E-004
                   130 -2.458189567914063E-005
                   131  2.988461267365396E-004
                   132  3.648358244095164E-004
                   133 -1.118066123200224E-004
                   134  1.027407423298431E-003
                   135  7.343231620884578E-005
                   136 -2.514818189973033E-005
                   137 -7.610263217023448E-006
                   138 -7.034625327020827E-005
                   139 -1.074076198188231E-006
                   140  2.003370070239990E-004
                   141  5.284814872531338E-005
                   142 -8.793514958741046E-006
                   143 -2.607131496721244E-004
                   144 -2.146777855421692E-005
                   145 -3.962201740291272E-006
                   146 -3.783162875275653E-005
                   147 -6.357886428207421E-006
                   148  2.083243987876802E-005
                   149 -3.125512937356302E-006
                   150 -7.830251953119104E-005
                   151  3.780352248915405E-006
                   152 -9.757765819521389E-005
                   153 -8.877846139760764E-005
                   154 -7.083355873157779E-005
                   155  7.370027814336757E-004
                   156  4.221922438585236E-004
                   157 -9.888878997699252E-006
                   158  1.861407885007131E-004
                   159 -3.770734080472890E-004
                   160 -4.253902829236890E-006
                   161 -5.643279809983757E-005
                   162 -4.034311651253074E-006
                   163 -1.235702698692046E-004
                   164  1.035997425714440E-003
                   165  2.992631842379467E-006
                   166 -1.630852111624457E-005
                   167 -3.224538437215704E-006
                   168  1.741975939536589E-005
                   169  2.971370708119628E-006
                   170 -7.429993440007142E-005
                   171  3.160593240247126E-005
                   172  2.924260872856504E-005
                   173 -1.052103821708668E-004
                   174 -1.000198505330547E-005
                   175  3.658037642419586E-006
                   176 -1.943416064985258E-005
                   177  1.646333992736627E-007
                   178  1.735163256563978E-006
                   179  3.146590809621484E-006
                   180 -4.533393858268499E-006
                   181  1.224226342429365E-007
                   182 -1.017565328090401E-004
                   183 -6.812674964592677E-005
                   184  2.000622230957532E-005
                   185  2.259257682301563E-004
                   186 -2.769291044438420E-004
                   187  8.812129893847238E-006
                   188 -1.416154784349787E-004
                   189  1.350470106230539E-004
                   190 -3.945870655382546E-005
                   191  3.641332528850812E-004
                   192 -4.333085662527892E-004
                   193 -7.195935519574283E-005
                   194  4.979954497234020E-004
                   195  3.305455092000890E-005
                   196 -1.655231657937552E-005
                   197 -5.439175283121369E-006
                   198 -1.632974483486353E-005
                   199  1.041225728082270E-006
                   200 -5.538604518901819E-006
                   201 -1.869935431283617E-004
                   202 -2.393210886194778E-006
                   203 -1.692740912674778E-005
                   204  2.132344086379410E-005
                   205 -1.184326796934196E-006
                   206  3.392055648551163E-006
                   207 -2.081617540938423E-006
                   208  9.319916551695543E-006
                   209 -7.892664214488479E-007
                   210 -4.793075479791991E-006
                   211 -9.595472123498954E-007
                   212 -2.033429678634864E-003
                   213  1.918459069233926E-003
                   214  1.681847226628793E-004
                   215 -1.053914928980125E-004
                   216  3.776515590449743E-004
                   217 -2.033429882152310E-003
                   218  1.918459039528488E-003
                   219  1.644392498837643E-004
                   220  2.324530339945811E-005
                   221  3.929803610047366E-004
                   222  2.079450226770343E-003
                   223 -2.189127760242271E-003
                   224  1.582583350837475E-005
                   225 -1.775657630233028E-005
                   226  1.528776320879420E-004
                   227  4.290970196327312E-004
                   228  4.750150351876526E-004
                   229 -4.810676291184745E-005
                   230  1.169686405683446E-005
                   231 -1.099115791905024E-004
                   232  9.204346221939596E-004
                   233  2.748597007240924E-004
                   234  5.144673936626905E-006
                   235 -5.861425727973831E-006
                   236  5.044551449043136E-005
                   237  2.472099472211412E-004
                   238 -7.740770873322456E-004
                   239 -4.278648204834790E-005
                   240  2.258229539169822E-006
                   241 -2.940580935911075E-005
                   242 -3.964974327442703E-004
                   243  2.591944434889164E-004
                   244  3.226708978853672E-005
                   245  1.646411763770251E-006
                   246 -5.932652366064550E-006
 Sym= __2_A__
 Ene=   2.00000000000000     
 Spin= Alpha
 Occup=    1.00000000000000     
                     1 -5.391165208401297E-005
                     2  1.457204855776709E-004
                     3 -1.270524252042719E-003
                     4 -1.741977941608211E-005
                     5  9.310784709035686E-004
                     6  1.590290798251657E-003
                     7 -1.284090197814298E-004
                     8  1.466160473687809E-003
                     9 -1.582359266948463E-004
                    10  1.275358018995257E-005
                    11 -1.456895398680236E-004
                    12  1.379735394096202E-004
                    13  2.405634568375480E-005
                    14 -1.681648352645252E-004
                    15 -4.247043425939691E-005
                    16  3.153271282670539E-005
                    17  3.728492143680130E-006
                    18  5.044506671091202E-005
                    19 -8.336232516880258E-007
                    20  7.503241315526823E-005
                    21 -5.398712664632464E-005
                    22 -2.816440943362437E-005
                    23  8.950341476437650E-005
                    24  1.175279439394006E-005
                    25 -2.881163049048519E-005
                    26  1.263308578290816E-004
                    27  7.766892702606372E-006
                    28 -6.455349053045080E-005
                    29 -1.117807375752647E-005
                    30  1.136890402813593E-004
                    31 -3.602010259889761E-007
                    32   1.00083803319662     
                    33  8.469107013780779E-003
                    34  2.852161033979695E-003
                    35 -8.435492250976529E-003
                    36 -1.150322424403210E-003
                    37 -4.501707563085881E-005
                    38  9.670712378850533E-005
                    39  7.704124145248638E-004
                    40  7.830737235571917E-005
                    41 -4.689011105306502E-004
                    42  2.358292822344180E-003
                    43  1.366418200479944E-005
                    44  4.615553264560292E-004
                    45  3.262965505517476E-004
                    46 -2.381920581140801E-005
                    47 -1.053267617469001E-004
                    48  2.997515323307374E-004
                    49  2.067660953989388E-005
                    50 -1.023656790417183E-003
                    51 -4.213778030629340E-004
                    52  2.157555064729652E-004
                    53 -1.160632366439921E-004
                    54  4.274163293091426E-005
                    55 -2.354166137980658E-005
                    56  2.521018725115651E-004
                    57  6.721105116961838E-006
                    58 -3.077175611678216E-005
                    59 -4.032327520272785E-005
                    60  6.582207271106638E-005
                    61 -9.144561335766492E-007
                    62  1.639077484510060E-002
                    63 -1.260381728202026E-003
                    64 -2.893563009300743E-004
                    65  2.723221085942376E-003
                    66 -5.107400735167401E-004
                    67 -7.383955012781142E-005
                    68  4.948570810233253E-004
                    69  2.502283549910258E-005
                    70 -3.062188001651209E-005
                    71  2.630882902200943E-004
                    72  1.669876680232413E-004
                    73  2.175924939639090E-004
                    74 -1.785203581830856E-003
                    75  2.063112409079001E-005
                    76  2.485918111226909E-005
                    77  2.671096480060045E-006
                    78 -5.158272495207444E-005
                    79 -5.980452347376340E-006
                    80 -5.762771130371438E-004
                    81 -3.909655341348110E-004
                    82  1.031131202657042E-005
                    83  8.145677482598484E-004
                    84  9.406763063143201E-005
                    85  3.400370014357228E-005
                    86  1.061928001629957E-004
                    87  1.977331194366389E-005
                    88 -3.099219962212954E-005
                    89 -2.618781024893112E-005
                    90 -2.617286415945107E-005
                    91  7.211054383294956E-006
                    92  1.879889927519688E-002
                    93 -1.748711786929466E-003
                    94 -3.451525479660518E-004
                    95  3.421214465285520E-003
                    96 -2.848971712012414E-004
                    97  2.856836972620764E-005
                    98 -3.093530711956510E-004
                    99 -1.324479889842252E-004
                   100  9.472914395875976E-005
                   101 -8.273152785102372E-004
                   102  4.091167791408282E-004
                   103 -1.613302631053064E-004
                   104  1.453824483480444E-003
                   105  9.234311286738577E-006
                   106 -1.613870119705800E-006
                   107  6.321369269423256E-007
                   108 -2.158645763609504E-005
                   109 -1.067811640476134E-006
                   110 -1.348188888378531E-004
                   111  5.496310630379125E-004
                   112 -2.946775499750986E-005
                   113  6.124478159732794E-004
                   114 -2.975504924725437E-005
                   115 -4.397165846845176E-005
                   116  7.903593083883581E-005
                   117 -1.399943119899617E-005
                   118  1.628063682464202E-005
                   119 -1.816597665871567E-005
                   120 -2.758811321122685E-005
                   121  3.370736378538146E-008
                   122 -3.382849947651928E-005
                   123 -7.738823673035694E-004
                   124  2.461611831692081E-004
                   125 -4.486336955713749E-004
                   126  3.245716976669153E-005
                   127  8.273951490110041E-006
                   128 -6.150561657781757E-005
                   129  6.217415910146551E-004
                   130  1.096518251033905E-005
                   131  5.990402299109365E-005
                   132  1.888244866411698E-004
                   133 -4.645167706002827E-005
                   134  4.359569972022633E-004
                   135  3.525694259660239E-006
                   136  3.431261943925557E-005
                   137  5.406965719962457E-006
                   138 -4.226160656871812E-005
                   139 -6.574163977999799E-006
                   140  1.849223557284205E-004
                   141 -3.110448108309421E-004
                   142 -2.188251032994489E-005
                   143 -2.159758449906268E-004
                   144  2.458602395479024E-005
                   145 -6.180217613202569E-006
                   146  1.069122694601774E-005
                   147 -1.687816246263385E-006
                   148  9.322655424535410E-007
                   149 -4.764935040804077E-006
                   150 -1.871815170831924E-005
                   151  1.524279826687599E-006
                   152  6.228338881957783E-005
                   153 -7.681904310023510E-004
                   154  2.283468914395987E-004
                   155 -1.250271997241302E-004
                   156 -6.073204659883530E-005
                   157 -7.774533586163920E-006
                   158  5.040461114399586E-005
                   159  4.698586083879855E-004
                   160  1.610179264289938E-005