[Molden Format]
[Atoms] AU
  N     1    7    -4.4035399800    0.1182791400    0.0000000000        
  C     2    6    -1.7784225500   -0.0379221500    0.0000000000        
  C     3    6    -0.4689801700   -0.0051215600   -2.3532722600        
  C     4    6    -0.4689801700   -0.0051215600    2.3532722600        
  C     5    6     2.2199636300    0.0066729900   -2.3299531000        
  C     6    6     2.2199636300    0.0066729900    2.3299531000        
  C     7    6     3.5159585800    0.0058223500    0.0000000000        
  H     8    1    -5.2262840100   -0.5745222100   -1.5933755500        
  H     9    1    -5.2262840100   -0.5745222100    1.5933755500        
  H    10    1    -1.5057999900    0.0210304000   -4.0903025200        
  H    11    1    -1.5057999900    0.0210304000    4.0903025200        
  H    12    1     3.2567194000    0.0151023800   -4.0679990300        
  H    13    1     3.2567194000    0.0151023800    4.0679990300        
  H    14    1     5.5450114000    0.0174614600    0.0000000000        
[5D]
[7F]
[GTO]
  1  0
   s    12 1.00
  0.114200D+05  0.172695D-04
  0.171200D+04  0.134411D-03
  0.389300D+03  0.694561D-03
  0.110000D+03  0.278531D-02
  0.355700D+02  0.863457D-02
  0.125400D+02  0.199805D-01
  0.464400D+01  0.262908D-01
  0.129300D+01 -0.243845D-01
  0.511800D+00 -0.924934D-01
  0.178700D+00 -0.339683D+00
  0.246240D-01  0.345111D+00
  0.112530D-01  0.752750D+00
   s    10 1.00
  0.114200D+05  0.523000D-03
  0.171200D+04  0.404500D-02
  0.389300D+03  0.207750D-01
  0.110000D+03  0.807269D-01
  0.355700D+02  0.233074D+00
  0.125400D+02  0.433501D+00
  0.464400D+01  0.347472D+00
  0.129300D+01  0.412620D-01
  0.511800D+00 -0.850799D-02
  0.178700D+00  0.238400D-02
   s    10 1.00
  0.114200D+05 -0.115000D-03
  0.171200D+04 -0.895000D-03
  0.389300D+03 -0.462400D-02
  0.110000D+03 -0.185280D-01
  0.355700D+02 -0.573390D-01
  0.125400D+02 -0.132076D+00
  0.464400D+01 -0.172510D+00
  0.129300D+01  0.151814D+00
  0.511800D+00  0.599944D+00
  0.178700D+00  0.387462D+00
   s     1 1.00
  0.129300D+01  0.100000D+01
   s     1 1.00
  0.178700D+00  0.100000D+01
   p     5 1.00
  0.266300D+02  0.146700D-01
  0.594800D+01  0.917640D-01
  0.174200D+01  0.298683D+00
  0.555000D+00  0.498487D+00
  0.172500D+00  0.337023D+00
   p     1 1.00
  0.174200D+01  0.100000D+01
   p     1 1.00
  0.555000D+00  0.100000D+01
   d     1 1.00
  0.165400D+01  0.100000D+01
   d     1 1.00
  0.469000D+00  0.100000D+01
   f     1 1.00
  0.109300D+01  0.100000D+01
  
  2  0
   s    10 1.00
  0.823600D+04  0.531000D-03
  0.123500D+04  0.410800D-02
  0.280800D+03  0.210870D-01
  0.792700D+02  0.818530D-01
  0.255900D+02  0.234817D+00
  0.899700D+01  0.434401D+00
  0.331900D+01  0.346129D+00
  0.905900D+00  0.393780D-01
  0.364300D+00 -0.898300D-02
  0.128500D+00  0.238500D-02
   s    10 1.00
  0.823600D+04 -0.113000D-03
  0.123500D+04 -0.878000D-03
  0.280800D+03 -0.454000D-02
  0.792700D+02 -0.181330D-01
  0.255900D+02 -0.557600D-01
  0.899700D+01 -0.126895D+00
  0.331900D+01 -0.170352D+00
  0.905900D+00  0.140382D+00
  0.364300D+00  0.598684D+00
  0.128500D+00  0.395389D+00
   s     1 1.00
  0.905900D+00  0.100000D+01
   s     1 1.00
  0.364300D+00  0.100000D+01
   p     5 1.00
  0.187100D+02  0.140310D-01
  0.413300D+01  0.868660D-01
  0.120000D+01  0.290216D+00
  0.382700D+00  0.501008D+00
  0.120900D+00  0.343406D+00
   p     1 1.00
  0.382700D+00  0.100000D+01
   p     1 1.00
  0.120900D+00  0.100000D+01
   d     1 1.00
  0.109700D+01  0.100000D+01
   d     1 1.00
  0.318000D+00  0.100000D+01
   f     1 1.00
  0.761000D+00  0.100000D+01
  
  3  0
   s    10 1.00
  0.823600D+04  0.531000D-03
  0.123500D+04  0.410800D-02
  0.280800D+03  0.210870D-01
  0.792700D+02  0.818530D-01
  0.255900D+02  0.234817D+00
  0.899700D+01  0.434401D+00
  0.331900D+01  0.346129D+00
  0.905900D+00  0.393780D-01
  0.364300D+00 -0.898300D-02
  0.128500D+00  0.238500D-02
   s    10 1.00
  0.823600D+04 -0.113000D-03
  0.123500D+04 -0.878000D-03
  0.280800D+03 -0.454000D-02
  0.792700D+02 -0.181330D-01
  0.255900D+02 -0.557600D-01
  0.899700D+01 -0.126895D+00
  0.331900D+01 -0.170352D+00
  0.905900D+00  0.140382D+00
  0.364300D+00  0.598684D+00
  0.128500D+00  0.395389D+00
   s     1 1.00
  0.905900D+00  0.100000D+01
   s     1 1.00
  0.364300D+00  0.100000D+01
   p     5 1.00
  0.187100D+02  0.140310D-01
  0.413300D+01  0.868660D-01
  0.120000D+01  0.290216D+00
  0.382700D+00  0.501008D+00
  0.120900D+00  0.343406D+00
   p     1 1.00
  0.382700D+00  0.100000D+01
   p     1 1.00
  0.120900D+00  0.100000D+01
   d     1 1.00
  0.109700D+01  0.100000D+01
   d     1 1.00
  0.318000D+00  0.100000D+01
   f     1 1.00
  0.761000D+00  0.100000D+01
  
  4  0
   s    10 1.00
  0.823600D+04  0.531000D-03
  0.123500D+04  0.410800D-02
  0.280800D+03  0.210870D-01
  0.792700D+02  0.818530D-01
  0.255900D+02  0.234817D+00
  0.899700D+01  0.434401D+00
  0.331900D+01  0.346129D+00
  0.905900D+00  0.393780D-01
  0.364300D+00 -0.898300D-02
  0.128500D+00  0.238500D-02
   s    10 1.00
  0.823600D+04 -0.113000D-03
  0.123500D+04 -0.878000D-03
  0.280800D+03 -0.454000D-02
  0.792700D+02 -0.181330D-01
  0.255900D+02 -0.557600D-01
  0.899700D+01 -0.126895D+00
  0.331900D+01 -0.170352D+00
  0.905900D+00  0.140382D+00
  0.364300D+00  0.598684D+00
  0.128500D+00  0.395389D+00
   s     1 1.00
  0.905900D+00  0.100000D+01
   s     1 1.00
  0.364300D+00  0.100000D+01
   p     5 1.00
  0.187100D+02  0.140310D-01
  0.413300D+01  0.868660D-01
  0.120000D+01  0.290216D+00
  0.382700D+00  0.501008D+00
  0.120900D+00  0.343406D+00
   p     1 1.00
  0.382700D+00  0.100000D+01
   p     1 1.00
  0.120900D+00  0.100000D+01
   d     1 1.00
  0.109700D+01  0.100000D+01
   d     1 1.00
  0.318000D+00  0.100000D+01
   f     1 1.00
  0.761000D+00  0.100000D+01
  
  5  0
   s    10 1.00
  0.823600D+04  0.531000D-03
  0.123500D+04  0.410800D-02
  0.280800D+03  0.210870D-01
  0.792700D+02  0.818530D-01
  0.255900D+02  0.234817D+00
  0.899700D+01  0.434401D+00
  0.331900D+01  0.346129D+00
  0.905900D+00  0.393780D-01
  0.364300D+00 -0.898300D-02
  0.128500D+00  0.238500D-02
   s    10 1.00
  0.823600D+04 -0.113000D-03
  0.123500D+04 -0.878000D-03
  0.280800D+03 -0.454000D-02
  0.792700D+02 -0.181330D-01
  0.255900D+02 -0.557600D-01
  0.899700D+01 -0.126895D+00
  0.331900D+01 -0.170352D+00
  0.905900D+00  0.140382D+00
  0.364300D+00  0.598684D+00
  0.128500D+00  0.395389D+00
   s     1 1.00
  0.905900D+00  0.100000D+01
   s     1 1.00
  0.364300D+00  0.100000D+01
   p     5 1.00
  0.187100D+02  0.140310D-01
  0.413300D+01  0.868660D-01
  0.120000D+01  0.290216D+00
  0.382700D+00  0.501008D+00
  0.120900D+00  0.343406D+00
   p     1 1.00
  0.382700D+00  0.100000D+01
   p     1 1.00
  0.120900D+00  0.100000D+01
   d     1 1.00
  0.109700D+01  0.100000D+01
   d     1 1.00
  0.318000D+00  0.100000D+01
   f     1 1.00
  0.761000D+00  0.100000D+01
  
  6  0
   s    10 1.00
  0.823600D+04  0.531000D-03
  0.123500D+04  0.410800D-02
  0.280800D+03  0.210870D-01
  0.792700D+02  0.818530D-01
  0.255900D+02  0.234817D+00
  0.899700D+01  0.434401D+00
  0.331900D+01  0.346129D+00
  0.905900D+00  0.393780D-01
  0.364300D+00 -0.898300D-02
  0.128500D+00  0.238500D-02
   s    10 1.00
  0.823600D+04 -0.113000D-03
  0.123500D+04 -0.878000D-03
  0.280800D+03 -0.454000D-02
  0.792700D+02 -0.181330D-01
  0.255900D+02 -0.557600D-01
  0.899700D+01 -0.126895D+00
  0.331900D+01 -0.170352D+00
  0.905900D+00  0.140382D+00
  0.364300D+00  0.598684D+00
  0.128500D+00  0.395389D+00
   s     1 1.00
  0.905900D+00  0.100000D+01
   s     1 1.00
  0.364300D+00  0.100000D+01
   p     5 1.00
  0.187100D+02  0.140310D-01
  0.413300D+01  0.868660D-01
  0.120000D+01  0.290216D+00
  0.382700D+00  0.501008D+00
  0.120900D+00  0.343406D+00
   p     1 1.00
  0.382700D+00  0.100000D+01
   p     1 1.00
  0.120900D+00  0.100000D+01
   d     1 1.00
  0.109700D+01  0.100000D+01
   d     1 1.00
  0.318000D+00  0.100000D+01
   f     1 1.00
  0.761000D+00  0.100000D+01
  
  7  0
   s    10 1.00
  0.823600D+04  0.531000D-03
  0.123500D+04  0.410800D-02
  0.280800D+03  0.210870D-01
  0.792700D+02  0.818530D-01
  0.255900D+02  0.234817D+00
  0.899700D+01  0.434401D+00
  0.331900D+01  0.346129D+00
  0.905900D+00  0.393780D-01
  0.364300D+00 -0.898300D-02
  0.128500D+00  0.238500D-02
   s    10 1.00
  0.823600D+04 -0.113000D-03
  0.123500D+04 -0.878000D-03
  0.280800D+03 -0.454000D-02
  0.792700D+02 -0.181330D-01
  0.255900D+02 -0.557600D-01
  0.899700D+01 -0.126895D+00
  0.331900D+01 -0.170352D+00
  0.905900D+00  0.140382D+00
  0.364300D+00  0.598684D+00
  0.128500D+00  0.395389D+00
   s     1 1.00
  0.905900D+00  0.100000D+01
   s     1 1.00
  0.364300D+00  0.100000D+01
   p     5 1.00
  0.187100D+02  0.140310D-01
  0.413300D+01  0.868660D-01
  0.120000D+01  0.290216D+00
  0.382700D+00  0.501008D+00
  0.120900D+00  0.343406D+00
   p     1 1.00
  0.382700D+00  0.100000D+01
   p     1 1.00
  0.120900D+00  0.100000D+01
   d     1 1.00
  0.109700D+01  0.100000D+01
   d     1 1.00
  0.318000D+00  0.100000D+01
   f     1 1.00
  0.761000D+00  0.100000D+01
  
  8  0
   s     4 1.00
  0.130100D+02  0.196850D-01
  0.196200D+01  0.137977D+00
  0.444600D+00  0.478148D+00
  0.122000D+00  0.501240D+00
   s     1 1.00
  0.122000D+00  0.100000D+01
   p     1 1.00
  0.727000D+00  0.100000D+01
  
  9  0
   s     4 1.00
  0.130100D+02  0.196850D-01
  0.196200D+01  0.137977D+00
  0.444600D+00  0.478148D+00
  0.122000D+00  0.501240D+00
   s     1 1.00
  0.122000D+00  0.100000D+01
   p     1 1.00
  0.727000D+00  0.100000D+01
  
 10  0
   s     4 1.00
  0.130100D+02  0.196850D-01
  0.196200D+01  0.137977D+00
  0.444600D+00  0.478148D+00
  0.122000D+00  0.501240D+00
   s     1 1.00
  0.122000D+00  0.100000D+01
   p     1 1.00
  0.727000D+00  0.100000D+01
  
 11  0
   s     4 1.00
  0.130100D+02  0.196850D-01
  0.196200D+01  0.137977D+00
  0.444600D+00  0.478148D+00
  0.122000D+00  0.501240D+00
   s     1 1.00
  0.122000D+00  0.100000D+01
   p     1 1.00
  0.727000D+00  0.100000D+01
  
 12  0
   s     4 1.00
  0.130100D+02  0.196850D-01
  0.196200D+01  0.137977D+00
  0.444600D+00  0.478148D+00
  0.122000D+00  0.501240D+00
   s     1 1.00
  0.122000D+00  0.100000D+01
   p     1 1.00
  0.727000D+00  0.100000D+01
  
 13  0
   s     4 1.00
  0.130100D+02  0.196850D-01
  0.196200D+01  0.137977D+00
  0.444600D+00  0.478148D+00
  0.122000D+00  0.501240D+00
   s     1 1.00
  0.122000D+00  0.100000D+01
   p     1 1.00
  0.727000D+00  0.100000D+01
  
 14  0
   s     4 1.00
  0.130100D+02  0.196850D-01
  0.196200D+01  0.137977D+00
  0.444600D+00  0.478148D+00
  0.122000D+00  0.501240D+00
   s     1 1.00
  0.122000D+00  0.100000D+01
   p     1 1.00
  0.727000D+00  0.100000D+01
  
[MO]
 Sym= __1_A__
 Ene=   1.00000000000000     
 Spin= Alpha
 Occup=    1.00000000000000     
                     1  1.693038280842334E-004
                     2  0.998076181450435     
                     3  5.584386295384540E-003
                     4  1.977184067764053E-003
                     5  4.280984887480524E-003
                     6  4.886849065042540E-003
                     7 -3.689499098557180E-003
                     8 -6.119582783767005E-009
                     9 -5.210881468574450E-004
                    10  1.218059665287038E-004
                    11  2.778594238492598E-009
                    12 -8.342042862252260E-004
                    13  2.455434534226425E-003
                    14 -9.176888078100148E-009
                    15 -7.122184293361415E-006
                    16 -5.015078814975146E-010
                    17  9.211631844668387E-011
                    18  1.408221859477161E-004
                    19  5.811159050883569E-005
                    20 -4.233345516768598E-004
                    21  8.193423643010824E-010
                    22  2.080416412014177E-009
                    23 -1.412229346355161E-005
                    24 -4.287420613860485E-004
                    25  3.991086450549909E-009
                    26 -1.681840089524401E-004
                    27 -5.992535779497722E-005
                    28  6.440491223306348E-009
                    29 -1.053777457620356E-009
                    30 -9.560144164849598E-005
                    31 -6.422768936492072E-005
                    32 -3.833882642702529E-004
                    33  1.343674767170405E-003
                    34  2.064099740128383E-004
                    35 -1.066922466355362E-004
                    36 -5.170116076261370E-003
                    37  8.074359126889421E-005
                    38  4.972894619317629E-009
                    39  2.336767326750320E-004
                    40  6.166170215617042E-006
                    41 -7.395209567294217E-009
                    42  4.658065147243829E-003
                    43  6.729153081211082E-004
                    44  6.989701220986582E-008
                    45 -2.492092586422379E-004
                    46  3.472767164835169E-009
                    47 -1.415506526704362E-010
                    48  2.142940568364230E-004
                    49  3.536709014130922E-005
                    50  4.253757050708685E-004
                    51 -2.785002043189764E-008
                    52  1.135018645963571E-009
                    53  5.892183896256062E-005
                    54 -3.118775426996494E-004
                    55 -6.171284886296359E-009
                    56 -8.869337493865319E-005
                    57  1.496761013575626E-005
                    58 -3.427332260357204E-009
                    59  4.325516215594633E-010
                    60 -4.693197007930745E-005
                    61  3.721503672766793E-005
                    62 -3.146051852970906E-004
                    63 -1.777416056995492E-003
                    64  8.872597516258447E-005
                    65  7.127551969808024E-004
                    66  6.725883009506026E-004
                    67 -3.047057968902921E-005
                    68 -6.833109354806878E-004
                    69  6.059267376148716E-004
                    70  5.929482732254401E-005
                    71  2.693088601879448E-005
                    72 -3.989349843590346E-004
                    73 -2.784694966869887E-004
                    74 -7.225047504684529E-004
                    75 -7.194405637446876E-005
                    76 -1.257346354201853E-005
                    77  1.697542301489400E-005
                    78  5.408620229126788E-005
                    79 -5.695794041013439E-006
                    80  1.124451272741248E-004
                    81  2.032120616797993E-004
                    82 -2.755313851154495E-005
                    83 -7.202171636900904E-005
                    84  3.241767657549186E-005
                    85 -1.466891911871650E-005
                    86 -5.696498549631891E-005
                    87  1.743200148753513E-005
                    88 -2.014339540934410E-005
                    89  1.295969679502871E-005
                    90 -4.731272387921930E-005
                    91 -8.739882980206611E-006
                    92 -3.145919801008269E-004
                    93 -1.777363800587628E-003
                    94  8.877372722781783E-005
                    95  7.126139513501290E-004
                    96  6.726200565008025E-004
                    97 -3.047017047747297E-005
                    98  6.833134870932532E-004
                    99  6.057812854450315E-004
                   100  5.929292562368659E-005
                   101 -2.695372176794923E-005
                   102 -3.987822490992171E-004
                   103 -2.784703721766077E-004
                   104  7.223458194874841E-004
                   105 -7.194047378955389E-005
                   106  1.257829155195527E-005
                   107 -1.697529887941209E-005
                   108  5.407913977005750E-005
                   109 -5.695804019367186E-006
                   110  1.125236230506210E-004
                   111 -2.032574177969448E-004
                   112  2.755410461334365E-005
                   113 -7.211703271019829E-005
                   114  3.241679295080838E-005
                   115  1.467242459431497E-005
                   116 -5.694898765188334E-005
                   117  1.743178581254658E-005
                   118  2.014552689136748E-005
                   119 -1.295986478854861E-005
                   120 -4.729645436165442E-005
                   121 -8.740181078388240E-006
                   122 -1.432670511040587E-004
                   123 -1.074428053810555E-004
                   124  5.692619139973343E-005
                   125  3.895536649028025E-004
                   126 -6.271599220204423E-004
                   127 -2.766837479063241E-005
                   128  2.786192805546301E-005
                   129  2.281974994041984E-004
                   130 -1.080243970905894E-005
                   131  2.265407601352341E-005
                   132  7.774614383427109E-004
                   133  1.163098122030379E-004
                   134 -2.846361593096310E-004
                   135  3.279413160125328E-006
                   136 -1.303985501286585E-006
                   137 -3.234915014467717E-006
                   138  3.735284284551808E-007
                   139  7.059754911058899E-006
                   140  7.068093353677864E-005
                   141  1.982875936803358E-004
                   142  8.365277454216310E-006
                   143 -1.749920707651962E-004
                   144 -2.020200457390911E-005
                   145 -6.633017787802914E-006
                   146 -1.632983741033741E-005
                   147  1.349084891469516E-006
                   148 -1.404016403176195E-007
                   149 -1.616098369752034E-006
                   150 -4.255494384840866E-005
                   151  7.373424184781469E-007
                   152 -1.434844155610378E-004
                   153 -1.082061004014781E-004
                   154  5.675289573180247E-005
                   155  3.907309914271234E-004
                   156 -6.271574291381686E-004
                   157 -2.766812953938938E-005
                   158 -2.783313298218210E-005
                   159  2.281526629054250E-004
                   160 -1.080326120607060E-005
                   161 -2.282097833399732E-005
                   162  7.775934074324180E-004
                   163  1.163107473521820E-004
                   164  2.847862457634167E-004
                   165  3.289229984757339E-006
                   166  1.300781692019818E-006
                   167  3.234569574269644E-006
                   168  3.972358300356498E-007
                   169  7.059883097307078E-006
                   170  7.070509393370074E-005
                   171 -1.983831116228591E-004
                   172 -8.364824705468225E-006
                   173 -1.749668678400912E-004
                   174 -2.020256170539833E-005
                   175  6.636384648393533E-006
                   176 -1.629376843850878E-005
                   177  1.349083281841443E-006
                   178  1.380272523022278E-007
                   179  1.616318305741648E-006
                   180 -4.254457843710253E-005
                   181  7.372555718505971E-007
                   182 -9.238013853473805E-005
                   183 -2.643228767977094E-004
                   184  2.854309990532267E-005
                   185  7.669401143083383E-005
                   186 -2.162646747465458E-005
                   187 -4.140409523167187E-005
                   188  3.846963298168694E-008
                   189  6.427180548041266E-005
                   190  1.784320654852410E-005
                   191 -1.872819834566169E-007
                   192 -2.597323402144800E-004
                   193 -8.299299268401587E-005
                   194 -4.561915040331535E-008
                   195 -1.139288007098782E-005
                   196  9.210880534564386E-009
                   197 -5.570299351746750E-011
                   198  6.316278802936848E-006
                   199 -1.381325697397633E-006
                   200 -1.153494097491122E-004
                   201  9.534078810507391E-008
                   202  4.321737626924591E-010
                   203  5.078720377215924E-005
                   204  1.284382528226106E-005
                   205  8.932057448268545E-009
                   206  9.844971610520769E-007
                   207  2.150976225733187E-006
                   208 -8.771690423563884E-009
                   209 -2.090565524664988E-012
                   210 -5.076995794128960E-006
                   211 -1.646918611060372E-006
                   212  3.116445775701960E-003
                   213 -2.265992669124243E-003
                   214  2.355515725209231E-004
                   215  2.508878986118538E-004
                   216  3.937556608785912E-004
                   217  3.116448162603983E-003
                   218 -2.265994864420364E-003
                   219  2.355556351082894E-004
                   220  2.508883208607546E-004
                   221 -3.937580673951450E-004
                   222 -5.288329756363266E-004
                   223 -2.655970424723159E-004
                   224 -4.962678938729838E-005
                   225  6.144637759440867E-006
                   226  2.174304396432061E-005
                   227 -5.288517769541271E-004
                   228 -2.654606062924862E-004
                   229 -4.963376206173506E-005
                   230  6.144492145599056E-006
                   231 -2.174775989634884E-005
                   232 -1.415297142510539E-004
                   233 -4.700668145908786E-004
                   234  6.528870821888526E-006
                   235 -4.554649246652743E-007
                   236 -4.341171477976668E-006
                   237 -1.415581391021916E-004
                   238 -4.701106507768392E-004
                   239  6.550370364269548E-006
                   240 -4.553709012704254E-007
                   241  4.359065109229190E-006
                   242  3.836187722814990E-005
                   243  5.748321903621442E-005
                   244  2.200219227337533E-005
                   245  1.107675281879323E-006
                   246 -1.002839367452214E-008
 Sym= __2_A__
 Ene=   2.00000000000000     
 Spin= Alpha
 Occup=    1.00000000000000     
                     1 -2.924363226822210E-005
                     2 -1.528946019764723E-004
                     3  1.981964880042866E-003
                     4  4.212434644094674E-005
                     5  1.180450053726271E-003
                     6  2.210789066528600E-003
                     7  3.646359289987995E-004
                     8  3.026449186081904E-009
                     9 -7.117871326386804E-005
                    10  6.822816072141100E-005
                    11 -1.752458702347663E-009
                    12 -1.713966005814324E-004
                    13  1.270930792740593E-005
                    14  2.620376625959236E-009
                    15 -7.270181932818914E-005
                    16  2.069398091828186E-010
                    17 -1.110841705982750E-010
                    18  2.490079895197756E-005
                    19 -9.305065730034692E-007
                    20  2.789934660434813E-004
                    21 -1.312539618304821E-009
                    22 -4.314185747226219E-010
                    23  3.610769469931272E-005
                    24 -2.412221423813895E-005
                    25 -3.911987791311016E-010
                    26  1.322504874691621E-004
                    27 -5.973728516301501E-005
                    28 -1.119744580054215E-009
                    29  1.851303211217343E-010
                    30  1.295309136557380E-004
                    31  3.392599489994422E-005
                    32   1.00105912649446     
                    33  8.810659910622015E-003
                    34  2.619407111739089E-003
                    35 -8.058516018652873E-003
                    36 -3.000890562719916E-003
                    37  6.672067778393478E-004
                    38 -3.454720598562220E-009
                    39  8.962184118847477E-004
                    40 -1.948985708287590E-004
                    41  5.955610211708326E-010
                    42  3.728910682327744E-003
                    43 -9.180656116864625E-005
                    44 -3.035848408531327E-008
                    45  2.378628416044848E-004
                    46 -1.269855383456400E-009
                    47  1.256384479157385E-010
                    48  4.500405508461984E-004
                    49 -3.065258545062422E-005
                    50 -1.278819768975479E-003
                    51  2.841288659583457E-009
                    52 -8.657929458771288E-010
                    53  5.709003577677190E-005
                    54  3.103887477104172E-005
                    55  1.328293698523206E-009
                    56  3.117624882168510E-004
                    57 -8.304332908989308E-006
                    58 -1.172494404294119E-010
                    59 -1.507506525745288E-010
                    60  1.181320664932603E-004
                    61  2.590084322831008E-005
                    62  1.033811175262985E-002
                    63 -1.886916954957316E-003
                    64 -2.993673817573176E-004
                    65  3.071424140341727E-003
                    66 -6.419530447695898E-005
                    67  1.218288609415174E-004
                    68  1.955201638895368E-004
                    69 -1.404867595629883E-004
                    70 -1.464724670899490E-005
                    71  6.273698307674859E-004
                    72  1.408502870661971E-005
                    73 -1.580930495496785E-005
                    74 -1.981287700427891E-003
                    75  2.129291306490606E-006
                    76  1.169814181842163E-005
                    77  8.909628044970534E-006
                    78 -3.185455637719404E-005
                    79 -6.252335942491403E-006
                    80 -4.045505354836008E-004
                    81 -5.690698281659903E-004
                    82 -9.053538983092395E-006
                    83  6.970962854348336E-004
                    84  1.803118222014329E-005
                    85  7.995878762226795E-005
                    86  1.127283140834796E-004
                    87  1.145789816975001E-006
                    88  5.192656247700742E-006
                    89 -7.058341954754097E-006
                    90 -2.312210283593109E-005
                    91  4.584254475315757E-006
                    92  1.033810620941705E-002
                    93 -1.886959007944686E-003
                    94 -2.993854452172130E-004
                    95  3.071506508299668E-003
                    96 -6.420620626413614E-005
                    97  1.218285936515801E-004
                    98 -1.955188572983872E-004
                    99 -1.404392059584277E-004
                   100 -1.464644338014227E-005
                   101 -6.273740638924205E-004
                   102  1.401571605802230E-005
                   103 -1.580921723382465E-005
                   104  1.981348994535742E-003
                   105  2.127167415242965E-006
                   106 -1.170072400409165E-005
                   107 -8.909679268881093E-006
                   108 -3.184949203702338E-005
                   109 -6.252274360877700E-006
                   110 -4.045700154269772E-004
                   111  5.690905020815227E-004
                   112  9.053068516606637E-006
                   113  6.971149975214358E-004
                   114  1.803091522199355E-005
                   115 -7.995849985475311E-005
                   116  1.127231776567923E-004
                   117  1.145883537579987E-006
                   118 -5.192847981342634E-006
                   119  7.058524422413140E-006
                   120 -2.312649705933546E-005
                   121  4.584338294375962E-006
                   122 -1.963881958915991E-004
                   123 -6.851636003890987E-004
                   124  2.273558578158365E-004
                   125 -1.351918203292466E-004
                   126 -2.140035401509792E-004
                   127  2.387040633284948E-005
                   128 -2.669677485886511E-005
                   129  4.898004499147981E-004
                   130 -5.620011211260727E-006
                   131  1.756919076283680E-005
                   132  6.360700461443974E-004
                   133  3.339674866132422E-006
                   134  3.317723664226652E-004
                   135 -2.670535069765659E-006
                   136  4.492482559325772E-005
                   137 -4.111737447386835E-007
                   138 -2.026348464569294E-005
                   139 -1.812602082432515E-006
                   140  1.641139441539889E-004
                   141 -2.776202239308433E-004
                   142  5.213884830795618E-006
                   143 -2.560493720335002E-004
                   144 -7.178145863808434E-007
                   145 -2.343592070444721E-005
                   146  1.557342413181903E-005
                   147  4.173645816047511E-007
                   148 -2.392184321579010E-005
                   149 -2.485672556307414E-006
                   150 -2.744076124524260E-005
                   151 -6.557571543409474E-007
                   152 -1.962261287926539E-004
                   153 -6.846199544203096E-004
                   154  2.273852689532356E-004
                   155 -1.357404569048928E-004
                   156 -2.140039270753291E-004
                   157  2.387034622203069E-005
                   158  2.669028554388886E-005
                   159  4.898121905317056E-004
                   160 -5.619800652310261E-006