[Molden Format]
[Atoms] AU
  N     1    7    -4.4035399800    0.1182791400    0.0000000000        
  C     2    6    -1.7784225500   -0.0379221500    0.0000000000        
  C     3    6    -0.4689801700   -0.0051215600   -2.3532722600        
  C     4    6    -0.4689801700   -0.0051215600    2.3532722600        
  C     5    6     2.2199636300    0.0066729900   -2.3299531000        
  C     6    6     2.2199636300    0.0066729900    2.3299531000        
  C     7    6     3.5159585800    0.0058223500    0.0000000000        
  H     8    1    -5.2262840100   -0.5745222100   -1.5933755500        
  H     9    1    -5.2262840100   -0.5745222100    1.5933755500        
  H    10    1    -1.5057999900    0.0210304000   -4.0903025200        
  H    11    1    -1.5057999900    0.0210304000    4.0903025200        
  H    12    1     3.2567194000    0.0151023800   -4.0679990300        
  H    13    1     3.2567194000    0.0151023800    4.0679990300        
  H    14    1     5.5450114000    0.0174614600    0.0000000000        
[5D]
[7F]
[GTO]
  1  0
   s    12 1.00
  0.114200D+05  0.172695D-04
  0.171200D+04  0.134411D-03
  0.389300D+03  0.694561D-03
  0.110000D+03  0.278531D-02
  0.355700D+02  0.863457D-02
  0.125400D+02  0.199805D-01
  0.464400D+01  0.262908D-01
  0.129300D+01 -0.243845D-01
  0.511800D+00 -0.924934D-01
  0.178700D+00 -0.339683D+00
  0.246240D-01  0.345111D+00
  0.112530D-01  0.752750D+00
   s    10 1.00
  0.114200D+05  0.523000D-03
  0.171200D+04  0.404500D-02
  0.389300D+03  0.207750D-01
  0.110000D+03  0.807269D-01
  0.355700D+02  0.233074D+00
  0.125400D+02  0.433501D+00
  0.464400D+01  0.347472D+00
  0.129300D+01  0.412620D-01
  0.511800D+00 -0.850799D-02
  0.178700D+00  0.238400D-02
   s    10 1.00
  0.114200D+05 -0.115000D-03
  0.171200D+04 -0.895000D-03
  0.389300D+03 -0.462400D-02
  0.110000D+03 -0.185280D-01
  0.355700D+02 -0.573390D-01
  0.125400D+02 -0.132076D+00
  0.464400D+01 -0.172510D+00
  0.129300D+01  0.151814D+00
  0.511800D+00  0.599944D+00
  0.178700D+00  0.387462D+00
   s     1 1.00
  0.129300D+01  0.100000D+01
   s     1 1.00
  0.178700D+00  0.100000D+01
   p     5 1.00
  0.266300D+02  0.146700D-01
  0.594800D+01  0.917640D-01
  0.174200D+01  0.298683D+00
  0.555000D+00  0.498487D+00
  0.172500D+00  0.337023D+00
   p     1 1.00
  0.174200D+01  0.100000D+01
   p     1 1.00
  0.555000D+00  0.100000D+01
   d     1 1.00
  0.165400D+01  0.100000D+01
   d     1 1.00
  0.469000D+00  0.100000D+01
   f     1 1.00
  0.109300D+01  0.100000D+01
  
  2  0
   s    10 1.00
  0.823600D+04  0.531000D-03
  0.123500D+04  0.410800D-02
  0.280800D+03  0.210870D-01
  0.792700D+02  0.818530D-01
  0.255900D+02  0.234817D+00
  0.899700D+01  0.434401D+00
  0.331900D+01  0.346129D+00
  0.905900D+00  0.393780D-01
  0.364300D+00 -0.898300D-02
  0.128500D+00  0.238500D-02
   s    10 1.00
  0.823600D+04 -0.113000D-03
  0.123500D+04 -0.878000D-03
  0.280800D+03 -0.454000D-02
  0.792700D+02 -0.181330D-01
  0.255900D+02 -0.557600D-01
  0.899700D+01 -0.126895D+00
  0.331900D+01 -0.170352D+00
  0.905900D+00  0.140382D+00
  0.364300D+00  0.598684D+00
  0.128500D+00  0.395389D+00
   s     1 1.00
  0.905900D+00  0.100000D+01
   s     1 1.00
  0.364300D+00  0.100000D+01
   p     5 1.00
  0.187100D+02  0.140310D-01
  0.413300D+01  0.868660D-01
  0.120000D+01  0.290216D+00
  0.382700D+00  0.501008D+00
  0.120900D+00  0.343406D+00
   p     1 1.00
  0.382700D+00  0.100000D+01
   p     1 1.00
  0.120900D+00  0.100000D+01
   d     1 1.00
  0.109700D+01  0.100000D+01
   d     1 1.00
  0.318000D+00  0.100000D+01
   f     1 1.00
  0.761000D+00  0.100000D+01
  
  3  0
   s    10 1.00
  0.823600D+04  0.531000D-03
  0.123500D+04  0.410800D-02
  0.280800D+03  0.210870D-01
  0.792700D+02  0.818530D-01
  0.255900D+02  0.234817D+00
  0.899700D+01  0.434401D+00
  0.331900D+01  0.346129D+00
  0.905900D+00  0.393780D-01
  0.364300D+00 -0.898300D-02
  0.128500D+00  0.238500D-02
   s    10 1.00
  0.823600D+04 -0.113000D-03
  0.123500D+04 -0.878000D-03
  0.280800D+03 -0.454000D-02
  0.792700D+02 -0.181330D-01
  0.255900D+02 -0.557600D-01
  0.899700D+01 -0.126895D+00
  0.331900D+01 -0.170352D+00
  0.905900D+00  0.140382D+00
  0.364300D+00  0.598684D+00
  0.128500D+00  0.395389D+00
   s     1 1.00
  0.905900D+00  0.100000D+01
   s     1 1.00
  0.364300D+00  0.100000D+01
   p     5 1.00
  0.187100D+02  0.140310D-01
  0.413300D+01  0.868660D-01
  0.120000D+01  0.290216D+00
  0.382700D+00  0.501008D+00
  0.120900D+00  0.343406D+00
   p     1 1.00
  0.382700D+00  0.100000D+01
   p     1 1.00
  0.120900D+00  0.100000D+01
   d     1 1.00
  0.109700D+01  0.100000D+01
   d     1 1.00
  0.318000D+00  0.100000D+01
   f     1 1.00
  0.761000D+00  0.100000D+01
  
  4  0
   s    10 1.00
  0.823600D+04  0.531000D-03
  0.123500D+04  0.410800D-02
  0.280800D+03  0.210870D-01
  0.792700D+02  0.818530D-01
  0.255900D+02  0.234817D+00
  0.899700D+01  0.434401D+00
  0.331900D+01  0.346129D+00
  0.905900D+00  0.393780D-01
  0.364300D+00 -0.898300D-02
  0.128500D+00  0.238500D-02
   s    10 1.00
  0.823600D+04 -0.113000D-03
  0.123500D+04 -0.878000D-03
  0.280800D+03 -0.454000D-02
  0.792700D+02 -0.181330D-01
  0.255900D+02 -0.557600D-01
  0.899700D+01 -0.126895D+00
  0.331900D+01 -0.170352D+00
  0.905900D+00  0.140382D+00
  0.364300D+00  0.598684D+00
  0.128500D+00  0.395389D+00
   s     1 1.00
  0.905900D+00  0.100000D+01
   s     1 1.00
  0.364300D+00  0.100000D+01
   p     5 1.00
  0.187100D+02  0.140310D-01
  0.413300D+01  0.868660D-01
  0.120000D+01  0.290216D+00
  0.382700D+00  0.501008D+00
  0.120900D+00  0.343406D+00
   p     1 1.00
  0.382700D+00  0.100000D+01
   p     1 1.00
  0.120900D+00  0.100000D+01
   d     1 1.00
  0.109700D+01  0.100000D+01
   d     1 1.00
  0.318000D+00  0.100000D+01
   f     1 1.00
  0.761000D+00  0.100000D+01
  
  5  0
   s    10 1.00
  0.823600D+04  0.531000D-03
  0.123500D+04  0.410800D-02
  0.280800D+03  0.210870D-01
  0.792700D+02  0.818530D-01
  0.255900D+02  0.234817D+00
  0.899700D+01  0.434401D+00
  0.331900D+01  0.346129D+00
  0.905900D+00  0.393780D-01
  0.364300D+00 -0.898300D-02
  0.128500D+00  0.238500D-02
   s    10 1.00
  0.823600D+04 -0.113000D-03
  0.123500D+04 -0.878000D-03
  0.280800D+03 -0.454000D-02
  0.792700D+02 -0.181330D-01
  0.255900D+02 -0.557600D-01
  0.899700D+01 -0.126895D+00
  0.331900D+01 -0.170352D+00
  0.905900D+00  0.140382D+00
  0.364300D+00  0.598684D+00
  0.128500D+00  0.395389D+00
   s     1 1.00
  0.905900D+00  0.100000D+01
   s     1 1.00
  0.364300D+00  0.100000D+01
   p     5 1.00
  0.187100D+02  0.140310D-01
  0.413300D+01  0.868660D-01
  0.120000D+01  0.290216D+00
  0.382700D+00  0.501008D+00
  0.120900D+00  0.343406D+00
   p     1 1.00
  0.382700D+00  0.100000D+01
   p     1 1.00
  0.120900D+00  0.100000D+01
   d     1 1.00
  0.109700D+01  0.100000D+01
   d     1 1.00
  0.318000D+00  0.100000D+01
   f     1 1.00
  0.761000D+00  0.100000D+01
  
  6  0
   s    10 1.00
  0.823600D+04  0.531000D-03
  0.123500D+04  0.410800D-02
  0.280800D+03  0.210870D-01
  0.792700D+02  0.818530D-01
  0.255900D+02  0.234817D+00
  0.899700D+01  0.434401D+00
  0.331900D+01  0.346129D+00
  0.905900D+00  0.393780D-01
  0.364300D+00 -0.898300D-02
  0.128500D+00  0.238500D-02
   s    10 1.00
  0.823600D+04 -0.113000D-03
  0.123500D+04 -0.878000D-03
  0.280800D+03 -0.454000D-02
  0.792700D+02 -0.181330D-01
  0.255900D+02 -0.557600D-01
  0.899700D+01 -0.126895D+00
  0.331900D+01 -0.170352D+00
  0.905900D+00  0.140382D+00
  0.364300D+00  0.598684D+00
  0.128500D+00  0.395389D+00
   s     1 1.00
  0.905900D+00  0.100000D+01
   s     1 1.00
  0.364300D+00  0.100000D+01
   p     5 1.00
  0.187100D+02  0.140310D-01
  0.413300D+01  0.868660D-01
  0.120000D+01  0.290216D+00
  0.382700D+00  0.501008D+00
  0.120900D+00  0.343406D+00
   p     1 1.00
  0.382700D+00  0.100000D+01
   p     1 1.00
  0.120900D+00  0.100000D+01
   d     1 1.00
  0.109700D+01  0.100000D+01
   d     1 1.00
  0.318000D+00  0.100000D+01
   f     1 1.00
  0.761000D+00  0.100000D+01
  
  7  0
   s    10 1.00
  0.823600D+04  0.531000D-03
  0.123500D+04  0.410800D-02
  0.280800D+03  0.210870D-01
  0.792700D+02  0.818530D-01
  0.255900D+02  0.234817D+00
  0.899700D+01  0.434401D+00
  0.331900D+01  0.346129D+00
  0.905900D+00  0.393780D-01
  0.364300D+00 -0.898300D-02
  0.128500D+00  0.238500D-02
   s    10 1.00
  0.823600D+04 -0.113000D-03
  0.123500D+04 -0.878000D-03
  0.280800D+03 -0.454000D-02
  0.792700D+02 -0.181330D-01
  0.255900D+02 -0.557600D-01
  0.899700D+01 -0.126895D+00
  0.331900D+01 -0.170352D+00
  0.905900D+00  0.140382D+00
  0.364300D+00  0.598684D+00
  0.128500D+00  0.395389D+00
   s     1 1.00
  0.905900D+00  0.100000D+01
   s     1 1.00
  0.364300D+00  0.100000D+01
   p     5 1.00
  0.187100D+02  0.140310D-01
  0.413300D+01  0.868660D-01
  0.120000D+01  0.290216D+00
  0.382700D+00  0.501008D+00
  0.120900D+00  0.343406D+00
   p     1 1.00
  0.382700D+00  0.100000D+01
   p     1 1.00
  0.120900D+00  0.100000D+01
   d     1 1.00
  0.109700D+01  0.100000D+01
   d     1 1.00
  0.318000D+00  0.100000D+01
   f     1 1.00
  0.761000D+00  0.100000D+01
  
  8  0
   s     4 1.00
  0.130100D+02  0.196850D-01
  0.196200D+01  0.137977D+00
  0.444600D+00  0.478148D+00
  0.122000D+00  0.501240D+00
   s     1 1.00
  0.122000D+00  0.100000D+01
   p     1 1.00
  0.727000D+00  0.100000D+01
  
  9  0
   s     4 1.00
  0.130100D+02  0.196850D-01
  0.196200D+01  0.137977D+00
  0.444600D+00  0.478148D+00
  0.122000D+00  0.501240D+00
   s     1 1.00
  0.122000D+00  0.100000D+01
   p     1 1.00
  0.727000D+00  0.100000D+01
  
 10  0
   s     4 1.00
  0.130100D+02  0.196850D-01
  0.196200D+01  0.137977D+00
  0.444600D+00  0.478148D+00
  0.122000D+00  0.501240D+00
   s     1 1.00
  0.122000D+00  0.100000D+01
   p     1 1.00
  0.727000D+00  0.100000D+01
  
 11  0
   s     4 1.00
  0.130100D+02  0.196850D-01
  0.196200D+01  0.137977D+00
  0.444600D+00  0.478148D+00
  0.122000D+00  0.501240D+00
   s     1 1.00
  0.122000D+00  0.100000D+01
   p     1 1.00
  0.727000D+00  0.100000D+01
  
 12  0
   s     4 1.00
  0.130100D+02  0.196850D-01
  0.196200D+01  0.137977D+00
  0.444600D+00  0.478148D+00
  0.122000D+00  0.501240D+00
   s     1 1.00
  0.122000D+00  0.100000D+01
   p     1 1.00
  0.727000D+00  0.100000D+01
  
 13  0
   s     4 1.00
  0.130100D+02  0.196850D-01
  0.196200D+01  0.137977D+00
  0.444600D+00  0.478148D+00
  0.122000D+00  0.501240D+00
   s     1 1.00
  0.122000D+00  0.100000D+01
   p     1 1.00
  0.727000D+00  0.100000D+01
  
 14  0
   s     4 1.00
  0.130100D+02  0.196850D-01
  0.196200D+01  0.137977D+00
  0.444600D+00  0.478148D+00
  0.122000D+00  0.501240D+00
   s     1 1.00
  0.122000D+00  0.100000D+01
   p     1 1.00
  0.727000D+00  0.100000D+01
  
[MO]
 Sym= __1_a__
 Ene=  0.000000000000000E+000
 Spin= Alpha
 Occup=    2.00000000000000     
                     1  1.693038280842330E-004
                     2  0.998076181450435     
                     3  5.584386295384540E-003
                     4  1.977184067764050E-003
                     5  4.280984887480520E-003
                     6  4.886849065042540E-003
                     7 -3.689499098557180E-003
                     8 -6.119582783767010E-009
                     9 -5.210881468574450E-004
                    10  1.218059665287040E-004
                    11  2.778594238492600E-009
                    12 -8.342042862252260E-004
                    13  2.455434534226430E-003
                    14 -9.176888078100149E-009
                    15 -7.122184293361418E-006
                    16 -5.015078814975150E-010
                    17  9.211631844668390E-011
                    18  1.408221859477162E-004
                    19  5.811159050883570E-005
                    20 -4.233345516768587E-004
                    21  8.193423643010820E-010
                    22  2.080416412014180E-009
                    23 -1.412229346355160E-005
                    24 -4.287420613860490E-004
                    25  3.991086450549917E-009
                    26 -1.681840089524401E-004
                    27 -5.992535779497724E-005
                    28  6.440491223306340E-009
                    29 -1.053777457620360E-009
                    30 -9.560144164849590E-005
                    31 -6.422768936492091E-005
                    32 -3.833882642702530E-004
                    33  1.343674767170410E-003
                    34  2.064099740128380E-004
                    35 -1.066922466355360E-004
                    36 -5.170116076261370E-003
                    37  8.074359126889421E-005
                    38  4.972894619317630E-009
                    39  2.336767326750320E-004
                    40  6.166170215617040E-006
                    41 -7.395209567294220E-009
                    42  4.658065147243830E-003
                    43  6.729153081211080E-004
                    44  6.989701220986580E-008
                    45 -2.492092586422380E-004
                    46  3.472767164835170E-009
                    47 -1.415506526704360E-010
                    48  2.142940568364240E-004
                    49  3.536709014130920E-005
                    50  4.253757050708671E-004
                    51 -2.785002043189760E-008
                    52  1.135018645963570E-009
                    53  5.892183896256060E-005
                    54 -3.118775426996490E-004
                    55 -6.171284886296350E-009
                    56 -8.869337493865350E-005
                    57  1.496761013575625E-005
                    58 -3.427332260357200E-009
                    59  4.325516215594630E-010
                    60 -4.693197007930753E-005
                    61  3.721503672766791E-005
                    62 -3.146051852970910E-004
                    63 -1.777416056995490E-003
                    64  8.872597516258450E-005
                    65  7.127551969808020E-004
                    66  6.725883009506030E-004
                    67 -3.047057968902920E-005
                    68 -6.833109354806880E-004
                    69  6.059267376148720E-004
                    70  5.929482732254400E-005
                    71  2.693088601879450E-005
                    72 -3.989349843590350E-004
                    73 -2.784694966869890E-004
                    74 -7.225047504684530E-004
                    75 -7.194405637446883E-005
                    76 -1.257346354201850E-005
                    77  1.697542301489400E-005
                    78  5.408620229126780E-005
                    79 -5.695794041013440E-006
                    80  1.124451272741246E-004
                    81  2.032120616797990E-004
                    82 -2.755313851154500E-005
                    83 -7.202171636900900E-005
                    84  3.241767657549190E-005
                    85 -1.466891911871650E-005
                    86 -5.696498549631889E-005
                    87  1.743200148753510E-005
                    88 -2.014339540934400E-005
                    89  1.295969679502870E-005
                    90 -4.731272387921930E-005
                    91 -8.739882980206606E-006
                    92 -3.145919801008270E-004
                    93 -1.777363800587630E-003
                    94  8.877372722781780E-005
                    95  7.126139513501290E-004
                    96  6.726200565008021E-004
                    97 -3.047017047747300E-005
                    98  6.833134870932529E-004
                    99  6.057812854450320E-004
                   100  5.929292562368660E-005
                   101 -2.695372176794920E-005
                   102 -3.987822490992170E-004
                   103 -2.784703721766080E-004
                   104  7.223458194874841E-004
                   105 -7.194047378955396E-005
                   106  1.257829155195530E-005
                   107 -1.697529887941210E-005
                   108  5.407913977005760E-005
                   109 -5.695804019367190E-006
                   110  1.125236230506209E-004
                   111 -2.032574177969450E-004
                   112  2.755410461334370E-005
                   113 -7.211703271019820E-005
                   114  3.241679295080840E-005
                   115  1.467242459431497E-005
                   116 -5.694898765188334E-005
                   117  1.743178581254659E-005
                   118  2.014552689136740E-005
                   119 -1.295986478854860E-005
                   120 -4.729645436165442E-005
                   121 -8.740181078388235E-006
                   122 -1.432670511040590E-004
                   123 -1.074428053810550E-004
                   124  5.692619139973340E-005
                   125  3.895536649028030E-004
                   126 -6.271599220204419E-004
                   127 -2.766837479063240E-005
                   128  2.786192805546300E-005
                   129  2.281974994041980E-004
                   130 -1.080243970905890E-005
                   131  2.265407601352340E-005
                   132  7.774614383427110E-004
                   133  1.163098122030380E-004
                   134 -2.846361593096310E-004
                   135  3.279413160125328E-006
                   136 -1.303985501286590E-006
                   137 -3.234915014467720E-006
                   138  3.735284284551800E-007
                   139  7.059754911058900E-006
                   140  7.068093353677864E-005
                   141  1.982875936803360E-004
                   142  8.365277454216310E-006
                   143 -1.749920707651962E-004
                   144 -2.020200457390910E-005
                   145 -6.633017787802901E-006
                   146 -1.632983741033739E-005
                   147  1.349084891469518E-006
                   148 -1.404016403176196E-007
                   149 -1.616098369752030E-006
                   150 -4.255494384840870E-005
                   151  7.373424184781474E-007
                   152 -1.434844155610380E-004
                   153 -1.082061004014780E-004
                   154  5.675289573180250E-005
                   155  3.907309914271230E-004
                   156 -6.271574291381691E-004
                   157 -2.766812953938940E-005
                   158 -2.783313298218210E-005
                   159  2.281526629054250E-004
                   160 -1.080326120607060E-005
                   161 -2.282097833399730E-005
                   162  7.775934074324180E-004
                   163  1.163107473521820E-004
                   164  2.847862457634170E-004
                   165  3.289229984757341E-006
                   166  1.300781692019820E-006
                   167  3.234569574269640E-006
                   168  3.972358300356500E-007
                   169  7.059883097307080E-006
                   170  7.070509393370091E-005
                   171 -1.983831116228590E-004
                   172 -8.364824705468220E-006
                   173 -1.749668678400912E-004
                   174 -2.020256170539830E-005
                   175  6.636384648393528E-006
                   176 -1.629376843850880E-005
                   177  1.349083281841444E-006
                   178  1.380272523022278E-007
                   179  1.616318305741650E-006
                   180 -4.254457843710261E-005
                   181  7.372555718505971E-007
                   182 -9.238013853473800E-005
                   183 -2.643228767977090E-004
                   184  2.854309990532270E-005
                   185  7.669401143083380E-005
                   186 -2.162646747465460E-005
                   187 -4.140409523167190E-005
                   188  3.846963298168690E-008
                   189  6.427180548041270E-005
                   190  1.784320654852410E-005
                   191 -1.872819834566170E-007
                   192 -2.597323402144800E-004
                   193 -8.299299268401590E-005
                   194 -4.561915040331530E-008
                   195 -1.139288007098782E-005
                   196  9.210880534564389E-009
                   197 -5.570299351746750E-011
                   198  6.316278802936840E-006
                   199 -1.381325697397630E-006
                   200 -1.153494097491122E-004
                   201  9.534078810507390E-008
                   202  4.321737626924590E-010
                   203  5.078720377215920E-005
                   204  1.284382528226110E-005
                   205  8.932057448268547E-009
                   206  9.844971610520788E-007
                   207  2.150976225733189E-006
                   208 -8.771690423563881E-009
                   209 -2.090565524664990E-012
                   210 -5.076995794128968E-006
                   211 -1.646918611060370E-006
                   212  3.116445775701960E-003
                   213 -2.265992669124240E-003
                   214  2.355515725209230E-004
                   215  2.508878986118540E-004
                   216  3.937556608785910E-004
                   217  3.116448162603980E-003
                   218 -2.265994864420360E-003
                   219  2.355556351082890E-004
                   220  2.508883208607550E-004
                   221 -3.937580673951450E-004
                   222 -5.288329756363270E-004
                   223 -2.655970424723160E-004
                   224 -4.962678938729840E-005
                   225  6.144637759440870E-006
                   226  2.174304396432060E-005
                   227 -5.288517769541270E-004
                   228 -2.654606062924860E-004
                   229 -4.963376206173510E-005
                   230  6.144492145599060E-006
                   231 -2.174775989634880E-005
                   232 -1.415297142510540E-004
                   233 -4.700668145908790E-004
                   234  6.528870821888530E-006
                   235 -4.554649246652740E-007
                   236 -4.341171477976670E-006
                   237 -1.415581391021920E-004
                   238 -4.701106507768390E-004
                   239  6.550370364269550E-006
                   240 -4.553709012704250E-007
                   241  4.359065109229190E-006
                   242  3.836187722814990E-005
                   243  5.748321903621440E-005
                   244  2.200219227337530E-005
                   245  1.107675281879320E-006
                   246 -1.002839367452210E-008
 Sym= __2_a__
 Ene=  0.000000000000000E+000
 Spin= Alpha
 Occup=    2.00000000000000     
                     1 -2.924363226822210E-005
                     2 -1.528946019764720E-004
                     3  1.981964880042870E-003
                     4  4.212434644094670E-005
                     5  1.180450053726270E-003
                     6  2.210789066528600E-003
                     7  3.646359289988000E-004
                     8  3.026449186081900E-009
                     9 -7.117871326386800E-005
                    10  6.822816072141100E-005
                    11 -1.752458702347660E-009
                    12 -1.713966005814320E-004
                    13  1.270930792740590E-005
                    14  2.620376625959240E-009
                    15 -7.270181932818925E-005
                    16  2.069398091828190E-010
                    17 -1.110841705982750E-010
                    18  2.490079895197760E-005
                    19 -9.305065730034690E-007
                    20  2.789934660434812E-004
                    21 -1.312539618304820E-009
                    22 -4.314185747226220E-010
                    23  3.610769469931280E-005
                    24 -2.412221423813890E-005
                    25 -3.911987791311016E-010
                    26  1.322504874691622E-004
                    27 -5.973728516301501E-005
                    28 -1.119744580054216E-009
                    29  1.851303211217340E-010
                    30  1.295309136557380E-004
                    31  3.392599489994421E-005
                    32   1.00105912649446     
                    33  8.810659910622021E-003
                    34  2.619407111739090E-003
                    35 -8.058516018652871E-003
                    36 -3.000890562719920E-003
                    37  6.672067778393480E-004
                    38 -3.454720598562220E-009
                    39  8.962184118847480E-004
                    40 -1.948985708287590E-004
                    41  5.955610211708330E-010
                    42  3.728910682327740E-003
                    43 -9.180656116864630E-005
                    44 -3.035848408531330E-008
                    45  2.378628416044847E-004
                    46 -1.269855383456400E-009
                    47  1.256384479157380E-010
                    48  4.500405508461980E-004
                    49 -3.065258545062420E-005
                    50 -1.278819768975479E-003
                    51  2.841288659583460E-009
                    52 -8.657929458771290E-010
                    53  5.709003577677200E-005
                    54  3.103887477104170E-005
                    55  1.328293698523205E-009
                    56  3.117624882168511E-004
                    57 -8.304332908989313E-006
                    58 -1.172494404294120E-010
                    59 -1.507506525745290E-010
                    60  1.181320664932602E-004
                    61  2.590084322831009E-005
                    62  1.033811175262980E-002
                    63 -1.886916954957320E-003
                    64 -2.993673817573180E-004
                    65  3.071424140341730E-003
                    66 -6.419530447695900E-005
                    67  1.218288609415170E-004
                    68  1.955201638895370E-004
                    69 -1.404867595629880E-004
                    70 -1.464724670899490E-005
                    71  6.273698307674860E-004
                    72  1.408502870661970E-005
                    73 -1.580930495496790E-005
                    74 -1.981287700427890E-003
                    75  2.129291306490607E-006
                    76  1.169814181842160E-005
                    77  8.909628044970529E-006
                    78 -3.185455637719400E-005
                    79 -6.252335942491400E-006
                    80 -4.045505354836004E-004
                    81 -5.690698281659900E-004
                    82 -9.053538983092390E-006
                    83  6.970962854348340E-004
                    84  1.803118222014330E-005
                    85  7.995878762226807E-005
                    86  1.127283140834796E-004
                    87  1.145789816975000E-006
                    88  5.192656247700740E-006
                    89 -7.058341954754100E-006
                    90 -2.312210283593116E-005
                    91  4.584254475315759E-006
                    92  1.033810620941700E-002
                    93 -1.886959007944690E-003
                    94 -2.993854452172130E-004
                    95  3.071506508299670E-003
                    96 -6.420620626413610E-005
                    97  1.218285936515800E-004
                    98 -1.955188572983870E-004
                    99 -1.404392059584280E-004
                   100 -1.464644338014230E-005
                   101 -6.273740638924210E-004
                   102  1.401571605802230E-005
                   103 -1.580921723382460E-005
                   104  1.981348994535740E-003
                   105  2.127167415242964E-006
                   106 -1.170072400409170E-005
                   107 -8.909679268881090E-006
                   108 -3.184949203702340E-005
                   109 -6.252274360877700E-006
                   110 -4.045700154269765E-004
                   111  5.690905020815230E-004
                   112  9.053068516606640E-006
                   113  6.971149975214360E-004
                   114  1.803091522199360E-005
                   115 -7.995849985475311E-005
                   116  1.127231776567924E-004
                   117  1.145883537579985E-006
                   118 -5.192847981342640E-006
                   119  7.058524422413140E-006
                   120 -2.312649705933549E-005
                   121  4.584338294375962E-006
                   122 -1.963881958915990E-004
                   123 -6.851636003890990E-004
                   124  2.273558578158370E-004
                   125 -1.351918203292470E-004
                   126 -2.140035401509790E-004
                   127  2.387040633284950E-005
                   128 -2.669677485886510E-005
                   129  4.898004499147980E-004
                   130 -5.620011211260730E-006
                   131  1.756919076283680E-005
                   132  6.360700461443970E-004
                   133  3.339674866132420E-006
                   134  3.317723664226650E-004
                   135 -2.670535069765660E-006
                   136  4.492482559325770E-005
                   137 -4.111737447386830E-007
                   138 -2.026348464569300E-005
                   139 -1.812602082432520E-006
                   140  1.641139441539890E-004
                   141 -2.776202239308430E-004
                   142  5.213884830795620E-006
                   143 -2.560493720335000E-004
                   144 -7.178145863808430E-007
                   145 -2.343592070444720E-005
                   146  1.557342413181901E-005
                   147  4.173645816047507E-007
                   148 -2.392184321579000E-005
                   149 -2.485672556307410E-006
                   150 -2.744076124524265E-005
                   151 -6.557571543409489E-007
                   152 -1.962261287926540E-004
                   153 -6.846199544203100E-004
                   154  2.273852689532360E-004
                   155 -1.357404569048930E-004
                   156 -2.140039270753290E-004
                   157  2.387034622203070E-005
                   158  2.669028554388890E-005
                   159  4.898121905317060E-004
                   160 -5.619800652310260E-006