[Molden Format]
[Atoms] AU
  N     1    7    -4.4035399800    0.1182791400    0.0000000000        
  C     2    6    -1.7784225500   -0.0379221500    0.0000000000        
  C     3    6    -0.4689801700   -0.0051215600   -2.3532722600        
  C     4    6    -0.4689801700   -0.0051215600    2.3532722600        
  C     5    6     2.2199636300    0.0066729900   -2.3299531000        
  C     6    6     2.2199636300    0.0066729900    2.3299531000        
  C     7    6     3.5159585800    0.0058223500    0.0000000000        
  H     8    1    -5.2262840100   -0.5745222100   -1.5933755500        
  H     9    1    -5.2262840100   -0.5745222100    1.5933755500        
  H    10    1    -1.5057999900    0.0210304000   -4.0903025200        
  H    11    1    -1.5057999900    0.0210304000    4.0903025200        
  H    12    1     3.2567194000    0.0151023800   -4.0679990300        
  H    13    1     3.2567194000    0.0151023800    4.0679990300        
  H    14    1     5.5450114000    0.0174614600    0.0000000000        
[5D]
[7F]
[GTO]
  1  0
   s    12 1.00
  0.114200D+05  0.172695D-04
  0.171200D+04  0.134411D-03
  0.389300D+03  0.694561D-03
  0.110000D+03  0.278531D-02
  0.355700D+02  0.863457D-02
  0.125400D+02  0.199805D-01
  0.464400D+01  0.262908D-01
  0.129300D+01 -0.243845D-01
  0.511800D+00 -0.924934D-01
  0.178700D+00 -0.339683D+00
  0.246240D-01  0.345111D+00
  0.112530D-01  0.752750D+00
   s    10 1.00
  0.114200D+05  0.523000D-03
  0.171200D+04  0.404500D-02
  0.389300D+03  0.207750D-01
  0.110000D+03  0.807269D-01
  0.355700D+02  0.233074D+00
  0.125400D+02  0.433501D+00
  0.464400D+01  0.347472D+00
  0.129300D+01  0.412620D-01
  0.511800D+00 -0.850799D-02
  0.178700D+00  0.238400D-02
   s    10 1.00
  0.114200D+05 -0.115000D-03
  0.171200D+04 -0.895000D-03
  0.389300D+03 -0.462400D-02
  0.110000D+03 -0.185280D-01
  0.355700D+02 -0.573390D-01
  0.125400D+02 -0.132076D+00
  0.464400D+01 -0.172510D+00
  0.129300D+01  0.151814D+00
  0.511800D+00  0.599944D+00
  0.178700D+00  0.387462D+00
   s     1 1.00
  0.129300D+01  0.100000D+01
   s     1 1.00
  0.178700D+00  0.100000D+01
   p     5 1.00
  0.266300D+02  0.146700D-01
  0.594800D+01  0.917640D-01
  0.174200D+01  0.298683D+00
  0.555000D+00  0.498487D+00
  0.172500D+00  0.337023D+00
   p     1 1.00
  0.174200D+01  0.100000D+01
   p     1 1.00
  0.555000D+00  0.100000D+01
   d     1 1.00
  0.165400D+01  0.100000D+01
   d     1 1.00
  0.469000D+00  0.100000D+01
   f     1 1.00
  0.109300D+01  0.100000D+01
  
  2  0
   s    10 1.00
  0.823600D+04  0.531000D-03
  0.123500D+04  0.410800D-02
  0.280800D+03  0.210870D-01
  0.792700D+02  0.818530D-01
  0.255900D+02  0.234817D+00
  0.899700D+01  0.434401D+00
  0.331900D+01  0.346129D+00
  0.905900D+00  0.393780D-01
  0.364300D+00 -0.898300D-02
  0.128500D+00  0.238500D-02
   s    10 1.00
  0.823600D+04 -0.113000D-03
  0.123500D+04 -0.878000D-03
  0.280800D+03 -0.454000D-02
  0.792700D+02 -0.181330D-01
  0.255900D+02 -0.557600D-01
  0.899700D+01 -0.126895D+00
  0.331900D+01 -0.170352D+00
  0.905900D+00  0.140382D+00
  0.364300D+00  0.598684D+00
  0.128500D+00  0.395389D+00
   s     1 1.00
  0.905900D+00  0.100000D+01
   s     1 1.00
  0.364300D+00  0.100000D+01
   p     5 1.00
  0.187100D+02  0.140310D-01
  0.413300D+01  0.868660D-01
  0.120000D+01  0.290216D+00
  0.382700D+00  0.501008D+00
  0.120900D+00  0.343406D+00
   p     1 1.00
  0.382700D+00  0.100000D+01
   p     1 1.00
  0.120900D+00  0.100000D+01
   d     1 1.00
  0.109700D+01  0.100000D+01
   d     1 1.00
  0.318000D+00  0.100000D+01
   f     1 1.00
  0.761000D+00  0.100000D+01
  
  3  0
   s    10 1.00
  0.823600D+04  0.531000D-03
  0.123500D+04  0.410800D-02
  0.280800D+03  0.210870D-01
  0.792700D+02  0.818530D-01
  0.255900D+02  0.234817D+00
  0.899700D+01  0.434401D+00
  0.331900D+01  0.346129D+00
  0.905900D+00  0.393780D-01
  0.364300D+00 -0.898300D-02
  0.128500D+00  0.238500D-02
   s    10 1.00
  0.823600D+04 -0.113000D-03
  0.123500D+04 -0.878000D-03
  0.280800D+03 -0.454000D-02
  0.792700D+02 -0.181330D-01
  0.255900D+02 -0.557600D-01
  0.899700D+01 -0.126895D+00
  0.331900D+01 -0.170352D+00
  0.905900D+00  0.140382D+00
  0.364300D+00  0.598684D+00
  0.128500D+00  0.395389D+00
   s     1 1.00
  0.905900D+00  0.100000D+01
   s     1 1.00
  0.364300D+00  0.100000D+01
   p     5 1.00
  0.187100D+02  0.140310D-01
  0.413300D+01  0.868660D-01
  0.120000D+01  0.290216D+00
  0.382700D+00  0.501008D+00
  0.120900D+00  0.343406D+00
   p     1 1.00
  0.382700D+00  0.100000D+01
   p     1 1.00
  0.120900D+00  0.100000D+01
   d     1 1.00
  0.109700D+01  0.100000D+01
   d     1 1.00
  0.318000D+00  0.100000D+01
   f     1 1.00
  0.761000D+00  0.100000D+01
  
  4  0
   s    10 1.00
  0.823600D+04  0.531000D-03
  0.123500D+04  0.410800D-02
  0.280800D+03  0.210870D-01
  0.792700D+02  0.818530D-01
  0.255900D+02  0.234817D+00
  0.899700D+01  0.434401D+00
  0.331900D+01  0.346129D+00
  0.905900D+00  0.393780D-01
  0.364300D+00 -0.898300D-02
  0.128500D+00  0.238500D-02
   s    10 1.00
  0.823600D+04 -0.113000D-03
  0.123500D+04 -0.878000D-03
  0.280800D+03 -0.454000D-02
  0.792700D+02 -0.181330D-01
  0.255900D+02 -0.557600D-01
  0.899700D+01 -0.126895D+00
  0.331900D+01 -0.170352D+00
  0.905900D+00  0.140382D+00
  0.364300D+00  0.598684D+00
  0.128500D+00  0.395389D+00
   s     1 1.00
  0.905900D+00  0.100000D+01
   s     1 1.00
  0.364300D+00  0.100000D+01
   p     5 1.00
  0.187100D+02  0.140310D-01
  0.413300D+01  0.868660D-01
  0.120000D+01  0.290216D+00
  0.382700D+00  0.501008D+00
  0.120900D+00  0.343406D+00
   p     1 1.00
  0.382700D+00  0.100000D+01
   p     1 1.00
  0.120900D+00  0.100000D+01
   d     1 1.00
  0.109700D+01  0.100000D+01
   d     1 1.00
  0.318000D+00  0.100000D+01
   f     1 1.00
  0.761000D+00  0.100000D+01
  
  5  0
   s    10 1.00
  0.823600D+04  0.531000D-03
  0.123500D+04  0.410800D-02
  0.280800D+03  0.210870D-01
  0.792700D+02  0.818530D-01
  0.255900D+02  0.234817D+00
  0.899700D+01  0.434401D+00
  0.331900D+01  0.346129D+00
  0.905900D+00  0.393780D-01
  0.364300D+00 -0.898300D-02
  0.128500D+00  0.238500D-02
   s    10 1.00
  0.823600D+04 -0.113000D-03
  0.123500D+04 -0.878000D-03
  0.280800D+03 -0.454000D-02
  0.792700D+02 -0.181330D-01
  0.255900D+02 -0.557600D-01
  0.899700D+01 -0.126895D+00
  0.331900D+01 -0.170352D+00
  0.905900D+00  0.140382D+00
  0.364300D+00  0.598684D+00
  0.128500D+00  0.395389D+00
   s     1 1.00
  0.905900D+00  0.100000D+01
   s     1 1.00
  0.364300D+00  0.100000D+01
   p     5 1.00
  0.187100D+02  0.140310D-01
  0.413300D+01  0.868660D-01
  0.120000D+01  0.290216D+00
  0.382700D+00  0.501008D+00
  0.120900D+00  0.343406D+00
   p     1 1.00
  0.382700D+00  0.100000D+01
   p     1 1.00
  0.120900D+00  0.100000D+01
   d     1 1.00
  0.109700D+01  0.100000D+01
   d     1 1.00
  0.318000D+00  0.100000D+01
   f     1 1.00
  0.761000D+00  0.100000D+01
  
  6  0
   s    10 1.00
  0.823600D+04  0.531000D-03
  0.123500D+04  0.410800D-02
  0.280800D+03  0.210870D-01
  0.792700D+02  0.818530D-01
  0.255900D+02  0.234817D+00
  0.899700D+01  0.434401D+00
  0.331900D+01  0.346129D+00
  0.905900D+00  0.393780D-01
  0.364300D+00 -0.898300D-02
  0.128500D+00  0.238500D-02
   s    10 1.00
  0.823600D+04 -0.113000D-03
  0.123500D+04 -0.878000D-03
  0.280800D+03 -0.454000D-02
  0.792700D+02 -0.181330D-01
  0.255900D+02 -0.557600D-01
  0.899700D+01 -0.126895D+00
  0.331900D+01 -0.170352D+00
  0.905900D+00  0.140382D+00
  0.364300D+00  0.598684D+00
  0.128500D+00  0.395389D+00
   s     1 1.00
  0.905900D+00  0.100000D+01
   s     1 1.00
  0.364300D+00  0.100000D+01
   p     5 1.00
  0.187100D+02  0.140310D-01
  0.413300D+01  0.868660D-01
  0.120000D+01  0.290216D+00
  0.382700D+00  0.501008D+00
  0.120900D+00  0.343406D+00
   p     1 1.00
  0.382700D+00  0.100000D+01
   p     1 1.00
  0.120900D+00  0.100000D+01
   d     1 1.00
  0.109700D+01  0.100000D+01
   d     1 1.00
  0.318000D+00  0.100000D+01
   f     1 1.00
  0.761000D+00  0.100000D+01
  
  7  0
   s    10 1.00
  0.823600D+04  0.531000D-03
  0.123500D+04  0.410800D-02
  0.280800D+03  0.210870D-01
  0.792700D+02  0.818530D-01
  0.255900D+02  0.234817D+00
  0.899700D+01  0.434401D+00
  0.331900D+01  0.346129D+00
  0.905900D+00  0.393780D-01
  0.364300D+00 -0.898300D-02
  0.128500D+00  0.238500D-02
   s    10 1.00
  0.823600D+04 -0.113000D-03
  0.123500D+04 -0.878000D-03
  0.280800D+03 -0.454000D-02
  0.792700D+02 -0.181330D-01
  0.255900D+02 -0.557600D-01
  0.899700D+01 -0.126895D+00
  0.331900D+01 -0.170352D+00
  0.905900D+00  0.140382D+00
  0.364300D+00  0.598684D+00
  0.128500D+00  0.395389D+00
   s     1 1.00
  0.905900D+00  0.100000D+01
   s     1 1.00
  0.364300D+00  0.100000D+01
   p     5 1.00
  0.187100D+02  0.140310D-01
  0.413300D+01  0.868660D-01
  0.120000D+01  0.290216D+00
  0.382700D+00  0.501008D+00
  0.120900D+00  0.343406D+00
   p     1 1.00
  0.382700D+00  0.100000D+01
   p     1 1.00
  0.120900D+00  0.100000D+01
   d     1 1.00
  0.109700D+01  0.100000D+01
   d     1 1.00
  0.318000D+00  0.100000D+01
   f     1 1.00
  0.761000D+00  0.100000D+01
  
  8  0
   s     4 1.00
  0.130100D+02  0.196850D-01
  0.196200D+01  0.137977D+00
  0.444600D+00  0.478148D+00
  0.122000D+00  0.501240D+00
   s     1 1.00
  0.122000D+00  0.100000D+01
   p     1 1.00
  0.727000D+00  0.100000D+01
  
  9  0
   s     4 1.00
  0.130100D+02  0.196850D-01
  0.196200D+01  0.137977D+00
  0.444600D+00  0.478148D+00
  0.122000D+00  0.501240D+00
   s     1 1.00
  0.122000D+00  0.100000D+01
   p     1 1.00
  0.727000D+00  0.100000D+01
  
 10  0
   s     4 1.00
  0.130100D+02  0.196850D-01
  0.196200D+01  0.137977D+00
  0.444600D+00  0.478148D+00
  0.122000D+00  0.501240D+00
   s     1 1.00
  0.122000D+00  0.100000D+01
   p     1 1.00
  0.727000D+00  0.100000D+01
  
 11  0
   s     4 1.00
  0.130100D+02  0.196850D-01
  0.196200D+01  0.137977D+00
  0.444600D+00  0.478148D+00
  0.122000D+00  0.501240D+00
   s     1 1.00
  0.122000D+00  0.100000D+01
   p     1 1.00
  0.727000D+00  0.100000D+01
  
 12  0
   s     4 1.00
  0.130100D+02  0.196850D-01
  0.196200D+01  0.137977D+00
  0.444600D+00  0.478148D+00
  0.122000D+00  0.501240D+00
   s     1 1.00
  0.122000D+00  0.100000D+01
   p     1 1.00
  0.727000D+00  0.100000D+01
  
 13  0
   s     4 1.00
  0.130100D+02  0.196850D-01
  0.196200D+01  0.137977D+00
  0.444600D+00  0.478148D+00
  0.122000D+00  0.501240D+00
   s     1 1.00
  0.122000D+00  0.100000D+01
   p     1 1.00
  0.727000D+00  0.100000D+01
  
 14  0
   s     4 1.00
  0.130100D+02  0.196850D-01
  0.196200D+01  0.137977D+00
  0.444600D+00  0.478148D+00
  0.122000D+00  0.501240D+00
   s     1 1.00
  0.122000D+00  0.100000D+01
   p     1 1.00
  0.727000D+00  0.100000D+01
  
[MO]
 Sym= __1_A__
 Ene=  0.000000000000000E+000
 Spin= Alpha
 Occup=    2.00000000000000     
                     1  1.693038280993265E-004
                     2  0.998076181450407     
                     3  5.584386295689001E-003
                     4  1.977184067757286E-003
                     5  4.280984887221518E-003
                     6  4.886849065060995E-003
                     7 -3.689499098402592E-003
                     8 -6.119515670238046E-009
                     9 -5.210881468149604E-004
                    10  1.218059665054585E-004
                    11  2.778594829044205E-009
                    12 -8.342042862110440E-004
                    13  2.455434534210208E-003
                    14 -9.176873436360712E-009
                    15 -7.122184294511040E-006
                    16 -5.014640750323901E-010
                    17  9.212171730853553E-011
                    18  1.408221859574027E-004
                    19  5.811159051121532E-005
                    20 -4.233345517212789E-004
                    21  8.194909367156745E-010
                    22  2.080410008380818E-009
                    23 -1.412229343531311E-005
                    24 -4.287420613962220E-004
                    25  3.991104723126049E-009
                    26 -1.681840089500285E-004
                    27 -5.992535779366870E-005
                    28  6.440514144776944E-009
                    29 -1.053785057180205E-009
                    30 -9.560144165230970E-005
                    31 -6.422768936443150E-005
                    32 -3.833882662183870E-004
                    33  1.343674772852214E-003
                    34  2.064099739307043E-004
                    35 -1.066922467026381E-004
                    36 -5.170116073909133E-003
                    37  8.074359138460074E-005
                    38  4.979004480612616E-009
                    39  2.336767325910461E-004
                    40  6.166170209051763E-006
                    41 -7.395450046981085E-009
                    42  4.658065147193609E-003
                    43  6.729153081227028E-004
                    44  6.989574177400772E-008
                    45 -2.492092585315587E-004
                    46  3.472927671095900E-009
                    47 -1.415428281392751E-010
                    48  2.142940568798740E-004
                    49  3.536709014255121E-005
                    50  4.253757052705607E-004
                    51 -2.784973308753953E-008
                    52  1.135006703311025E-009
                    53  5.892183903893146E-005
                    54 -3.118775426951522E-004
                    55 -6.171334255727179E-009
                    56 -8.869337483155608E-005
                    57  1.496761013842062E-005
                    58 -3.427300340511098E-009
                    59  4.325518187563128E-010
                    60 -4.693197007457406E-005
                    61  3.721503673335226E-005
                    62 -3.146051855484213E-004
                    63 -1.777416057100216E-003
                    64  8.872597517999230E-005
                    65  7.127551971566913E-004
                    66  6.725883022910386E-004
                    67 -3.047057961363853E-005
                    68 -6.833109362942000E-004
                    69  6.059267377424604E-004
                    70  5.929482731156217E-005
                    71  2.693088611015020E-005
                    72 -3.989349845392369E-004
                    73 -2.784694966798162E-004
                    74 -7.225047512006044E-004
                    75 -7.194405636071835E-005
                    76 -1.257346347344113E-005
                    77  1.697542301709771E-005
                    78  5.408620229392612E-005
                    79 -5.695794041953586E-006
                    80  1.124451272853594E-004
                    81  2.032120617433107E-004
                    82 -2.755313851387610E-005
                    83 -7.202171635872056E-005
                    84  3.241767657497397E-005
                    85 -1.466891912919794E-005
                    86 -5.696498549694616E-005
                    87  1.743200148776288E-005
                    88 -2.014339542373450E-005
                    89  1.295969679523386E-005
                    90 -4.731272389844832E-005
                    91 -8.739882979562853E-006
                    92 -3.145919800713186E-004
                    93 -1.777363798343045E-003
                    94  8.877372720417650E-005
                    95  7.126139512612707E-004
                    96  6.726200529414763E-004
                    97 -3.047017054486676E-005
                    98  6.833134805285681E-004
                    99  6.057812857770347E-004
                   100  5.929292563996756E-005
                   101 -2.695372119293014E-005
                   102 -3.987822479619924E-004
                   103 -2.784703721584114E-004
                   104  7.223458209985322E-004
                   105 -7.194047366304456E-005
                   106  1.257829177932243E-005
                   107 -1.697529887778973E-005
                   108  5.407913975317516E-005
                   109 -5.695804017717566E-006
                   110  1.125236231971201E-004
                   111 -2.032574177310404E-004
                   112  2.755410461589376E-005
                   113 -7.211703265183740E-005
                   114  3.241679295105859E-005
                   115  1.467242462651677E-005
                   116 -5.694898771702743E-005
                   117  1.743178581154675E-005
                   118  2.014552685470092E-005
                   119 -1.295986478950603E-005
                   120 -4.729645434611360E-005
                   121 -8.740181078702073E-006
                   122 -1.432670513098088E-004
                   123 -1.074428053999743E-004
                   124  5.692619141248734E-005
                   125  3.895536650316248E-004
                   126 -6.271599230538112E-004
                   127 -2.766837478932284E-005
                   128  2.786192954728314E-005
                   129  2.281974995855184E-004
                   130 -1.080243970598036E-005
                   131  2.265407587090041E-005
                   132  7.774614388713790E-004
                   133  1.163098121944075E-004
                   134 -2.846361593263603E-004
                   135  3.279413127218496E-006
                   136 -1.303985446619351E-006
                   137 -3.234915014419265E-006
                   138  3.735284532184918E-007
                   139  7.059754909876649E-006
                   140  7.068093361103057E-005
                   141  1.982875936523861E-004
                   142  8.365277454050600E-006
                   143 -1.749920707835861E-004
                   144 -2.020200457523685E-005
                   145 -6.633017789206192E-006
                   146 -1.632983739920974E-005
                   147  1.349084891229897E-006
                   148 -1.404016332324657E-007
                   149 -1.616098370054569E-006
                   150 -4.255494384708088E-005
                   151  7.373424191130200E-007
                   152 -1.434844154332919E-004
                   153 -1.082061022775908E-004
                   154  5.675289579939409E-005
                   155  3.907309916020975E-004
                   156 -6.271574274758164E-004
                   157 -2.766812953322118E-005
                   158 -2.783313163579485E-005
                   159  2.281526628660131E-004
                   160 -1.080326120678319E-005
                   161 -2.282097851320801E-005
                   162  7.775934078222286E-004
                   163  1.163107473577061E-004
                   164  2.847862459315920E-004
                   165  3.289230018587910E-006
                   166  1.300781820180161E-006
                   167  3.234569575033368E-006
                   168  3.972357841721974E-007
                   169  7.059883097543298E-006
                   170  7.070509394257756E-005
                   171 -1.983831115585190E-004
                   172 -8.364824706880850E-006
                   173 -1.749668679369160E-004
                   174 -2.020256170666105E-005
                   175  6.636384624341212E-006
                   176 -1.629376846694365E-005
                   177  1.349083282039421E-006
                   178  1.380272363793641E-007
                   179  1.616318305673476E-006
                   180 -4.254457846468894E-005
                   181  7.372555718568521E-007
                   182 -9.238013860478110E-005
                   183 -2.643228775289969E-004
                   184  2.854309992237156E-005
                   185  7.669401160871899E-005
                   186 -2.162646733097440E-005
                   187 -4.140409523830689E-005
                   188  3.846837180006179E-008
                   189  6.427180548776937E-005
                   190  1.784320654757238E-005
                   191 -1.872819392684694E-007
                   192 -2.597323402505863E-004
                   193 -8.299299268477296E-005
                   194 -4.561903281277288E-008
                   195 -1.139288007646305E-005
                   196  9.210937582566866E-009
                   197 -5.570280869835939E-011
                   198  6.316278800896042E-006
                   199 -1.381325697322020E-006
                   200 -1.153494097914191E-004
                   201  9.534087172117297E-008
                   202  4.321726517850903E-010
                   203  5.078720380141096E-005
                   204  1.284382528261772E-005
                   205  8.932056409209427E-009
                   206  9.844971648015642E-007
                   207  2.150976225636022E-006
                   208 -8.771701043779506E-009
                   209 -2.090409402301637E-012
                   210 -5.076995793426140E-006
                   211 -1.646918611124394E-006
                   212  3.116445776096881E-003
                   213 -2.265992668892125E-003
                   214  2.355515725141976E-004
                   215  2.508878986207384E-004
                   216  3.937556608831311E-004
                   217  3.116448162371991E-003
                   218 -2.265994864499105E-003
                   219  2.355556351154296E-004
                   220  2.508883208707313E-004
                   221 -3.937580674100279E-004
                   222 -5.288329750401895E-004
                   223 -2.655970429276269E-004
                   224 -4.962678935718111E-005
                   225  6.144637759216174E-006
                   226  2.174304396844318E-005
                   227 -5.288517799182288E-004
                   228 -2.654606057559513E-004
                   229 -4.963376220594092E-005
                   230  6.144492149714763E-006
                   231 -2.174775981191540E-005
                   232 -1.415297161073007E-004
                   233 -4.700668142145760E-004
                   234  6.528870875183808E-006
                   235 -4.554649237033069E-007
                   236 -4.341171571943540E-006
                   237 -1.415581372521932E-004
                   238 -4.701106514696512E-004
                   239  6.550370346465343E-006
                   240 -4.553709015240941E-007
                   241  4.359065038354758E-006
                   242  3.836187712694903E-005
                   243  5.748321895325516E-005
                   244  2.200219229215582E-005
                   245  1.107675281793794E-006
                   246 -1.002840537548808E-008
 Sym= __2_A__
 Ene=  0.000000000000000E+000
 Spin= Alpha
 Occup=    2.00000000000000     
                     1 -2.924363226315002E-005
                     2 -1.528946001940375E-004
                     3  1.981964880039051E-003
                     4  4.212434644209601E-005
                     5  1.180450053790510E-003
                     6  2.210789066549847E-003
                     7  3.646359289806138E-004
                     8  3.026456188194855E-009
                     9 -7.117871327357127E-005
                    10  6.822816072454134E-005
                    11 -1.752458200575475E-009
                    12 -1.713966005748394E-004
                    13  1.270930793456416E-005
                    14  2.620375020973245E-009
                    15 -7.270181932891333E-005
                    16  2.069483310469707E-010
                    17 -1.110832030506726E-010
                    18  2.490079895096766E-005
                    19 -9.305065730616481E-007
                    20  2.789934660499589E-004
                    21 -1.312522899076491E-009
                    22 -4.314195434695708E-010
                    23  3.610769469854766E-005
                    24 -2.412221423901790E-005
                    25 -3.911966259801927E-010
                    26  1.322504874728363E-004
                    27 -5.973728516286691E-005
                    28 -1.119741438636959E-009
                    29  1.851290973267774E-010
                    30  1.295309136559784E-004
                    31  3.392599489994396E-005
                    32   1.00105912649578     
                    33  8.810659910368680E-003
                    34  2.619407111787973E-003
                    35 -8.058516018931098E-003
                    36 -3.000890562848302E-003
                    37  6.672067778323477E-004
                    38 -3.453536836460041E-009
                    39  8.962184118311300E-004
                    40 -1.948985708295673E-004
                    41  5.955281013489923E-010
                    42  3.728910682329421E-003
                    43 -9.180656117106161E-005
                    44 -3.035881950064078E-008
                    45  2.378628415905787E-004
                    46 -1.269819210901846E-009
                    47  1.256397691734641E-010
                    48  4.500405508537408E-004
                    49 -3.065258545078063E-005
                    50 -1.278819769052253E-003
                    51  2.841325747786311E-009
                    52 -8.657944906477309E-010
                    53  5.709003573957000E-005
                    54  3.103887476987913E-005
                    55  1.328289805784573E-009
                    56  3.117624882253653E-004
                    57 -8.304332909187854E-006
                    58 -1.172482180147359E-010
                    59 -1.507511886726279E-010
                    60  1.181320664941137E-004
                    61  2.590084322769699E-005
                    62  1.033811167088684E-002
                    63 -1.886916956021322E-003
                    64 -2.993673819791033E-004
                    65  3.071424140974133E-003
                    66 -6.419530397182618E-005
                    67  1.218288609594934E-004
                    68  1.955201629744301E-004
                    69 -1.404867596127847E-004
                    70 -1.464724671551441E-005
                    71  6.273698309234015E-004
                    72  1.408502860284609E-005
                    73 -1.580930495692726E-005
                    74 -1.981287700331897E-003
                    75  2.129291282808081E-006
                    76  1.169814185421882E-005
                    77  8.909628045901659E-006
                    78 -3.185455640586632E-005
                    79 -6.252335942881380E-006
                    80 -4.045505355048143E-004
                    81 -5.690698281820319E-004
                    82 -9.053538983160528E-006
                    83  6.970962854515621E-004
                    84  1.803118222060453E-005
                    85  7.995878762106610E-005
                    86  1.127283141090081E-004
                    87  1.145789816801151E-006
                    88  5.192656248975186E-006
                    89 -7.058341955265748E-006
                    90 -2.312210284114666E-005
                    91  4.584254475206676E-006
                    92  1.033810617735455E-002
                    93 -1.886959008164391E-003
                    94 -2.993854453475923E-004
                    95  3.071506508660735E-003
                    96 -6.420620592138776E-005
                    97  1.218285936357456E-004
                    98 -1.955188582512139E-004
                    99 -1.404392059871989E-004
                   100 -1.464644338043550E-005
                   101 -6.273740638709453E-004
                   102  1.401571594845707E-005
                   103 -1.580921723166516E-005
                   104  1.981348994565332E-003
                   105  2.127167398677449E-006
                   106 -1.170072396922226E-005
                   107 -8.909679269012136E-006
                   108 -3.184949204043528E-005
                   109 -6.252274360394899E-006
                   110 -4.045700153971330E-004
                   111  5.690905021064676E-004
                   112  9.053068517786688E-006
                   113  6.971149975647906E-004
                   114  1.803091522209175E-005
                   115 -7.995849984629349E-005
                   116  1.127231776702971E-004
                   117  1.145883537286243E-006
                   118 -5.192847990925662E-006
                   119  7.058524422526816E-006
                   120 -2.312649705350796E-005
                   121  4.584338293990301E-006
                   122 -1.963882489794924E-004
                   123 -6.851636009781312E-004
                   124  2.273558577006727E-004
                   125 -1.351918201187185E-004
                   126 -2.140035405179913E-004
                   127  2.387040633280819E-005
                   128 -2.669677442106529E-005
                   129  4.898004499659499E-004
                   130 -5.620011211305207E-006
                   131  1.756919066565059E-005
                   132  6.360700460251058E-004
                   133  3.339674863881970E-006
                   134  3.317723663999675E-004
                   135 -2.670535092137024E-006
                   136  4.492482561546963E-005
                   137 -4.111737445311484E-007
                   138 -2.026348466152472E-005
                   139 -1.812602082733125E-006
                   140  1.641139441409146E-004
                   141 -2.776202239633855E-004
                   142  5.213884830780333E-006
                   143 -2.560493720377676E-004
                   144 -7.178145862806603E-007
                   145 -2.343592070663049E-005
                   146  1.557342412459173E-005
                   147  4.173645815480358E-007
                   148 -2.392184321863552E-005
                   149 -2.485672556288256E-006
                   150 -2.744076123435114E-005
                   151 -6.557571543400084E-007
                   152 -1.962260772671765E-004
                   153 -6.846199534546741E-004
                   154  2.273852690897884E-004
                   155 -1.357404574721584E-004
                   156 -2.140039272360758E-004
                   157  2.387034621879904E-005
                   158  2.669028585600458E-005
                   159  4.898121905677530E-004
                   160 -5.619800651129207E-006