[Molden Format]
[Atoms] AU
  N     1    7    -0.0116146100   -4.3067228600    0.0000000000        
  C     2    6     0.0124260400   -1.7885843000    0.0000000000        
  C     3    6    -2.3286309100   -0.4161091700    0.0000000000        
  C     4    6     2.3465385500   -0.4027029300    0.0000000000        
  C     5    6    -2.2960709400    2.1605427400    0.0000000000        
  C     6    6     2.2983993000    2.1738313900    0.0000000000        
  C     7    6    -0.0030276500    3.4821658100    0.0000000000        
  H     8    1    -1.9668348900   -5.4553947300    0.0000000000        
  H     9    1     1.6247384300   -5.3594358900    0.0000000000        
  H    10    1    -4.0607267700   -1.4543414400    0.0000000000        
  H    11    1     4.0890804700   -1.4253457800    0.0000000000        
  H    12    1    -4.0438953700    3.1857432800    0.0000000000        
  H    13    1     4.0382553400    3.2115589600    0.0000000000        
  H    14    1    -0.0082587600    5.5088883200    0.0000000000        
[5D]
[7F]
[GTO]
  1  0
   s    12 1.00
  0.114200D+05  0.172695D-04
  0.171200D+04  0.134411D-03
  0.389300D+03  0.694561D-03
  0.110000D+03  0.278531D-02
  0.355700D+02  0.863457D-02
  0.125400D+02  0.199805D-01
  0.464400D+01  0.262908D-01
  0.129300D+01 -0.243845D-01
  0.511800D+00 -0.924934D-01
  0.178700D+00 -0.339683D+00
  0.246240D-01  0.345111D+00
  0.112530D-01  0.752750D+00
   s    10 1.00
  0.114200D+05  0.523000D-03
  0.171200D+04  0.404500D-02
  0.389300D+03  0.207750D-01
  0.110000D+03  0.807269D-01
  0.355700D+02  0.233074D+00
  0.125400D+02  0.433501D+00
  0.464400D+01  0.347472D+00
  0.129300D+01  0.412620D-01
  0.511800D+00 -0.850799D-02
  0.178700D+00  0.238400D-02
   s    10 1.00
  0.114200D+05 -0.115000D-03
  0.171200D+04 -0.895000D-03
  0.389300D+03 -0.462400D-02
  0.110000D+03 -0.185280D-01
  0.355700D+02 -0.573390D-01
  0.125400D+02 -0.132076D+00
  0.464400D+01 -0.172510D+00
  0.129300D+01  0.151814D+00
  0.511800D+00  0.599944D+00
  0.178700D+00  0.387462D+00
   s     1 1.00
  0.129300D+01  0.100000D+01
   s     1 1.00
  0.178700D+00  0.100000D+01
   p     5 1.00
  0.266300D+02  0.146700D-01
  0.594800D+01  0.917640D-01
  0.174200D+01  0.298683D+00
  0.555000D+00  0.498487D+00
  0.172500D+00  0.337023D+00
   p     1 1.00
  0.174200D+01  0.100000D+01
   p     1 1.00
  0.555000D+00  0.100000D+01
   d     1 1.00
  0.165400D+01  0.100000D+01
   d     1 1.00
  0.469000D+00  0.100000D+01
   f     1 1.00
  0.109300D+01  0.100000D+01
  
  2  0
   s    10 1.00
  0.823600D+04  0.531000D-03
  0.123500D+04  0.410800D-02
  0.280800D+03  0.210870D-01
  0.792700D+02  0.818530D-01
  0.255900D+02  0.234817D+00
  0.899700D+01  0.434401D+00
  0.331900D+01  0.346129D+00
  0.905900D+00  0.393780D-01
  0.364300D+00 -0.898300D-02
  0.128500D+00  0.238500D-02
   s    10 1.00
  0.823600D+04 -0.113000D-03
  0.123500D+04 -0.878000D-03
  0.280800D+03 -0.454000D-02
  0.792700D+02 -0.181330D-01
  0.255900D+02 -0.557600D-01
  0.899700D+01 -0.126895D+00
  0.331900D+01 -0.170352D+00
  0.905900D+00  0.140382D+00
  0.364300D+00  0.598684D+00
  0.128500D+00  0.395389D+00
   s     1 1.00
  0.905900D+00  0.100000D+01
   s     1 1.00
  0.364300D+00  0.100000D+01
   p     5 1.00
  0.187100D+02  0.140310D-01
  0.413300D+01  0.868660D-01
  0.120000D+01  0.290216D+00
  0.382700D+00  0.501008D+00
  0.120900D+00  0.343406D+00
   p     1 1.00
  0.382700D+00  0.100000D+01
   p     1 1.00
  0.120900D+00  0.100000D+01
   d     1 1.00
  0.109700D+01  0.100000D+01
   d     1 1.00
  0.318000D+00  0.100000D+01
   f     1 1.00
  0.761000D+00  0.100000D+01
  
  3  0
   s    10 1.00
  0.823600D+04  0.531000D-03
  0.123500D+04  0.410800D-02
  0.280800D+03  0.210870D-01
  0.792700D+02  0.818530D-01
  0.255900D+02  0.234817D+00
  0.899700D+01  0.434401D+00
  0.331900D+01  0.346129D+00
  0.905900D+00  0.393780D-01
  0.364300D+00 -0.898300D-02
  0.128500D+00  0.238500D-02
   s    10 1.00
  0.823600D+04 -0.113000D-03
  0.123500D+04 -0.878000D-03
  0.280800D+03 -0.454000D-02
  0.792700D+02 -0.181330D-01
  0.255900D+02 -0.557600D-01
  0.899700D+01 -0.126895D+00
  0.331900D+01 -0.170352D+00
  0.905900D+00  0.140382D+00
  0.364300D+00  0.598684D+00
  0.128500D+00  0.395389D+00
   s     1 1.00
  0.905900D+00  0.100000D+01
   s     1 1.00
  0.364300D+00  0.100000D+01
   p     5 1.00
  0.187100D+02  0.140310D-01
  0.413300D+01  0.868660D-01
  0.120000D+01  0.290216D+00
  0.382700D+00  0.501008D+00
  0.120900D+00  0.343406D+00
   p     1 1.00
  0.382700D+00  0.100000D+01
   p     1 1.00
  0.120900D+00  0.100000D+01
   d     1 1.00
  0.109700D+01  0.100000D+01
   d     1 1.00
  0.318000D+00  0.100000D+01
   f     1 1.00
  0.761000D+00  0.100000D+01
  
  4  0
   s    10 1.00
  0.823600D+04  0.531000D-03
  0.123500D+04  0.410800D-02
  0.280800D+03  0.210870D-01
  0.792700D+02  0.818530D-01
  0.255900D+02  0.234817D+00
  0.899700D+01  0.434401D+00
  0.331900D+01  0.346129D+00
  0.905900D+00  0.393780D-01
  0.364300D+00 -0.898300D-02
  0.128500D+00  0.238500D-02
   s    10 1.00
  0.823600D+04 -0.113000D-03
  0.123500D+04 -0.878000D-03
  0.280800D+03 -0.454000D-02
  0.792700D+02 -0.181330D-01
  0.255900D+02 -0.557600D-01
  0.899700D+01 -0.126895D+00
  0.331900D+01 -0.170352D+00
  0.905900D+00  0.140382D+00
  0.364300D+00  0.598684D+00
  0.128500D+00  0.395389D+00
   s     1 1.00
  0.905900D+00  0.100000D+01
   s     1 1.00
  0.364300D+00  0.100000D+01
   p     5 1.00
  0.187100D+02  0.140310D-01
  0.413300D+01  0.868660D-01
  0.120000D+01  0.290216D+00
  0.382700D+00  0.501008D+00
  0.120900D+00  0.343406D+00
   p     1 1.00
  0.382700D+00  0.100000D+01
   p     1 1.00
  0.120900D+00  0.100000D+01
   d     1 1.00
  0.109700D+01  0.100000D+01
   d     1 1.00
  0.318000D+00  0.100000D+01
   f     1 1.00
  0.761000D+00  0.100000D+01
  
  5  0
   s    10 1.00
  0.823600D+04  0.531000D-03
  0.123500D+04  0.410800D-02
  0.280800D+03  0.210870D-01
  0.792700D+02  0.818530D-01
  0.255900D+02  0.234817D+00
  0.899700D+01  0.434401D+00
  0.331900D+01  0.346129D+00
  0.905900D+00  0.393780D-01
  0.364300D+00 -0.898300D-02
  0.128500D+00  0.238500D-02
   s    10 1.00
  0.823600D+04 -0.113000D-03
  0.123500D+04 -0.878000D-03
  0.280800D+03 -0.454000D-02
  0.792700D+02 -0.181330D-01
  0.255900D+02 -0.557600D-01
  0.899700D+01 -0.126895D+00
  0.331900D+01 -0.170352D+00
  0.905900D+00  0.140382D+00
  0.364300D+00  0.598684D+00
  0.128500D+00  0.395389D+00
   s     1 1.00
  0.905900D+00  0.100000D+01
   s     1 1.00
  0.364300D+00  0.100000D+01
   p     5 1.00
  0.187100D+02  0.140310D-01
  0.413300D+01  0.868660D-01
  0.120000D+01  0.290216D+00
  0.382700D+00  0.501008D+00
  0.120900D+00  0.343406D+00
   p     1 1.00
  0.382700D+00  0.100000D+01
   p     1 1.00
  0.120900D+00  0.100000D+01
   d     1 1.00
  0.109700D+01  0.100000D+01
   d     1 1.00
  0.318000D+00  0.100000D+01
   f     1 1.00
  0.761000D+00  0.100000D+01
  
  6  0
   s    10 1.00
  0.823600D+04  0.531000D-03
  0.123500D+04  0.410800D-02
  0.280800D+03  0.210870D-01
  0.792700D+02  0.818530D-01
  0.255900D+02  0.234817D+00
  0.899700D+01  0.434401D+00
  0.331900D+01  0.346129D+00
  0.905900D+00  0.393780D-01
  0.364300D+00 -0.898300D-02
  0.128500D+00  0.238500D-02
   s    10 1.00
  0.823600D+04 -0.113000D-03
  0.123500D+04 -0.878000D-03
  0.280800D+03 -0.454000D-02
  0.792700D+02 -0.181330D-01
  0.255900D+02 -0.557600D-01
  0.899700D+01 -0.126895D+00
  0.331900D+01 -0.170352D+00
  0.905900D+00  0.140382D+00
  0.364300D+00  0.598684D+00
  0.128500D+00  0.395389D+00
   s     1 1.00
  0.905900D+00  0.100000D+01
   s     1 1.00
  0.364300D+00  0.100000D+01
   p     5 1.00
  0.187100D+02  0.140310D-01
  0.413300D+01  0.868660D-01
  0.120000D+01  0.290216D+00
  0.382700D+00  0.501008D+00
  0.120900D+00  0.343406D+00
   p     1 1.00
  0.382700D+00  0.100000D+01
   p     1 1.00
  0.120900D+00  0.100000D+01
   d     1 1.00
  0.109700D+01  0.100000D+01
   d     1 1.00
  0.318000D+00  0.100000D+01
   f     1 1.00
  0.761000D+00  0.100000D+01
  
  7  0
   s    10 1.00
  0.823600D+04  0.531000D-03
  0.123500D+04  0.410800D-02
  0.280800D+03  0.210870D-01
  0.792700D+02  0.818530D-01
  0.255900D+02  0.234817D+00
  0.899700D+01  0.434401D+00
  0.331900D+01  0.346129D+00
  0.905900D+00  0.393780D-01
  0.364300D+00 -0.898300D-02
  0.128500D+00  0.238500D-02
   s    10 1.00
  0.823600D+04 -0.113000D-03
  0.123500D+04 -0.878000D-03
  0.280800D+03 -0.454000D-02
  0.792700D+02 -0.181330D-01
  0.255900D+02 -0.557600D-01
  0.899700D+01 -0.126895D+00
  0.331900D+01 -0.170352D+00
  0.905900D+00  0.140382D+00
  0.364300D+00  0.598684D+00
  0.128500D+00  0.395389D+00
   s     1 1.00
  0.905900D+00  0.100000D+01
   s     1 1.00
  0.364300D+00  0.100000D+01
   p     5 1.00
  0.187100D+02  0.140310D-01
  0.413300D+01  0.868660D-01
  0.120000D+01  0.290216D+00
  0.382700D+00  0.501008D+00
  0.120900D+00  0.343406D+00
   p     1 1.00
  0.382700D+00  0.100000D+01
   p     1 1.00
  0.120900D+00  0.100000D+01
   d     1 1.00
  0.109700D+01  0.100000D+01
   d     1 1.00
  0.318000D+00  0.100000D+01
   f     1 1.00
  0.761000D+00  0.100000D+01
  
  8  0
   s     4 1.00
  0.130100D+02  0.196850D-01
  0.196200D+01  0.137977D+00
  0.444600D+00  0.478148D+00
  0.122000D+00  0.501240D+00
   s     1 1.00
  0.122000D+00  0.100000D+01
   p     1 1.00
  0.727000D+00  0.100000D+01
  
  9  0
   s     4 1.00
  0.130100D+02  0.196850D-01
  0.196200D+01  0.137977D+00
  0.444600D+00  0.478148D+00
  0.122000D+00  0.501240D+00
   s     1 1.00
  0.122000D+00  0.100000D+01
   p     1 1.00
  0.727000D+00  0.100000D+01
  
 10  0
   s     4 1.00
  0.130100D+02  0.196850D-01
  0.196200D+01  0.137977D+00
  0.444600D+00  0.478148D+00
  0.122000D+00  0.501240D+00
   s     1 1.00
  0.122000D+00  0.100000D+01
   p     1 1.00
  0.727000D+00  0.100000D+01
  
 11  0
   s     4 1.00
  0.130100D+02  0.196850D-01
  0.196200D+01  0.137977D+00
  0.444600D+00  0.478148D+00
  0.122000D+00  0.501240D+00
   s     1 1.00
  0.122000D+00  0.100000D+01
   p     1 1.00
  0.727000D+00  0.100000D+01
  
 12  0
   s     4 1.00
  0.130100D+02  0.196850D-01
  0.196200D+01  0.137977D+00
  0.444600D+00  0.478148D+00
  0.122000D+00  0.501240D+00
   s     1 1.00
  0.122000D+00  0.100000D+01
   p     1 1.00
  0.727000D+00  0.100000D+01
  
 13  0
   s     4 1.00
  0.130100D+02  0.196850D-01
  0.196200D+01  0.137977D+00
  0.444600D+00  0.478148D+00
  0.122000D+00  0.501240D+00
   s     1 1.00
  0.122000D+00  0.100000D+01
   p     1 1.00
  0.727000D+00  0.100000D+01
  
 14  0
   s     4 1.00
  0.130100D+02  0.196850D-01
  0.196200D+01  0.137977D+00
  0.444600D+00  0.478148D+00
  0.122000D+00  0.501240D+00
   s     1 1.00
  0.122000D+00  0.100000D+01
   p     1 1.00
  0.727000D+00  0.100000D+01
  
[MO]
 Sym= __1_A__
 Ene=   1.00000000000000     
 Spin= Alpha
 Occup=    1.00000000000000     
                     1  1.163285275902016E-005
                     2  0.998311347128465     
                     3  7.318163784137674E-003
                     4  1.831429403604096E-003
                     5  2.111772265945708E-003
                     6  5.146454439622241E-004
                     7  4.733374690968640E-003
                     8  2.205061058078576E-012
                     9  1.062555259344621E-004
                    10 -9.783965540765577E-005
                    11 -1.330783063791167E-012
                    12 -1.234457984728005E-004
                    13 -3.770035141305614E-004
                    14 -5.955544847563476E-012
                    15 -1.715915334964185E-004
                    16  2.542078850537422E-013
                    17 -9.800058828227491E-013
                    18 -2.059352103282692E-004
                    19 -6.696859986495385E-005
                    20  3.974397709126879E-004
                    21  2.769149443503215E-013
                    22  3.194258560061312E-012
                    23 -3.544548257017020E-004
                    24  7.812713126046648E-005
                    25  3.211972642529510E-012
                    26 -2.183998656634148E-005
                    27 -5.285648769397866E-005
                    28  2.873367670866376E-013
                    29  6.906702585858691E-013
                    30  9.043077153007598E-006
                    31 -1.452182795628497E-004
                    32 -3.394565179038919E-004
                    33  2.503990461907418E-003
                    34  1.334298718461711E-004
                    35 -2.079268980996147E-004
                    36 -5.204407539923782E-005
                    37 -6.501676519171681E-003
                    38 -1.281753227514773E-011
                    39 -1.880260667735618E-005
                    40  2.240668027739253E-004
                    41  2.207641031303273E-012
                    42 -1.388271928003297E-004
                    43  4.587016358877181E-003
                    44 -9.156148060660548E-013
                    45 -5.346380069637917E-005
                    46  7.065421870097636E-013
                    47 -5.643730034060957E-013
                    48 -3.471338633078822E-004
                    49 -1.193427223039465E-005
                    50 -4.031805247914748E-004
                    51 -2.942067929191014E-012
                    52  3.319388028776133E-012
                    53  5.436100350239820E-005
                    54  6.012380240933092E-005
                    55  4.987906874214946E-013
                    56  1.584932357271477E-006
                    57 -6.195058890916579E-006
                    58  2.073417602798086E-012
                    59 -1.246225356821071E-012
                    60  1.227526318262782E-005
                    61 -1.137903035471201E-004
                    62 -2.114039920824416E-004
                    63 -1.525503047269805E-003
                    64  4.248673117657752E-005
                    65  6.434438452398398E-004
                    66 -7.580632220565140E-004
                    67  8.392385109170168E-004
                    68 -1.043961589471557E-011
                    69 -1.357605674517170E-006
                    70  5.988300877949719E-004
                    71  3.263424884359391E-012
                    72 -8.013994039753557E-004
                    73 -4.708413843085318E-005
                    74 -2.080157247613031E-012
                    75 -1.364601682506341E-005
                    76 -1.628121750252384E-012
                    77  4.499169767479309E-013
                    78 -8.843444201309555E-005
                    79 -6.711086882190269E-006
                    80 -1.233147587842054E-005
                    81 -2.642645056683655E-012
                    82  1.419085773577504E-012
                    83  5.962292394164074E-006
                    84  1.567221831023148E-004
                    85  5.958555664627568E-013
                    86  2.064479067202754E-005
                    87 -4.386819616866780E-005
                    88  2.916723688695968E-013
                    89 -6.973180708980822E-013
                    90 -3.027677939300170E-005
                    91 -8.715420820779684E-005
                    92 -2.310150519761971E-004
                    93 -1.685544458856364E-003
                    94  6.423037384566067E-005
                    95  5.855762471313816E-004
                    96  8.084825403167831E-004
                    97  9.548042919216431E-004
                    98  2.115467996773045E-012
                    99  3.731102944836193E-005
                   100  5.507171442842080E-004
                   101 -3.438445451700156E-012
                   102  5.804357916726905E-004
                   103 -3.565537873509365E-004
                   104  3.773240469618903E-012
                   105 -1.018778729183585E-005
                   106  1.758323663024991E-012
                   107  1.070503764603350E-012
                   108 -9.745614315705360E-005
                   109  3.973857318911268E-006
                   110 -1.781488109805045E-005
                   111 -2.197018408301315E-012
                   112  3.537099405833444E-014
                   113  1.149832762979899E-006
                   114 -1.356063236866640E-004
                   115  1.693556537561305E-014
                   116 -1.840690987116849E-005
                   117 -3.793578236006925E-005
                   118  2.329102133244150E-012
                   119 -9.584875420707245E-013
                   120  1.342986900643758E-005
                   121 -8.341496828812648E-005
                   122 -1.536132683886800E-004
                   123 -7.773737254651103E-005
                   124  1.084011720665410E-004
                   125  1.571729220629403E-004
                   126  3.109945279160224E-005
                   127 -7.030649665615488E-004
                   128  6.357505198178636E-012
                   129  5.793881045844603E-005
                   130  3.674765307070889E-004
                   131 -6.149064367615888E-012
                   132 -7.284436600862843E-005
                   133  8.550229324628112E-004
                   134  3.091647692481671E-012
                   135  9.491935084674069E-006
                   136  3.215713375245494E-013
                   137  1.561681424624880E-012
                   138  1.665367150800829E-005
                   139  1.944891671013991E-007
                   140  1.069684319259663E-004
                   141  3.320273358850204E-013
                   142 -2.515548301604266E-012
                   143  1.742745809228020E-004
                   144  1.613016716771534E-004
                   145 -1.706445075868084E-012
                   146 -5.378982516097422E-006
                   147 -3.361432020917713E-005
                   148  8.340067019774672E-013
                   149 -1.701074081379450E-012
                   150  3.088656025445862E-006
                   151 -2.439384646009336E-005
                   152 -1.548598038873709E-004
                   153 -5.087129698183080E-005
                   154  1.051782579259475E-004
                   155  1.695062519033262E-004
                   156 -3.278474339518644E-005
                   157 -7.353352524329023E-004
                   158 -2.589305855923692E-012
                   159 -4.377425050962431E-005
                   160  3.179379601895423E-004
                   161 -3.671011923129760E-014
                   162  2.812952701195582E-004
                   163  6.127111899209713E-004
                   164 -3.819500892131987E-012
                   165  6.838850972796164E-006
                   166 -2.429891092207543E-012
                   167 -1.939951647289197E-012
                   168  1.441506622462161E-005
                   169 -1.805120155310197E-006
                   170  1.151968054274847E-004
                   171  3.025522983796228E-012
                   172  2.897074773035789E-012
                   173  1.420049518250509E-004
                   174 -1.471512299943183E-004
                   175 -3.222576510849505E-012
                   176  3.525134483926071E-006
                   177 -3.049586926447655E-005
                   178  6.349606080714226E-013
                   179 -1.617634202387648E-012
                   180 -1.127700566556109E-007
                   181 -2.520094546802380E-005
                   182 -1.202996914294452E-004
                   183 -3.227037452835351E-004
                   184  3.665760094663195E-005
                   185  1.402492792226530E-004
                   186 -4.181648777578338E-006
                   187 -4.325992175764124E-005
                   188 -4.026976170565984E-012
                   189  2.729688599400183E-005
                   190  2.813379267802852E-005
                   191  2.249506513650425E-012
                   192  1.523816279069505E-004
                   193 -2.580008953259636E-006
                   194 -8.189150784451543E-013
                   195 -1.550740727930776E-006
                   196  3.227439995534685E-013
                   197 -6.377668488715663E-013
                   198 -1.966748553856663E-005
                   199 -7.916632794211505E-007
                   200  1.865018353423098E-005
                   201 -3.585044439568713E-013
                   202 -7.158325931170575E-013
                   203 -7.850370632514525E-005
                   204 -1.763486730753753E-005
                   205 -1.609667920250124E-013
                   206 -1.283720646646157E-006
                   207 -5.420981523963959E-006
                   208 -2.879207335441618E-013
                   209 -1.748302118220324E-012
                   210 -7.605623235187383E-007
                   211 -7.490482562382378E-006
                   212  1.718501542679126E-003
                   213 -1.161779413117045E-003
                   214  3.961862025900366E-004
                   215  3.009015943933397E-004
                   216 -1.125379307615616E-012
                   217  3.450860741012119E-003
                   218 -2.139223692616938E-003
                   219 -4.250825263487091E-004
                   220  3.631639749993808E-004
                   221 -6.745504864229220E-013
                   222 -5.433107795808456E-004
                   223 -2.907674894670716E-004
                   224 -1.390903987990519E-005
                   225 -3.969551677259786E-005
                   226 -1.089576517183229E-012
                   227 -5.784533062918820E-004
                   228 -1.931923308888570E-004
                   229  1.138446168206793E-005
                   230 -4.105716377467446E-005
                   231 -7.829443957072337E-014
                   232 -2.010157184709165E-004
                   233 -4.060164650721586E-004
                   234 -4.612468703991409E-006
                   235  4.544824473724962E-006
                   236 -8.186301559026149E-013
                   237 -2.071714919244731E-004
                   238 -4.370834849428035E-004
                   239  3.369089906209772E-006
                   240  1.032091919643613E-006
                   241  1.151672601144435E-012
                   242  5.972250084887050E-005
                   243 -1.044337573417431E-004
                   244  6.741772655776085E-008
                   245  1.474846550935593E-005
                   246  2.743083715137766E-013
 Sym= __2_A__
 Ene=   2.00000000000000     
 Spin= Alpha
 Occup=    1.00000000000000     
                     1 -5.162295807307949E-005
                     2 -2.296589540346747E-004
                     3  2.508306949037064E-003
                     4  1.116336337382088E-004
                     5  1.248107538787186E-003
                     6 -8.816954576261452E-005
                     7  3.049224820192626E-003
                     8 -7.493313124504573E-014
                     9 -4.023918672317983E-006
                    10 -6.947213758662048E-005
                    11  5.664133157789415E-012
                    12  3.214202639371668E-005
                    13 -4.922551033147804E-004
                    14  3.551421574584356E-014
                    15  3.464494712486662E-005
                    16 -8.357041239962941E-013
                    17  8.669740798859141E-013
                    18 -7.033873358438255E-005
                    19 -2.080599126148257E-006
                    20 -1.388175080871291E-004
                    21  1.610728118757014E-012
                    22 -4.988362312792676E-012
                    23  3.302042887636968E-004
                    24 -5.943409580855958E-006
                    25 -2.027797738035402E-012
                    26 -3.275861261759134E-006
                    27  1.096660550961757E-004
                    28  3.058074213773398E-012
                    29 -1.044467785679047E-014
                    30 -1.831317020447564E-005
                    31  1.466886809285512E-004
                    32   1.00106479085650     
                    33  9.284592118397475E-003
                    34  2.603506041332736E-003
                    35 -7.766842767955856E-003
                    36 -7.261778244660746E-006
                    37 -4.174778448640396E-003
                    38  3.332121998488504E-012
                    39 -4.086446678925912E-005
                    40  1.007832622956094E-003
                    41  1.256151805213855E-012
                    42 -1.422307881613862E-006
                    43  4.402902937709437E-003
                    44  1.224945637789363E-011
                    45 -5.995585886019421E-004
                    46 -9.003491130882626E-013
                    47 -1.188077533046250E-012
                    48 -2.028318523442732E-004
                    49  7.785892684005709E-006
                    50  5.121065302765721E-004
                    51  2.101590736266016E-012
                    52 -6.070757855419185E-012
                    53 -8.675911814686308E-004
                    54 -4.957866757934769E-005
                    55  1.226316410845838E-012
                    56  3.008507467258525E-006
                    57  7.450627885851467E-005
                    58 -1.352490850684891E-012
                    59  2.064854841670265E-012
                    60 -8.672624678276748E-006
                    61  4.208593005309769E-004
                    62  7.121418802740405E-003
                    63 -2.048493927014985E-003
                    64 -2.628658204429781E-004
                    65  2.938184976639854E-003
                    66  7.736931304248519E-005
                    67  8.695305529129517E-006
                    68  2.397230620691953E-012
                    69  5.713183613240198E-004
                    70  6.222165328991643E-005
                    71 -2.520859697436622E-012
                    72 -2.083589404869691E-003
                    73  1.354892657257849E-004
                    74  6.554954825199935E-012
                    75  3.383516790237420E-005
                    76 -1.082048142075624E-012
                    77 -4.219798575551455E-014
                    78 -3.702307526861536E-006
                    79  1.190152697960030E-005
                    80 -3.900977542636423E-004
                    81  2.781157378263513E-012
                    82  4.916020460027828E-012
                    83 -6.418316525325896E-004
                    84 -3.796904172649526E-004
                    85  2.672255263648959E-012
                    86  3.615373059330399E-005
                    87 -5.595839421060927E-005
                    88  1.865793331537004E-012
                    89 -8.083912182237480E-013
                    90  5.452354424219671E-005
                    91  1.371054114424907E-004
                    92  7.243342880800900E-003
                    93 -2.066594354937039E-003
                    94 -2.765517839531642E-004
                    95  3.018144822169051E-003
                    96 -6.021504550547494E-005
                    97  8.234358682461822E-006
                    98  3.010384299717709E-012
                    99 -6.322215435965424E-004
                   100  4.711563984515916E-005
                   101 -4.655383532514424E-012
                   102  2.031595076635465E-003
                   103  1.173920387486217E-004
                   104 -2.366771141126459E-011
                   105  3.233792130298445E-005
                   106  1.461189169107490E-012
                   107 -2.889657793725610E-012
                   108 -1.564703713818117E-006
                   109 -1.087055154810048E-005
                   110 -3.958385999709919E-004
                   111  5.086889367877705E-012
                   112 -5.680918685564850E-012
                   113 -6.134703804030726E-004
                   114  3.810798985807348E-004
                   115 -3.139187520112086E-012
                   116 -3.476625655377365E-005
                   117 -5.777896885255746E-005
                   118  1.026476973219926E-012
                   119 -9.419210967687606E-013
                   120 -4.671518290443174E-005
                   121  1.361419414780108E-004
                   122 -2.344845390491731E-004
                   123 -7.407420443582046E-004
                   124  2.259857755115868E-004
                   125 -1.146843242254758E-004
                   126 -1.262625809897350E-005
                   127 -2.755735577150983E-004
                   128 -5.493717252432299E-012
                   129 -2.829181287809572E-005
                   130  5.411117466213493E-004
                   131  3.295834864419558E-012
                   132  3.382456197540589E-004
                   133  7.628256112495954E-004
                   134 -2.012632724404919E-011
                   135  1.920301649422517E-005
                   136  1.040090499524291E-012
                   137  2.205251976377311E-012
                   138  4.550483391480100E-006
                   139  5.018932281323193E-005
                   140  1.320400845871002E-004
                   141 -6.813943888482881E-012
                   142 -6.029014026026467E-013
                   143  2.572267477738934E-004
                   144 -2.000617901136197E-004
                   145 -3.259125330302578E-012
                   146  5.802278725294718E-006
                   147 -3.153721866191612E-005
                   148  2.929350079359038E-012
                   149  5.903852312780533E-013
                   150 -4.173314770789630E-005
                   151  2.660187560227678E-005
                   152 -2.262955566696088E-004
                   153 -7.398462787670617E-004
                   154  2.276935492047721E-004
                   155 -1.082532407759949E-004
                   156  1.059072289365221E-005
                   157 -2.760870935872145E-004
                   158 -8.996854989414431E-012
                   159  2.908924372298929E-005
                   160  5.385157193198456E-004