[Molden Format]
[Atoms] AU
  N     1    7    -0.0116146100   -4.3067228600    0.0000000000        
  C     2    6     0.0124260400   -1.7885843000    0.0000000000        
  C     3    6    -2.3286309100   -0.4161091700    0.0000000000        
  C     4    6     2.3465385500   -0.4027029300    0.0000000000        
  C     5    6    -2.2960709400    2.1605427400    0.0000000000        
  C     6    6     2.2983993000    2.1738313900    0.0000000000        
  C     7    6    -0.0030276500    3.4821658100    0.0000000000        
  H     8    1    -1.9668348900   -5.4553947300    0.0000000000        
  H     9    1     1.6247384300   -5.3594358900    0.0000000000        
  H    10    1    -4.0607267700   -1.4543414400    0.0000000000        
  H    11    1     4.0890804700   -1.4253457800    0.0000000000        
  H    12    1    -4.0438953700    3.1857432800    0.0000000000        
  H    13    1     4.0382553400    3.2115589600    0.0000000000        
  H    14    1    -0.0082587600    5.5088883200    0.0000000000        
[5D]
[7F]
[GTO]
  1  0
   s    12 1.00
  0.114200D+05  0.172695D-04
  0.171200D+04  0.134411D-03
  0.389300D+03  0.694561D-03
  0.110000D+03  0.278531D-02
  0.355700D+02  0.863457D-02
  0.125400D+02  0.199805D-01
  0.464400D+01  0.262908D-01
  0.129300D+01 -0.243845D-01
  0.511800D+00 -0.924934D-01
  0.178700D+00 -0.339683D+00
  0.246240D-01  0.345111D+00
  0.112530D-01  0.752750D+00
   s    10 1.00
  0.114200D+05  0.523000D-03
  0.171200D+04  0.404500D-02
  0.389300D+03  0.207750D-01
  0.110000D+03  0.807269D-01
  0.355700D+02  0.233074D+00
  0.125400D+02  0.433501D+00
  0.464400D+01  0.347472D+00
  0.129300D+01  0.412620D-01
  0.511800D+00 -0.850799D-02
  0.178700D+00  0.238400D-02
   s    10 1.00
  0.114200D+05 -0.115000D-03
  0.171200D+04 -0.895000D-03
  0.389300D+03 -0.462400D-02
  0.110000D+03 -0.185280D-01
  0.355700D+02 -0.573390D-01
  0.125400D+02 -0.132076D+00
  0.464400D+01 -0.172510D+00
  0.129300D+01  0.151814D+00
  0.511800D+00  0.599944D+00
  0.178700D+00  0.387462D+00
   s     1 1.00
  0.129300D+01  0.100000D+01
   s     1 1.00
  0.178700D+00  0.100000D+01
   p     5 1.00
  0.266300D+02  0.146700D-01
  0.594800D+01  0.917640D-01
  0.174200D+01  0.298683D+00
  0.555000D+00  0.498487D+00
  0.172500D+00  0.337023D+00
   p     1 1.00
  0.174200D+01  0.100000D+01
   p     1 1.00
  0.555000D+00  0.100000D+01
   d     1 1.00
  0.165400D+01  0.100000D+01
   d     1 1.00
  0.469000D+00  0.100000D+01
   f     1 1.00
  0.109300D+01  0.100000D+01
  
  2  0
   s    10 1.00
  0.823600D+04  0.531000D-03
  0.123500D+04  0.410800D-02
  0.280800D+03  0.210870D-01
  0.792700D+02  0.818530D-01
  0.255900D+02  0.234817D+00
  0.899700D+01  0.434401D+00
  0.331900D+01  0.346129D+00
  0.905900D+00  0.393780D-01
  0.364300D+00 -0.898300D-02
  0.128500D+00  0.238500D-02
   s    10 1.00
  0.823600D+04 -0.113000D-03
  0.123500D+04 -0.878000D-03
  0.280800D+03 -0.454000D-02
  0.792700D+02 -0.181330D-01
  0.255900D+02 -0.557600D-01
  0.899700D+01 -0.126895D+00
  0.331900D+01 -0.170352D+00
  0.905900D+00  0.140382D+00
  0.364300D+00  0.598684D+00
  0.128500D+00  0.395389D+00
   s     1 1.00
  0.905900D+00  0.100000D+01
   s     1 1.00
  0.364300D+00  0.100000D+01
   p     5 1.00
  0.187100D+02  0.140310D-01
  0.413300D+01  0.868660D-01
  0.120000D+01  0.290216D+00
  0.382700D+00  0.501008D+00
  0.120900D+00  0.343406D+00
   p     1 1.00
  0.382700D+00  0.100000D+01
   p     1 1.00
  0.120900D+00  0.100000D+01
   d     1 1.00
  0.109700D+01  0.100000D+01
   d     1 1.00
  0.318000D+00  0.100000D+01
   f     1 1.00
  0.761000D+00  0.100000D+01
  
  3  0
   s    10 1.00
  0.823600D+04  0.531000D-03
  0.123500D+04  0.410800D-02
  0.280800D+03  0.210870D-01
  0.792700D+02  0.818530D-01
  0.255900D+02  0.234817D+00
  0.899700D+01  0.434401D+00
  0.331900D+01  0.346129D+00
  0.905900D+00  0.393780D-01
  0.364300D+00 -0.898300D-02
  0.128500D+00  0.238500D-02
   s    10 1.00
  0.823600D+04 -0.113000D-03
  0.123500D+04 -0.878000D-03
  0.280800D+03 -0.454000D-02
  0.792700D+02 -0.181330D-01
  0.255900D+02 -0.557600D-01
  0.899700D+01 -0.126895D+00
  0.331900D+01 -0.170352D+00
  0.905900D+00  0.140382D+00
  0.364300D+00  0.598684D+00
  0.128500D+00  0.395389D+00
   s     1 1.00
  0.905900D+00  0.100000D+01
   s     1 1.00
  0.364300D+00  0.100000D+01
   p     5 1.00
  0.187100D+02  0.140310D-01
  0.413300D+01  0.868660D-01
  0.120000D+01  0.290216D+00
  0.382700D+00  0.501008D+00
  0.120900D+00  0.343406D+00
   p     1 1.00
  0.382700D+00  0.100000D+01
   p     1 1.00
  0.120900D+00  0.100000D+01
   d     1 1.00
  0.109700D+01  0.100000D+01
   d     1 1.00
  0.318000D+00  0.100000D+01
   f     1 1.00
  0.761000D+00  0.100000D+01
  
  4  0
   s    10 1.00
  0.823600D+04  0.531000D-03
  0.123500D+04  0.410800D-02
  0.280800D+03  0.210870D-01
  0.792700D+02  0.818530D-01
  0.255900D+02  0.234817D+00
  0.899700D+01  0.434401D+00
  0.331900D+01  0.346129D+00
  0.905900D+00  0.393780D-01
  0.364300D+00 -0.898300D-02
  0.128500D+00  0.238500D-02
   s    10 1.00
  0.823600D+04 -0.113000D-03
  0.123500D+04 -0.878000D-03
  0.280800D+03 -0.454000D-02
  0.792700D+02 -0.181330D-01
  0.255900D+02 -0.557600D-01
  0.899700D+01 -0.126895D+00
  0.331900D+01 -0.170352D+00
  0.905900D+00  0.140382D+00
  0.364300D+00  0.598684D+00
  0.128500D+00  0.395389D+00
   s     1 1.00
  0.905900D+00  0.100000D+01
   s     1 1.00
  0.364300D+00  0.100000D+01
   p     5 1.00
  0.187100D+02  0.140310D-01
  0.413300D+01  0.868660D-01
  0.120000D+01  0.290216D+00
  0.382700D+00  0.501008D+00
  0.120900D+00  0.343406D+00
   p     1 1.00
  0.382700D+00  0.100000D+01
   p     1 1.00
  0.120900D+00  0.100000D+01
   d     1 1.00
  0.109700D+01  0.100000D+01
   d     1 1.00
  0.318000D+00  0.100000D+01
   f     1 1.00
  0.761000D+00  0.100000D+01
  
  5  0
   s    10 1.00
  0.823600D+04  0.531000D-03
  0.123500D+04  0.410800D-02
  0.280800D+03  0.210870D-01
  0.792700D+02  0.818530D-01
  0.255900D+02  0.234817D+00
  0.899700D+01  0.434401D+00
  0.331900D+01  0.346129D+00
  0.905900D+00  0.393780D-01
  0.364300D+00 -0.898300D-02
  0.128500D+00  0.238500D-02
   s    10 1.00
  0.823600D+04 -0.113000D-03
  0.123500D+04 -0.878000D-03
  0.280800D+03 -0.454000D-02
  0.792700D+02 -0.181330D-01
  0.255900D+02 -0.557600D-01
  0.899700D+01 -0.126895D+00
  0.331900D+01 -0.170352D+00
  0.905900D+00  0.140382D+00
  0.364300D+00  0.598684D+00
  0.128500D+00  0.395389D+00
   s     1 1.00
  0.905900D+00  0.100000D+01
   s     1 1.00
  0.364300D+00  0.100000D+01
   p     5 1.00
  0.187100D+02  0.140310D-01
  0.413300D+01  0.868660D-01
  0.120000D+01  0.290216D+00
  0.382700D+00  0.501008D+00
  0.120900D+00  0.343406D+00
   p     1 1.00
  0.382700D+00  0.100000D+01
   p     1 1.00
  0.120900D+00  0.100000D+01
   d     1 1.00
  0.109700D+01  0.100000D+01
   d     1 1.00
  0.318000D+00  0.100000D+01
   f     1 1.00
  0.761000D+00  0.100000D+01
  
  6  0
   s    10 1.00
  0.823600D+04  0.531000D-03
  0.123500D+04  0.410800D-02
  0.280800D+03  0.210870D-01
  0.792700D+02  0.818530D-01
  0.255900D+02  0.234817D+00
  0.899700D+01  0.434401D+00
  0.331900D+01  0.346129D+00
  0.905900D+00  0.393780D-01
  0.364300D+00 -0.898300D-02
  0.128500D+00  0.238500D-02
   s    10 1.00
  0.823600D+04 -0.113000D-03
  0.123500D+04 -0.878000D-03
  0.280800D+03 -0.454000D-02
  0.792700D+02 -0.181330D-01
  0.255900D+02 -0.557600D-01
  0.899700D+01 -0.126895D+00
  0.331900D+01 -0.170352D+00
  0.905900D+00  0.140382D+00
  0.364300D+00  0.598684D+00
  0.128500D+00  0.395389D+00
   s     1 1.00
  0.905900D+00  0.100000D+01
   s     1 1.00
  0.364300D+00  0.100000D+01
   p     5 1.00
  0.187100D+02  0.140310D-01
  0.413300D+01  0.868660D-01
  0.120000D+01  0.290216D+00
  0.382700D+00  0.501008D+00
  0.120900D+00  0.343406D+00
   p     1 1.00
  0.382700D+00  0.100000D+01
   p     1 1.00
  0.120900D+00  0.100000D+01
   d     1 1.00
  0.109700D+01  0.100000D+01
   d     1 1.00
  0.318000D+00  0.100000D+01
   f     1 1.00
  0.761000D+00  0.100000D+01
  
  7  0
   s    10 1.00
  0.823600D+04  0.531000D-03
  0.123500D+04  0.410800D-02
  0.280800D+03  0.210870D-01
  0.792700D+02  0.818530D-01
  0.255900D+02  0.234817D+00
  0.899700D+01  0.434401D+00
  0.331900D+01  0.346129D+00
  0.905900D+00  0.393780D-01
  0.364300D+00 -0.898300D-02
  0.128500D+00  0.238500D-02
   s    10 1.00
  0.823600D+04 -0.113000D-03
  0.123500D+04 -0.878000D-03
  0.280800D+03 -0.454000D-02
  0.792700D+02 -0.181330D-01
  0.255900D+02 -0.557600D-01
  0.899700D+01 -0.126895D+00
  0.331900D+01 -0.170352D+00
  0.905900D+00  0.140382D+00
  0.364300D+00  0.598684D+00
  0.128500D+00  0.395389D+00
   s     1 1.00
  0.905900D+00  0.100000D+01
   s     1 1.00
  0.364300D+00  0.100000D+01
   p     5 1.00
  0.187100D+02  0.140310D-01
  0.413300D+01  0.868660D-01
  0.120000D+01  0.290216D+00
  0.382700D+00  0.501008D+00
  0.120900D+00  0.343406D+00
   p     1 1.00
  0.382700D+00  0.100000D+01
   p     1 1.00
  0.120900D+00  0.100000D+01
   d     1 1.00
  0.109700D+01  0.100000D+01
   d     1 1.00
  0.318000D+00  0.100000D+01
   f     1 1.00
  0.761000D+00  0.100000D+01
  
  8  0
   s     4 1.00
  0.130100D+02  0.196850D-01
  0.196200D+01  0.137977D+00
  0.444600D+00  0.478148D+00
  0.122000D+00  0.501240D+00
   s     1 1.00
  0.122000D+00  0.100000D+01
   p     1 1.00
  0.727000D+00  0.100000D+01
  
  9  0
   s     4 1.00
  0.130100D+02  0.196850D-01
  0.196200D+01  0.137977D+00
  0.444600D+00  0.478148D+00
  0.122000D+00  0.501240D+00
   s     1 1.00
  0.122000D+00  0.100000D+01
   p     1 1.00
  0.727000D+00  0.100000D+01
  
 10  0
   s     4 1.00
  0.130100D+02  0.196850D-01
  0.196200D+01  0.137977D+00
  0.444600D+00  0.478148D+00
  0.122000D+00  0.501240D+00
   s     1 1.00
  0.122000D+00  0.100000D+01
   p     1 1.00
  0.727000D+00  0.100000D+01
  
 11  0
   s     4 1.00
  0.130100D+02  0.196850D-01
  0.196200D+01  0.137977D+00
  0.444600D+00  0.478148D+00
  0.122000D+00  0.501240D+00
   s     1 1.00
  0.122000D+00  0.100000D+01
   p     1 1.00
  0.727000D+00  0.100000D+01
  
 12  0
   s     4 1.00
  0.130100D+02  0.196850D-01
  0.196200D+01  0.137977D+00
  0.444600D+00  0.478148D+00
  0.122000D+00  0.501240D+00
   s     1 1.00
  0.122000D+00  0.100000D+01
   p     1 1.00
  0.727000D+00  0.100000D+01
  
 13  0
   s     4 1.00
  0.130100D+02  0.196850D-01
  0.196200D+01  0.137977D+00
  0.444600D+00  0.478148D+00
  0.122000D+00  0.501240D+00
   s     1 1.00
  0.122000D+00  0.100000D+01
   p     1 1.00
  0.727000D+00  0.100000D+01
  
 14  0
   s     4 1.00
  0.130100D+02  0.196850D-01
  0.196200D+01  0.137977D+00
  0.444600D+00  0.478148D+00
  0.122000D+00  0.501240D+00
   s     1 1.00
  0.122000D+00  0.100000D+01
   p     1 1.00
  0.727000D+00  0.100000D+01
  
[MO]
 Sym= __1_A__
 Ene=  0.000000000000000E+000
 Spin= Alpha
 Occup=    2.00000000000000     
                     1  1.163285273340515E-005
                     2  0.998311347131593     
                     3  7.318163728551300E-003
                     4  1.831429405420875E-003
                     5  2.111772331515487E-003
                     6  5.146454397381975E-004
                     7  4.733374672412830E-003
                     8  2.205060643996575E-012
                     9  1.062555258467305E-004
                    10 -9.783966301180036E-005
                    11 -1.330783035623549E-012
                    12 -1.234457974528180E-004
                    13 -3.770035164649765E-004
                    14 -5.955544863460814E-012
                    15 -1.715915322843649E-004
                    16  2.542078970177534E-013
                    17 -9.800059008700371E-013
                    18 -2.059352095468884E-004
                    19 -6.696860111127430E-005
                    20  3.974397680253720E-004
                    21  2.769149541306076E-013
                    22  3.194258559471270E-012
                    23 -3.544548141268844E-004
                    24  7.812712485707617E-005
                    25  3.211972639501570E-012
                    26 -2.183998645784411E-005
                    27 -5.285648651687448E-005
                    28  2.873367775213876E-013
                    29  6.906702584933923E-013
                    30  9.043076396480702E-006
                    31 -1.452182803185680E-004
                    32 -3.394561507811257E-004
                    33  2.503989413302841E-003
                    34  1.334298888939325E-004
                    35 -2.079269020276171E-004
                    36 -5.204423011413783E-005
                    37 -6.501677003795361E-003
                    38 -1.281753264499926E-011
                    39 -1.880259578191029E-005
                    40  2.240668219098136E-004
                    41  2.207641102161866E-012
                    42 -1.388271408216852E-004
                    43  4.587016412430901E-003
                    44 -9.156146403267751E-013
                    45 -5.346378303171467E-005
                    46  7.065421679528784E-013
                    47 -5.643729892090859E-013
                    48 -3.471338703410784E-004
                    49 -1.193427578868189E-005
                    50 -4.031804952626766E-004
                    51 -2.942067956354164E-012
                    52  3.319387997431072E-012
                    53  5.436098339914396E-005
                    54  6.012379432598696E-005
                    55  4.987906943019799E-013
                    56  1.584933832750586E-006
                    57 -6.195054689729960E-006
                    58  2.073417610637520E-012
                    59 -1.246225389486939E-012
                    60  1.227526378868552E-005
                    61 -1.137903230408995E-004
                    62 -2.114039805491427E-004
                    63 -1.525503103425451E-003
                    64  4.248673176492073E-005
                    65  6.434438211145940E-004
                    66 -7.580638537070992E-004
                    67  8.392384123973651E-004
                    68 -1.043961599026134E-011
                    69 -1.357545696209467E-006
                    70  5.988300783891790E-004
                    71  3.263425048127423E-012
                    72 -8.013991877874584E-004
                    73 -4.708417881889219E-005
                    74 -2.080157460239601E-012
                    75 -1.364601280073353E-005
                    76 -1.628121764064851E-012
                    77  4.499169806488492E-013
                    78 -8.843444609162736E-005
                    79 -6.711070232068915E-006
                    80 -1.233146201385951E-005
                    81 -2.642645130579672E-012
                    82  1.419085771951783E-012
                    83  5.962275375068930E-006
                    84  1.567221646821067E-004
                    85  5.958555688851544E-013
                    86  2.064479454595440E-005
                    87 -4.386819517677535E-005
                    88  2.916723820288160E-013
                    89 -6.973180497545442E-013
                    90 -3.027677690752989E-005
                    91 -8.715420262153294E-005
                    92 -2.310150395689421E-004
                    93 -1.685544702318340E-003
                    94  6.423037757339230E-005
                    95  5.855762350806532E-004
                    96  8.084832497409914E-004
                    97  9.548043859913428E-004
                    98  2.115468105712977E-012
                    99  3.731096948299385E-005
                   100  5.507171154517037E-004
                   101 -3.438445446305159E-012
                   102  5.804355698824627E-004
                   103 -3.565538555571527E-004
                   104  3.773240410340455E-012
                   105 -1.018778028417562E-005
                   106  1.758323656428090E-012
                   107  1.070503786039857E-012
                   108 -9.745615108977141E-005
                   109  3.973837035256644E-006
                   110 -1.781486411552948E-005
                   111 -2.197018463677943E-012
                   112  3.537103865235748E-014
                   113  1.149820858069126E-006
                   114 -1.356063195824995E-004
                   115  1.693557462501256E-014
                   116 -1.840691520241069E-005
                   117 -3.793578283462281E-005
                   118  2.329102117657866E-012
                   119 -9.584875467903836E-013
                   120  1.342986715512882E-005
                   121 -8.341496015652205E-005
                   122 -1.536132538077858E-004
                   123 -7.773732053638786E-005
                   124  1.084011680695181E-004
                   125  1.571728875460854E-004
                   126  3.109941962667292E-005
                   127 -7.030648454384263E-004
                   128  6.357505429224091E-012
                   129  5.793881500104084E-005
                   130  3.674765121808725E-004
                   131 -6.149064377049253E-012
                   132 -7.284433762289500E-005
                   133  8.550228267596098E-004
                   134  3.091647750540143E-012
                   135  9.491935909686789E-006
                   136  3.215713262544636E-013
                   137  1.561681440269498E-012
                   138  1.665367566514948E-005
                   139  1.944983459158416E-007
                   140  1.069684306590320E-004
                   141  3.320274106785031E-013
                   142 -2.515548301337377E-012
                   143  1.742745818448643E-004
                   144  1.613016764519021E-004
                   145 -1.706445070777763E-012
                   146 -5.378981837896623E-006
                   147 -3.361431986943439E-005
                   148  8.340066917071124E-013
                   149 -1.701074081318331E-012
                   150  3.088651852008122E-006
                   151 -2.439384746000380E-005
                   152 -1.548597896366433E-004
                   153 -5.087118507453446E-005
                   154  1.051782516342434E-004
                   155  1.695062230734870E-004
                   156 -3.278471580634140E-005
                   157 -7.353351954129440E-004
                   158 -2.589305573594131E-012
                   159 -4.377425122250667E-005
                   160  3.179379410870146E-004
                   161 -3.671026184906283E-014
                   162  2.812952357613397E-004
                   163  6.127110973299038E-004
                   164 -3.819500855265817E-012
                   165  6.838850679430796E-006
                   166 -2.429891125544876E-012
                   167 -1.939951654117235E-012
                   168  1.441506848398932E-005
                   169 -1.805130475757533E-006
                   170  1.151968025455484E-004
                   171  3.025523045538107E-012
                   172  2.897074852258250E-012
                   173  1.420049498905483E-004
                   174 -1.471512405411098E-004
                   175 -3.222576525262653E-012
                   176  3.525133828829476E-006
                   177 -3.049586855156774E-005
                   178  6.349606060206704E-013
                   179 -1.617634184896518E-012
                   180 -1.127652750230178E-007
                   181 -2.520094498033495E-005
                   182 -1.202996740914999E-004
                   183 -3.227035881898854E-004
                   184  3.665759674633911E-005
                   185  1.402492413296810E-004
                   186 -4.181648128924305E-006
                   187 -4.325998023755117E-005
                   188 -4.026975982454932E-012
                   189  2.729688427073496E-005
                   190  2.813380412912559E-005
                   191  2.249506581342097E-012
                   192  1.523816237303850E-004
                   193 -2.580031613265692E-006
                   194 -8.189150683923681E-013
                   195 -1.550740997164818E-006
                   196  3.227439986514184E-013
                   197 -6.377668324777328E-013
                   198 -1.966748049631404E-005
                   199 -7.916636434486372E-007
                   200  1.865018320069592E-005
                   201 -3.585044308982080E-013
                   202 -7.158326427471096E-013
                   203 -7.850368932366751E-005
                   204 -1.763486839436166E-005
                   205 -1.609667856827914E-013
                   206 -1.283720591456319E-006
                   207 -5.420981958115195E-006
                   208 -2.879207364967616E-013
                   209 -1.748302123240797E-012
                   210 -7.605620106790006E-007
                   211 -7.490483682991607E-006
                   212  1.718501526478870E-003
                   213 -1.161779432764311E-003
                   214  3.961861997619103E-004
                   215  3.009015941370656E-004
                   216 -1.125379263753331E-012
                   217  3.450860736705498E-003
                   218 -2.139223704430588E-003
                   219 -4.250825232593447E-004
                   220  3.631639737252467E-004
                   221 -6.745504808977197E-013
                   222 -5.433102612651775E-004
                   223 -2.907676048271774E-004
                   224 -1.390901436345618E-005
                   225 -3.969549938391653E-005
                   226 -1.089576580455114E-012
                   227 -5.784528867321150E-004
                   228 -1.931923979798953E-004
                   229  1.138444427800851E-005
                   230 -4.105714829720716E-005
                   231 -7.829437745309348E-014
                   232 -2.010156831151204E-004
                   233 -4.060164356283728E-004
                   234 -4.612463972640555E-006
                   235  4.544821653868050E-006
                   236 -8.186301191249185E-013
                   237 -2.071714727891726E-004
                   238 -4.370834578477784E-004
                   239  3.369086166672557E-006
                   240  1.032088544671959E-006
                   241  1.151672540059150E-012
                   242  5.972246923920102E-005
                   243 -1.044337214794784E-004
                   244  6.741771812086091E-008
                   245  1.474846492226967E-005
                   246  2.743083863959447E-013
 Sym= __2_A__
 Ene=  0.000000000000000E+000
 Spin= Alpha
 Occup=    2.00000000000000     
                     1 -5.162295688473595E-005
                     2 -2.296592927886948E-004
                     3  2.508306956860721E-003
                     4  1.116336323528113E-004
                     5  1.248107522089733E-003
                     6 -8.816954476070637E-005
                     7  3.049224819691104E-003
                     8 -7.493302117791612E-014
                     9 -4.023918590256650E-006
                    10 -6.947213707445681E-005
                    11  5.664133141636716E-012
                    12  3.214202648035307E-005
                    13 -4.922551057776759E-004
                    14  3.551421711676509E-014
                    15  3.464494650774482E-005
                    16 -8.357041266020854E-013
                    17  8.669740769934712E-013
                    18 -7.033873375675456E-005
                    19 -2.080599264039797E-006
                    20 -1.388175105247127E-004
                    21  1.610728102370372E-012
                    22 -4.988362315214586E-012
                    23  3.302042860820680E-004
                    24 -5.943410366034445E-006
                    25 -2.027797745231882E-012
                    26 -3.275861310473075E-006
                    27  1.096660544320599E-004
                    28  3.058074215100874E-012
                    29 -1.044467087996262E-014
                    30 -1.831317026169897E-005
                    31  1.466886803475671E-004
                    32   1.00106479081676     
                    33  9.284592337873435E-003
                    34  2.603506038321282E-003
                    35 -7.766842780937664E-003
                    36 -7.261792174862547E-006
                    37 -4.174778395300020E-003
                    38  3.332122052034692E-012
                    39 -4.086446536181383E-005
                    40  1.007832627661395E-003
                    41  1.256151854218876E-012
                    42 -1.422303155814520E-006
                    43  4.402902960009000E-003
                    44  1.224945633849815E-011
                    45 -5.995585912102745E-004
                    46 -9.003491117870915E-013
                    47 -1.188077536816410E-012
                    48 -2.028318432544432E-004
                    49  7.785892308614865E-006
                    50  5.121065196180416E-004
                    51  2.101590762817734E-012
                    52 -6.070757831851966E-012
                    53 -8.675911788789753E-004
                    54 -4.957866864195850E-005
                    55  1.226316400185716E-012
                    56  3.008507592798896E-006
                    57  7.450627851722909E-005
                    58 -1.352490858572754E-012
                    59  2.064854839675489E-012
                    60 -8.672624587533877E-006
                    61  4.208593031005856E-004
                    62  7.121421048236647E-003
                    63 -2.048493814973715E-003
                    64 -2.628658135467083E-004
                    65  2.938184953553127E-003
                    66  7.736926423214950E-005
                    67  8.695008267856820E-006
                    68  2.397230537898597E-012
                    69  5.713183697812895E-004
                    70  6.222168602146495E-005
                    71 -2.520859638954378E-012
                    72 -2.083589421558037E-003
                    73  1.354893297780961E-004
                    74  6.554954884344893E-012
                    75  3.383516571376699E-005
                    76 -1.082048125286795E-012
                    77 -4.219799834122349E-014
                    78 -3.702299198528992E-006
                    79  1.190152725227330E-005
                    80 -3.900977528151809E-004
                    81  2.781157364067314E-012
                    82  4.916020525830401E-012
                    83 -6.418316568563690E-004
                    84 -3.796904316251141E-004
                    85  2.672255265151899E-012
                    86  3.615373066403453E-005
                    87 -5.595839220539907E-005
                    88  1.865793319646539E-012
                    89 -8.083912247929380E-013
                    90  5.452354457503079E-005
                    91  1.371054100481176E-004
                    92  7.243344931869467E-003
                    93 -2.066594273963017E-003
                    94 -2.765517772166390E-004
                    95  3.018144802451827E-003
                    96 -6.021499061782790E-005
                    97  8.234074562970913E-006
                    98  3.010384313970209E-012
                    99 -6.322215516562583E-004
                   100  4.711567057249223E-005
                   101 -4.655383500094202E-012
                   102  2.031595091806781E-003
                   103  1.173921005017245E-004
                   104 -2.366771146490748E-011
                   105  3.233791967701036E-005
                   106  1.461189148782150E-012
                   107 -2.889657793431240E-012
                   108 -1.564695559128786E-006
                   109 -1.087055186663595E-005
                   110 -3.958385981701160E-004
                   111  5.086889391777918E-012
                   112 -5.680918697922045E-012
                   113 -6.134703839796488E-004
                   114  3.810799112192348E-004
                   115 -3.139187530867924E-012
                   116 -3.476625677051548E-005
                   117 -5.777896691858195E-005
                   118  1.026476981852957E-012
                   119 -9.419210935773577E-013
                   120 -4.671518321753169E-005
                   121  1.361419405661887E-004
                   122 -2.344844259134876E-004
                   123 -7.407421418405388E-004
                   124  2.259857786550377E-004
                   125 -1.146843207293153E-004
                   126 -1.262629135737881E-005
                   127 -2.755733519590653E-004
                   128 -5.493717308702037E-012
                   129 -2.829180313088167E-005
                   130  5.411117373495249E-004
                   131  3.295834787452829E-012
                   132  3.382456318625630E-004
                   133  7.628255957586117E-004
                   134 -2.012632726618602E-011
                   135  1.920301864591358E-005
                   136  1.040090504706876E-012
                   137  2.205251976141983E-012
                   138  4.550489742163462E-006
                   139  5.018932255470936E-005
                   140  1.320400870162822E-004
                   141 -6.813943915276337E-012
                   142 -6.029013279065466E-013
                   143  2.572267568377664E-004
                   144 -2.000617895244469E-004
                   145 -3.259125339275351E-012
                   146  5.802278846867219E-006
                   147 -3.153722041424750E-005
                   148  2.929350074559210E-012
                   149  5.903852186833301E-013
                   150 -4.173314756850630E-005
                   151  2.660187316726615E-005
                   152 -2.262954238809653E-004
                   153 -7.398463737573998E-004
                   154  2.276935522296059E-004
                   155 -1.082532367178221E-004
                   156  1.059075699377109E-005
                   157 -2.760868848468995E-004
                   158 -8.996854964684272E-012
                   159  2.908923458461710E-005
                   160  5.385157087497528E-004