[Molden Format]
[Atoms] AU
  N     1    7    -0.0116146100   -4.3067228600    0.0000000000        
  C     2    6     0.0124260400   -1.7885843000    0.0000000000        
  C     3    6    -2.3286309100   -0.4161091700    0.0000000000        
  C     4    6     2.3465385500   -0.4027029300    0.0000000000        
  C     5    6    -2.2960709400    2.1605427400    0.0000000000        
  C     6    6     2.2983993000    2.1738313900    0.0000000000        
  C     7    6    -0.0030276500    3.4821658100    0.0000000000        
  H     8    1    -1.9668348900   -5.4553947300    0.0000000000        
  H     9    1     1.6247384300   -5.3594358900    0.0000000000        
  H    10    1    -4.0607267700   -1.4543414400    0.0000000000        
  H    11    1     4.0890804700   -1.4253457800    0.0000000000        
  H    12    1    -4.0438953700    3.1857432800    0.0000000000        
  H    13    1     4.0382553400    3.2115589600    0.0000000000        
  H    14    1    -0.0082587600    5.5088883200    0.0000000000        
[5D]
[7F]
[GTO]
  1  0
   s    12 1.00
  0.114200D+05  0.172695D-04
  0.171200D+04  0.134411D-03
  0.389300D+03  0.694561D-03
  0.110000D+03  0.278531D-02
  0.355700D+02  0.863457D-02
  0.125400D+02  0.199805D-01
  0.464400D+01  0.262908D-01
  0.129300D+01 -0.243845D-01
  0.511800D+00 -0.924934D-01
  0.178700D+00 -0.339683D+00
  0.246240D-01  0.345111D+00
  0.112530D-01  0.752750D+00
   s    10 1.00
  0.114200D+05  0.523000D-03
  0.171200D+04  0.404500D-02
  0.389300D+03  0.207750D-01
  0.110000D+03  0.807269D-01
  0.355700D+02  0.233074D+00
  0.125400D+02  0.433501D+00
  0.464400D+01  0.347472D+00
  0.129300D+01  0.412620D-01
  0.511800D+00 -0.850799D-02
  0.178700D+00  0.238400D-02
   s    10 1.00
  0.114200D+05 -0.115000D-03
  0.171200D+04 -0.895000D-03
  0.389300D+03 -0.462400D-02
  0.110000D+03 -0.185280D-01
  0.355700D+02 -0.573390D-01
  0.125400D+02 -0.132076D+00
  0.464400D+01 -0.172510D+00
  0.129300D+01  0.151814D+00
  0.511800D+00  0.599944D+00
  0.178700D+00  0.387462D+00
   s     1 1.00
  0.129300D+01  0.100000D+01
   s     1 1.00
  0.178700D+00  0.100000D+01
   p     5 1.00
  0.266300D+02  0.146700D-01
  0.594800D+01  0.917640D-01
  0.174200D+01  0.298683D+00
  0.555000D+00  0.498487D+00
  0.172500D+00  0.337023D+00
   p     1 1.00
  0.174200D+01  0.100000D+01
   p     1 1.00
  0.555000D+00  0.100000D+01
   d     1 1.00
  0.165400D+01  0.100000D+01
   d     1 1.00
  0.469000D+00  0.100000D+01
   f     1 1.00
  0.109300D+01  0.100000D+01
  
  2  0
   s    10 1.00
  0.823600D+04  0.531000D-03
  0.123500D+04  0.410800D-02
  0.280800D+03  0.210870D-01
  0.792700D+02  0.818530D-01
  0.255900D+02  0.234817D+00
  0.899700D+01  0.434401D+00
  0.331900D+01  0.346129D+00
  0.905900D+00  0.393780D-01
  0.364300D+00 -0.898300D-02
  0.128500D+00  0.238500D-02
   s    10 1.00
  0.823600D+04 -0.113000D-03
  0.123500D+04 -0.878000D-03
  0.280800D+03 -0.454000D-02
  0.792700D+02 -0.181330D-01
  0.255900D+02 -0.557600D-01
  0.899700D+01 -0.126895D+00
  0.331900D+01 -0.170352D+00
  0.905900D+00  0.140382D+00
  0.364300D+00  0.598684D+00
  0.128500D+00  0.395389D+00
   s     1 1.00
  0.905900D+00  0.100000D+01
   s     1 1.00
  0.364300D+00  0.100000D+01
   p     5 1.00
  0.187100D+02  0.140310D-01
  0.413300D+01  0.868660D-01
  0.120000D+01  0.290216D+00
  0.382700D+00  0.501008D+00
  0.120900D+00  0.343406D+00
   p     1 1.00
  0.382700D+00  0.100000D+01
   p     1 1.00
  0.120900D+00  0.100000D+01
   d     1 1.00
  0.109700D+01  0.100000D+01
   d     1 1.00
  0.318000D+00  0.100000D+01
   f     1 1.00
  0.761000D+00  0.100000D+01
  
  3  0
   s    10 1.00
  0.823600D+04  0.531000D-03
  0.123500D+04  0.410800D-02
  0.280800D+03  0.210870D-01
  0.792700D+02  0.818530D-01
  0.255900D+02  0.234817D+00
  0.899700D+01  0.434401D+00
  0.331900D+01  0.346129D+00
  0.905900D+00  0.393780D-01
  0.364300D+00 -0.898300D-02
  0.128500D+00  0.238500D-02
   s    10 1.00
  0.823600D+04 -0.113000D-03
  0.123500D+04 -0.878000D-03
  0.280800D+03 -0.454000D-02
  0.792700D+02 -0.181330D-01
  0.255900D+02 -0.557600D-01
  0.899700D+01 -0.126895D+00
  0.331900D+01 -0.170352D+00
  0.905900D+00  0.140382D+00
  0.364300D+00  0.598684D+00
  0.128500D+00  0.395389D+00
   s     1 1.00
  0.905900D+00  0.100000D+01
   s     1 1.00
  0.364300D+00  0.100000D+01
   p     5 1.00
  0.187100D+02  0.140310D-01
  0.413300D+01  0.868660D-01
  0.120000D+01  0.290216D+00
  0.382700D+00  0.501008D+00
  0.120900D+00  0.343406D+00
   p     1 1.00
  0.382700D+00  0.100000D+01
   p     1 1.00
  0.120900D+00  0.100000D+01
   d     1 1.00
  0.109700D+01  0.100000D+01
   d     1 1.00
  0.318000D+00  0.100000D+01
   f     1 1.00
  0.761000D+00  0.100000D+01
  
  4  0
   s    10 1.00
  0.823600D+04  0.531000D-03
  0.123500D+04  0.410800D-02
  0.280800D+03  0.210870D-01
  0.792700D+02  0.818530D-01
  0.255900D+02  0.234817D+00
  0.899700D+01  0.434401D+00
  0.331900D+01  0.346129D+00
  0.905900D+00  0.393780D-01
  0.364300D+00 -0.898300D-02
  0.128500D+00  0.238500D-02
   s    10 1.00
  0.823600D+04 -0.113000D-03
  0.123500D+04 -0.878000D-03
  0.280800D+03 -0.454000D-02
  0.792700D+02 -0.181330D-01
  0.255900D+02 -0.557600D-01
  0.899700D+01 -0.126895D+00
  0.331900D+01 -0.170352D+00
  0.905900D+00  0.140382D+00
  0.364300D+00  0.598684D+00
  0.128500D+00  0.395389D+00
   s     1 1.00
  0.905900D+00  0.100000D+01
   s     1 1.00
  0.364300D+00  0.100000D+01
   p     5 1.00
  0.187100D+02  0.140310D-01
  0.413300D+01  0.868660D-01
  0.120000D+01  0.290216D+00
  0.382700D+00  0.501008D+00
  0.120900D+00  0.343406D+00
   p     1 1.00
  0.382700D+00  0.100000D+01
   p     1 1.00
  0.120900D+00  0.100000D+01
   d     1 1.00
  0.109700D+01  0.100000D+01
   d     1 1.00
  0.318000D+00  0.100000D+01
   f     1 1.00
  0.761000D+00  0.100000D+01
  
  5  0
   s    10 1.00
  0.823600D+04  0.531000D-03
  0.123500D+04  0.410800D-02
  0.280800D+03  0.210870D-01
  0.792700D+02  0.818530D-01
  0.255900D+02  0.234817D+00
  0.899700D+01  0.434401D+00
  0.331900D+01  0.346129D+00
  0.905900D+00  0.393780D-01
  0.364300D+00 -0.898300D-02
  0.128500D+00  0.238500D-02
   s    10 1.00
  0.823600D+04 -0.113000D-03
  0.123500D+04 -0.878000D-03
  0.280800D+03 -0.454000D-02
  0.792700D+02 -0.181330D-01
  0.255900D+02 -0.557600D-01
  0.899700D+01 -0.126895D+00
  0.331900D+01 -0.170352D+00
  0.905900D+00  0.140382D+00
  0.364300D+00  0.598684D+00
  0.128500D+00  0.395389D+00
   s     1 1.00
  0.905900D+00  0.100000D+01
   s     1 1.00
  0.364300D+00  0.100000D+01
   p     5 1.00
  0.187100D+02  0.140310D-01
  0.413300D+01  0.868660D-01
  0.120000D+01  0.290216D+00
  0.382700D+00  0.501008D+00
  0.120900D+00  0.343406D+00
   p     1 1.00
  0.382700D+00  0.100000D+01
   p     1 1.00
  0.120900D+00  0.100000D+01
   d     1 1.00
  0.109700D+01  0.100000D+01
   d     1 1.00
  0.318000D+00  0.100000D+01
   f     1 1.00
  0.761000D+00  0.100000D+01
  
  6  0
   s    10 1.00
  0.823600D+04  0.531000D-03
  0.123500D+04  0.410800D-02
  0.280800D+03  0.210870D-01
  0.792700D+02  0.818530D-01
  0.255900D+02  0.234817D+00
  0.899700D+01  0.434401D+00
  0.331900D+01  0.346129D+00
  0.905900D+00  0.393780D-01
  0.364300D+00 -0.898300D-02
  0.128500D+00  0.238500D-02
   s    10 1.00
  0.823600D+04 -0.113000D-03
  0.123500D+04 -0.878000D-03
  0.280800D+03 -0.454000D-02
  0.792700D+02 -0.181330D-01
  0.255900D+02 -0.557600D-01
  0.899700D+01 -0.126895D+00
  0.331900D+01 -0.170352D+00
  0.905900D+00  0.140382D+00
  0.364300D+00  0.598684D+00
  0.128500D+00  0.395389D+00
   s     1 1.00
  0.905900D+00  0.100000D+01
   s     1 1.00
  0.364300D+00  0.100000D+01
   p     5 1.00
  0.187100D+02  0.140310D-01
  0.413300D+01  0.868660D-01
  0.120000D+01  0.290216D+00
  0.382700D+00  0.501008D+00
  0.120900D+00  0.343406D+00
   p     1 1.00
  0.382700D+00  0.100000D+01
   p     1 1.00
  0.120900D+00  0.100000D+01
   d     1 1.00
  0.109700D+01  0.100000D+01
   d     1 1.00
  0.318000D+00  0.100000D+01
   f     1 1.00
  0.761000D+00  0.100000D+01
  
  7  0
   s    10 1.00
  0.823600D+04  0.531000D-03
  0.123500D+04  0.410800D-02
  0.280800D+03  0.210870D-01
  0.792700D+02  0.818530D-01
  0.255900D+02  0.234817D+00
  0.899700D+01  0.434401D+00
  0.331900D+01  0.346129D+00
  0.905900D+00  0.393780D-01
  0.364300D+00 -0.898300D-02
  0.128500D+00  0.238500D-02
   s    10 1.00
  0.823600D+04 -0.113000D-03
  0.123500D+04 -0.878000D-03
  0.280800D+03 -0.454000D-02
  0.792700D+02 -0.181330D-01
  0.255900D+02 -0.557600D-01
  0.899700D+01 -0.126895D+00
  0.331900D+01 -0.170352D+00
  0.905900D+00  0.140382D+00
  0.364300D+00  0.598684D+00
  0.128500D+00  0.395389D+00
   s     1 1.00
  0.905900D+00  0.100000D+01
   s     1 1.00
  0.364300D+00  0.100000D+01
   p     5 1.00
  0.187100D+02  0.140310D-01
  0.413300D+01  0.868660D-01
  0.120000D+01  0.290216D+00
  0.382700D+00  0.501008D+00
  0.120900D+00  0.343406D+00
   p     1 1.00
  0.382700D+00  0.100000D+01
   p     1 1.00
  0.120900D+00  0.100000D+01
   d     1 1.00
  0.109700D+01  0.100000D+01
   d     1 1.00
  0.318000D+00  0.100000D+01
   f     1 1.00
  0.761000D+00  0.100000D+01
  
  8  0
   s     4 1.00
  0.130100D+02  0.196850D-01
  0.196200D+01  0.137977D+00
  0.444600D+00  0.478148D+00
  0.122000D+00  0.501240D+00
   s     1 1.00
  0.122000D+00  0.100000D+01
   p     1 1.00
  0.727000D+00  0.100000D+01
  
  9  0
   s     4 1.00
  0.130100D+02  0.196850D-01
  0.196200D+01  0.137977D+00
  0.444600D+00  0.478148D+00
  0.122000D+00  0.501240D+00
   s     1 1.00
  0.122000D+00  0.100000D+01
   p     1 1.00
  0.727000D+00  0.100000D+01
  
 10  0
   s     4 1.00
  0.130100D+02  0.196850D-01
  0.196200D+01  0.137977D+00
  0.444600D+00  0.478148D+00
  0.122000D+00  0.501240D+00
   s     1 1.00
  0.122000D+00  0.100000D+01
   p     1 1.00
  0.727000D+00  0.100000D+01
  
 11  0
   s     4 1.00
  0.130100D+02  0.196850D-01
  0.196200D+01  0.137977D+00
  0.444600D+00  0.478148D+00
  0.122000D+00  0.501240D+00
   s     1 1.00
  0.122000D+00  0.100000D+01
   p     1 1.00
  0.727000D+00  0.100000D+01
  
 12  0
   s     4 1.00
  0.130100D+02  0.196850D-01
  0.196200D+01  0.137977D+00
  0.444600D+00  0.478148D+00
  0.122000D+00  0.501240D+00
   s     1 1.00
  0.122000D+00  0.100000D+01
   p     1 1.00
  0.727000D+00  0.100000D+01
  
 13  0
   s     4 1.00
  0.130100D+02  0.196850D-01
  0.196200D+01  0.137977D+00
  0.444600D+00  0.478148D+00
  0.122000D+00  0.501240D+00
   s     1 1.00
  0.122000D+00  0.100000D+01
   p     1 1.00
  0.727000D+00  0.100000D+01
  
 14  0
   s     4 1.00
  0.130100D+02  0.196850D-01
  0.196200D+01  0.137977D+00
  0.444600D+00  0.478148D+00
  0.122000D+00  0.501240D+00
   s     1 1.00
  0.122000D+00  0.100000D+01
   p     1 1.00
  0.727000D+00  0.100000D+01
  
[MO]
 Sym= __1_a__
 Ene=  0.000000000000000E+000
 Spin= Alpha
 Occup=    2.00000000000000     
                     1  1.163285275902020E-005
                     2  0.998311347128465     
                     3  7.318163784137670E-003
                     4  1.831429403604100E-003
                     5  2.111772265945710E-003
                     6  5.146454439622240E-004
                     7  4.733374690968640E-003
                     8  2.205061058078580E-012
                     9  1.062555259344620E-004
                    10 -9.783965540765580E-005
                    11 -1.330783063791170E-012
                    12 -1.234457984728000E-004
                    13 -3.770035141305610E-004
                    14 -5.955544847563480E-012
                    15 -1.715915334964186E-004
                    16  2.542078850537420E-013
                    17 -9.800058828227491E-013
                    18 -2.059352103282700E-004
                    19 -6.696859986495391E-005
                    20  3.974397709126886E-004
                    21  2.769149443503210E-013
                    22  3.194258560061310E-012
                    23 -3.544548257017020E-004
                    24  7.812713126046650E-005
                    25  3.211972642529505E-012
                    26 -2.183998656634148E-005
                    27 -5.285648769397866E-005
                    28  2.873367670866380E-013
                    29  6.906702585858690E-013
                    30  9.043077153007593E-006
                    31 -1.452182795628499E-004
                    32 -3.394565179038920E-004
                    33  2.503990461907420E-003
                    34  1.334298718461710E-004
                    35 -2.079268980996150E-004
                    36 -5.204407539923780E-005
                    37 -6.501676519171680E-003
                    38 -1.281753227514770E-011
                    39 -1.880260667735620E-005
                    40  2.240668027739250E-004
                    41  2.207641031303270E-012
                    42 -1.388271928003300E-004
                    43  4.587016358877180E-003
                    44 -9.156148060660550E-013
                    45 -5.346380069637914E-005
                    46  7.065421870097640E-013
                    47 -5.643730034060960E-013
                    48 -3.471338633078820E-004
                    49 -1.193427223039460E-005
                    50 -4.031805247914737E-004
                    51 -2.942067929191010E-012
                    52  3.319388028776130E-012
                    53  5.436100350239820E-005
                    54  6.012380240933090E-005
                    55  4.987906874214951E-013
                    56  1.584932357271477E-006
                    57 -6.195058890916579E-006
                    58  2.073417602798080E-012
                    59 -1.246225356821070E-012
                    60  1.227526318262782E-005
                    61 -1.137903035471200E-004
                    62 -2.114039920824420E-004
                    63 -1.525503047269800E-003
                    64  4.248673117657750E-005
                    65  6.434438452398400E-004
                    66 -7.580632220565140E-004
                    67  8.392385109170170E-004
                    68 -1.043961589471560E-011
                    69 -1.357605674517170E-006
                    70  5.988300877949720E-004
                    71  3.263424884359390E-012
                    72 -8.013994039753560E-004
                    73 -4.708413843085320E-005
                    74 -2.080157247613030E-012
                    75 -1.364601682506340E-005
                    76 -1.628121750252380E-012
                    77  4.499169767479310E-013
                    78 -8.843444201309560E-005
                    79 -6.711086882190270E-006
                    80 -1.233147587842054E-005
                    81 -2.642645056683660E-012
                    82  1.419085773577500E-012
                    83  5.962292394164080E-006
                    84  1.567221831023150E-004
                    85  5.958555664627558E-013
                    86  2.064479067202753E-005
                    87 -4.386819616866783E-005
                    88  2.916723688695960E-013
                    89 -6.973180708980820E-013
                    90 -3.027677939300172E-005
                    91 -8.715420820779675E-005
                    92 -2.310150519761970E-004
                    93 -1.685544458856360E-003
                    94  6.423037384566070E-005
                    95  5.855762471313820E-004
                    96  8.084825403167830E-004
                    97  9.548042919216430E-004
                    98  2.115467996773040E-012
                    99  3.731102944836190E-005
                   100  5.507171442842080E-004
                   101 -3.438445451700160E-012
                   102  5.804357916726910E-004
                   103 -3.565537873509370E-004
                   104  3.773240469618900E-012
                   105 -1.018778729183585E-005
                   106  1.758323663024990E-012
                   107  1.070503764603350E-012
                   108 -9.745614315705360E-005
                   109  3.973857318911270E-006
                   110 -1.781488109805044E-005
                   111 -2.197018408301310E-012
                   112  3.537099405833440E-014
                   113  1.149832762979898E-006
                   114 -1.356063236866640E-004
                   115  1.693556537561305E-014
                   116 -1.840690987116851E-005
                   117 -3.793578236006929E-005
                   118  2.329102133244140E-012
                   119 -9.584875420707241E-013
                   120  1.342986900643758E-005
                   121 -8.341496828812652E-005
                   122 -1.536132683886800E-004
                   123 -7.773737254651101E-005
                   124  1.084011720665410E-004
                   125  1.571729220629400E-004
                   126  3.109945279160220E-005
                   127 -7.030649665615490E-004
                   128  6.357505198178640E-012
                   129  5.793881045844600E-005
                   130  3.674765307070890E-004
                   131 -6.149064367615890E-012
                   132 -7.284436600862840E-005
                   133  8.550229324628111E-004
                   134  3.091647692481670E-012
                   135  9.491935084674056E-006
                   136  3.215713375245490E-013
                   137  1.561681424624880E-012
                   138  1.665367150800830E-005
                   139  1.944891671013990E-007
                   140  1.069684319259663E-004
                   141  3.320273358850200E-013
                   142 -2.515548301604270E-012
                   143  1.742745809228020E-004
                   144  1.613016716771530E-004
                   145 -1.706445075868084E-012
                   146 -5.378982516097423E-006
                   147 -3.361432020917715E-005
                   148  8.340067019774680E-013
                   149 -1.701074081379450E-012
                   150  3.088656025445855E-006
                   151 -2.439384646009338E-005
                   152 -1.548598038873710E-004
                   153 -5.087129698183080E-005
                   154  1.051782579259480E-004
                   155  1.695062519033260E-004
                   156 -3.278474339518640E-005
                   157 -7.353352524329020E-004
                   158 -2.589305855923690E-012
                   159 -4.377425050962430E-005
                   160  3.179379601895420E-004
                   161 -3.671011923129760E-014
                   162  2.812952701195580E-004
                   163  6.127111899209710E-004
                   164 -3.819500892131990E-012
                   165  6.838850972796164E-006
                   166 -2.429891092207540E-012
                   167 -1.939951647289200E-012
                   168  1.441506622462160E-005
                   169 -1.805120155310200E-006
                   170  1.151968054274846E-004
                   171  3.025522983796230E-012
                   172  2.897074773035790E-012
                   173  1.420049518250508E-004
                   174 -1.471512299943180E-004
                   175 -3.222576510849495E-012
                   176  3.525134483926070E-006
                   177 -3.049586926447658E-005
                   178  6.349606080714220E-013
                   179 -1.617634202387650E-012
                   180 -1.127700566556109E-007
                   181 -2.520094546802382E-005
                   182 -1.202996914294450E-004
                   183 -3.227037452835350E-004
                   184  3.665760094663200E-005
                   185  1.402492792226530E-004
                   186 -4.181648777578340E-006
                   187 -4.325992175764120E-005
                   188 -4.026976170565980E-012
                   189  2.729688599400180E-005
                   190  2.813379267802850E-005
                   191  2.249506513650430E-012
                   192  1.523816279069500E-004
                   193 -2.580008953259640E-006
                   194 -8.189150784451540E-013
                   195 -1.550740727930776E-006
                   196  3.227439995534690E-013
                   197 -6.377668488715660E-013
                   198 -1.966748553856664E-005
                   199 -7.916632794211500E-007
                   200  1.865018353423097E-005
                   201 -3.585044439568710E-013
                   202 -7.158325931170570E-013
                   203 -7.850370632514520E-005
                   204 -1.763486730753750E-005
                   205 -1.609667920250124E-013
                   206 -1.283720646646161E-006
                   207 -5.420981523963958E-006
                   208 -2.879207335441620E-013
                   209 -1.748302118220320E-012
                   210 -7.605623235187389E-007
                   211 -7.490482562382372E-006
                   212  1.718501542679130E-003
                   213 -1.161779413117050E-003
                   214  3.961862025900370E-004
                   215  3.009015943933400E-004
                   216 -1.125379307615620E-012
                   217  3.450860741012120E-003
                   218 -2.139223692616940E-003
                   219 -4.250825263487090E-004
                   220  3.631639749993810E-004
                   221 -6.745504864229220E-013
                   222 -5.433107795808460E-004
                   223 -2.907674894670720E-004
                   224 -1.390903987990520E-005
                   225 -3.969551677259790E-005
                   226 -1.089576517183230E-012
                   227 -5.784533062918820E-004
                   228 -1.931923308888570E-004
                   229  1.138446168206790E-005
                   230 -4.105716377467450E-005
                   231 -7.829443957072340E-014
                   232 -2.010157184709160E-004
                   233 -4.060164650721590E-004
                   234 -4.612468703991410E-006
                   235  4.544824473724960E-006
                   236 -8.186301559026150E-013
                   237 -2.071714919244730E-004
                   238 -4.370834849428040E-004
                   239  3.369089906209770E-006
                   240  1.032091919643610E-006
                   241  1.151672601144440E-012
                   242  5.972250084887050E-005
                   243 -1.044337573417430E-004
                   244  6.741772655776079E-008
                   245  1.474846550935590E-005
                   246  2.743083715137770E-013
 Sym= __2_a__
 Ene=  0.000000000000000E+000
 Spin= Alpha
 Occup=    2.00000000000000     
                     1 -5.162295807307950E-005
                     2 -2.296589540346750E-004
                     3  2.508306949037070E-003
                     4  1.116336337382090E-004
                     5  1.248107538787190E-003
                     6 -8.816954576261451E-005
                     7  3.049224820192630E-003
                     8 -7.493313124504579E-014
                     9 -4.023918672317980E-006
                    10 -6.947213758662050E-005
                    11  5.664133157789410E-012
                    12  3.214202639371670E-005
                    13 -4.922551033147801E-004
                    14  3.551421574584360E-014
                    15  3.464494712486680E-005
                    16 -8.357041239962940E-013
                    17  8.669740798859140E-013
                    18 -7.033873358438260E-005
                    19 -2.080599126148260E-006
                    20 -1.388175080871290E-004
                    21  1.610728118757010E-012
                    22 -4.988362312792680E-012
                    23  3.302042887636960E-004
                    24 -5.943409580855960E-006
                    25 -2.027797738035401E-012
                    26 -3.275861261759137E-006
                    27  1.096660550961760E-004
                    28  3.058074213773400E-012
                    29 -1.044467785679050E-014
                    30 -1.831317020447564E-005
                    31  1.466886809285514E-004
                    32   1.00106479085650     
                    33  9.284592118397481E-003
                    34  2.603506041332740E-003
                    35 -7.766842767955860E-003
                    36 -7.261778244660750E-006
                    37 -4.174778448640400E-003
                    38  3.332121998488500E-012
                    39 -4.086446678925910E-005
                    40  1.007832622956090E-003
                    41  1.256151805213860E-012
                    42 -1.422307881613860E-006
                    43  4.402902937709440E-003
                    44  1.224945637789360E-011
                    45 -5.995585886019432E-004
                    46 -9.003491130882630E-013
                    47 -1.188077533046250E-012
                    48 -2.028318523442740E-004
                    49  7.785892684005709E-006
                    50  5.121065302765718E-004
                    51  2.101590736266020E-012
                    52 -6.070757855419190E-012
                    53 -8.675911814686320E-004
                    54 -4.957866757934770E-005
                    55  1.226316410845840E-012
                    56  3.008507467258523E-006
                    57  7.450627885851449E-005
                    58 -1.352490850684890E-012
                    59  2.064854841670270E-012
                    60 -8.672624678276752E-006
                    61  4.208593005309772E-004
                    62  7.121418802740410E-003
                    63 -2.048493927014980E-003
                    64 -2.628658204429780E-004
                    65  2.938184976639850E-003
                    66  7.736931304248520E-005
                    67  8.695305529129520E-006
                    68  2.397230620691950E-012
                    69  5.713183613240200E-004
                    70  6.222165328991640E-005
                    71 -2.520859697436620E-012
                    72 -2.083589404869690E-003
                    73  1.354892657257850E-004
                    74  6.554954825199940E-012
                    75  3.383516790237421E-005
                    76 -1.082048142075620E-012
                    77 -4.219798575551460E-014
                    78 -3.702307526861540E-006
                    79  1.190152697960030E-005
                    80 -3.900977542636416E-004
                    81  2.781157378263510E-012
                    82  4.916020460027830E-012
                    83 -6.418316525325900E-004
                    84 -3.796904172649530E-004
                    85  2.672255263648952E-012
                    86  3.615373059330402E-005
                    87 -5.595839421060931E-005
                    88  1.865793331537004E-012
                    89 -8.083912182237480E-013
                    90  5.452354424219670E-005
                    91  1.371054114424907E-004
                    92  7.243342880800900E-003
                    93 -2.066594354937040E-003
                    94 -2.765517839531640E-004
                    95  3.018144822169050E-003
                    96 -6.021504550547490E-005
                    97  8.234358682461820E-006
                    98  3.010384299717710E-012
                    99 -6.322215435965430E-004
                   100  4.711563984515920E-005
                   101 -4.655383532514430E-012
                   102  2.031595076635470E-003
                   103  1.173920387486220E-004
                   104 -2.366771141126460E-011
                   105  3.233792130298447E-005
                   106  1.461189169107490E-012
                   107 -2.889657793725610E-012
                   108 -1.564703713818116E-006
                   109 -1.087055154810050E-005
                   110 -3.958385999709905E-004
                   111  5.086889367877710E-012
                   112 -5.680918685564850E-012
                   113 -6.134703804030720E-004
                   114  3.810798985807350E-004
                   115 -3.139187520112093E-012
                   116 -3.476625655377367E-005
                   117 -5.777896885255750E-005
                   118  1.026476973219926E-012
                   119 -9.419210967687610E-013
                   120 -4.671518290443174E-005
                   121  1.361419414780108E-004
                   122 -2.344845390491730E-004
                   123 -7.407420443582050E-004
                   124  2.259857755115870E-004
                   125 -1.146843242254760E-004
                   126 -1.262625809897350E-005
                   127 -2.755735577150980E-004
                   128 -5.493717252432300E-012
                   129 -2.829181287809570E-005
                   130  5.411117466213490E-004
                   131  3.295834864419560E-012
                   132  3.382456197540590E-004
                   133  7.628256112495950E-004
                   134 -2.012632724404920E-011
                   135  1.920301649422519E-005
                   136  1.040090499524290E-012
                   137  2.205251976377310E-012
                   138  4.550483391480100E-006
                   139  5.018932281323190E-005
                   140  1.320400845871001E-004
                   141 -6.813943888482880E-012
                   142 -6.029014026026470E-013
                   143  2.572267477738940E-004
                   144 -2.000617901136200E-004
                   145 -3.259125330302570E-012
                   146  5.802278725294721E-006
                   147 -3.153721866191609E-005
                   148  2.929350079359040E-012
                   149  5.903852312780540E-013
                   150 -4.173314770789627E-005
                   151  2.660187560227677E-005
                   152 -2.262955566696090E-004
                   153 -7.398462787670620E-004
                   154  2.276935492047720E-004
                   155 -1.082532407759950E-004
                   156  1.059072289365220E-005
                   157 -2.760870935872140E-004
                   158 -8.996854989414431E-012
                   159  2.908924372298930E-005
                   160  5.385157193198460E-004