[Molden Format]
[Atoms] AU
  N     1    7    -0.0042980800    0.0002478700   -4.3373505500        
  C     2    6    -0.0027206200   -0.0016013700   -1.7574402600        
  C     3    6     0.0866409900   -2.3289806800   -0.4151046800        
  C     4    6    -0.0904386100    2.3238511500   -0.4116613400        
  C     5    6     0.1395052000   -2.2977138300    2.1723826400        
  C     6    6    -0.1401386700    2.2888749500    2.1758412200        
  C     7    6     0.0004787200   -0.0053519600    3.4750953600        
  H     8    1    -1.2234122700   -1.1388249400   -5.3467301400        
  H     9    1     1.2135818500    1.1407676100   -5.3465862400        
  H    10    1     0.1874338700   -4.0565433700   -1.4568733500        
  H    11    1    -0.1925038400    4.0529054200   -1.4508283200        
  H    12    1     0.2828724200   -4.0348955800    3.2029433500        
  H    13    1    -0.2822440000    4.0245774200    3.2090657800        
  H    14    1     0.0017186400   -0.0068055600    5.5030283700        
[5D]
[7F]
[GTO]
  1  0
   s    12 1.00
  0.114200D+05  0.172695D-04
  0.171200D+04  0.134411D-03
  0.389300D+03  0.694561D-03
  0.110000D+03  0.278531D-02
  0.355700D+02  0.863457D-02
  0.125400D+02  0.199805D-01
  0.464400D+01  0.262908D-01
  0.129300D+01 -0.243845D-01
  0.511800D+00 -0.924934D-01
  0.178700D+00 -0.339683D+00
  0.246240D-01  0.345111D+00
  0.112530D-01  0.752750D+00
   s    10 1.00
  0.114200D+05  0.523000D-03
  0.171200D+04  0.404500D-02
  0.389300D+03  0.207750D-01
  0.110000D+03  0.807269D-01
  0.355700D+02  0.233074D+00
  0.125400D+02  0.433501D+00
  0.464400D+01  0.347472D+00
  0.129300D+01  0.412620D-01
  0.511800D+00 -0.850799D-02
  0.178700D+00  0.238400D-02
   s    10 1.00
  0.114200D+05 -0.115000D-03
  0.171200D+04 -0.895000D-03
  0.389300D+03 -0.462400D-02
  0.110000D+03 -0.185280D-01
  0.355700D+02 -0.573390D-01
  0.125400D+02 -0.132076D+00
  0.464400D+01 -0.172510D+00
  0.129300D+01  0.151814D+00
  0.511800D+00  0.599944D+00
  0.178700D+00  0.387462D+00
   s     1 1.00
  0.129300D+01  0.100000D+01
   s     1 1.00
  0.178700D+00  0.100000D+01
   p     5 1.00
  0.266300D+02  0.146700D-01
  0.594800D+01  0.917640D-01
  0.174200D+01  0.298683D+00
  0.555000D+00  0.498487D+00
  0.172500D+00  0.337023D+00
   p     1 1.00
  0.174200D+01  0.100000D+01
   p     1 1.00
  0.555000D+00  0.100000D+01
   d     1 1.00
  0.165400D+01  0.100000D+01
   d     1 1.00
  0.469000D+00  0.100000D+01
   f     1 1.00
  0.109300D+01  0.100000D+01
  
  2  0
   s    10 1.00
  0.823600D+04  0.531000D-03
  0.123500D+04  0.410800D-02
  0.280800D+03  0.210870D-01
  0.792700D+02  0.818530D-01
  0.255900D+02  0.234817D+00
  0.899700D+01  0.434401D+00
  0.331900D+01  0.346129D+00
  0.905900D+00  0.393780D-01
  0.364300D+00 -0.898300D-02
  0.128500D+00  0.238500D-02
   s    10 1.00
  0.823600D+04 -0.113000D-03
  0.123500D+04 -0.878000D-03
  0.280800D+03 -0.454000D-02
  0.792700D+02 -0.181330D-01
  0.255900D+02 -0.557600D-01
  0.899700D+01 -0.126895D+00
  0.331900D+01 -0.170352D+00
  0.905900D+00  0.140382D+00
  0.364300D+00  0.598684D+00
  0.128500D+00  0.395389D+00
   s     1 1.00
  0.905900D+00  0.100000D+01
   s     1 1.00
  0.364300D+00  0.100000D+01
   p     5 1.00
  0.187100D+02  0.140310D-01
  0.413300D+01  0.868660D-01
  0.120000D+01  0.290216D+00
  0.382700D+00  0.501008D+00
  0.120900D+00  0.343406D+00
   p     1 1.00
  0.382700D+00  0.100000D+01
   p     1 1.00
  0.120900D+00  0.100000D+01
   d     1 1.00
  0.109700D+01  0.100000D+01
   d     1 1.00
  0.318000D+00  0.100000D+01
   f     1 1.00
  0.761000D+00  0.100000D+01
  
  3  0
   s    10 1.00
  0.823600D+04  0.531000D-03
  0.123500D+04  0.410800D-02
  0.280800D+03  0.210870D-01
  0.792700D+02  0.818530D-01
  0.255900D+02  0.234817D+00
  0.899700D+01  0.434401D+00
  0.331900D+01  0.346129D+00
  0.905900D+00  0.393780D-01
  0.364300D+00 -0.898300D-02
  0.128500D+00  0.238500D-02
   s    10 1.00
  0.823600D+04 -0.113000D-03
  0.123500D+04 -0.878000D-03
  0.280800D+03 -0.454000D-02
  0.792700D+02 -0.181330D-01
  0.255900D+02 -0.557600D-01
  0.899700D+01 -0.126895D+00
  0.331900D+01 -0.170352D+00
  0.905900D+00  0.140382D+00
  0.364300D+00  0.598684D+00
  0.128500D+00  0.395389D+00
   s     1 1.00
  0.905900D+00  0.100000D+01
   s     1 1.00
  0.364300D+00  0.100000D+01
   p     5 1.00
  0.187100D+02  0.140310D-01
  0.413300D+01  0.868660D-01
  0.120000D+01  0.290216D+00
  0.382700D+00  0.501008D+00
  0.120900D+00  0.343406D+00
   p     1 1.00
  0.382700D+00  0.100000D+01
   p     1 1.00
  0.120900D+00  0.100000D+01
   d     1 1.00
  0.109700D+01  0.100000D+01
   d     1 1.00
  0.318000D+00  0.100000D+01
   f     1 1.00
  0.761000D+00  0.100000D+01
  
  4  0
   s    10 1.00
  0.823600D+04  0.531000D-03
  0.123500D+04  0.410800D-02
  0.280800D+03  0.210870D-01
  0.792700D+02  0.818530D-01
  0.255900D+02  0.234817D+00
  0.899700D+01  0.434401D+00
  0.331900D+01  0.346129D+00
  0.905900D+00  0.393780D-01
  0.364300D+00 -0.898300D-02
  0.128500D+00  0.238500D-02
   s    10 1.00
  0.823600D+04 -0.113000D-03
  0.123500D+04 -0.878000D-03
  0.280800D+03 -0.454000D-02
  0.792700D+02 -0.181330D-01
  0.255900D+02 -0.557600D-01
  0.899700D+01 -0.126895D+00
  0.331900D+01 -0.170352D+00
  0.905900D+00  0.140382D+00
  0.364300D+00  0.598684D+00
  0.128500D+00  0.395389D+00
   s     1 1.00
  0.905900D+00  0.100000D+01
   s     1 1.00
  0.364300D+00  0.100000D+01
   p     5 1.00
  0.187100D+02  0.140310D-01
  0.413300D+01  0.868660D-01
  0.120000D+01  0.290216D+00
  0.382700D+00  0.501008D+00
  0.120900D+00  0.343406D+00
   p     1 1.00
  0.382700D+00  0.100000D+01
   p     1 1.00
  0.120900D+00  0.100000D+01
   d     1 1.00
  0.109700D+01  0.100000D+01
   d     1 1.00
  0.318000D+00  0.100000D+01
   f     1 1.00
  0.761000D+00  0.100000D+01
  
  5  0
   s    10 1.00
  0.823600D+04  0.531000D-03
  0.123500D+04  0.410800D-02
  0.280800D+03  0.210870D-01
  0.792700D+02  0.818530D-01
  0.255900D+02  0.234817D+00
  0.899700D+01  0.434401D+00
  0.331900D+01  0.346129D+00
  0.905900D+00  0.393780D-01
  0.364300D+00 -0.898300D-02
  0.128500D+00  0.238500D-02
   s    10 1.00
  0.823600D+04 -0.113000D-03
  0.123500D+04 -0.878000D-03
  0.280800D+03 -0.454000D-02
  0.792700D+02 -0.181330D-01
  0.255900D+02 -0.557600D-01
  0.899700D+01 -0.126895D+00
  0.331900D+01 -0.170352D+00
  0.905900D+00  0.140382D+00
  0.364300D+00  0.598684D+00
  0.128500D+00  0.395389D+00
   s     1 1.00
  0.905900D+00  0.100000D+01
   s     1 1.00
  0.364300D+00  0.100000D+01
   p     5 1.00
  0.187100D+02  0.140310D-01
  0.413300D+01  0.868660D-01
  0.120000D+01  0.290216D+00
  0.382700D+00  0.501008D+00
  0.120900D+00  0.343406D+00
   p     1 1.00
  0.382700D+00  0.100000D+01
   p     1 1.00
  0.120900D+00  0.100000D+01
   d     1 1.00
  0.109700D+01  0.100000D+01
   d     1 1.00
  0.318000D+00  0.100000D+01
   f     1 1.00
  0.761000D+00  0.100000D+01
  
  6  0
   s    10 1.00
  0.823600D+04  0.531000D-03
  0.123500D+04  0.410800D-02
  0.280800D+03  0.210870D-01
  0.792700D+02  0.818530D-01
  0.255900D+02  0.234817D+00
  0.899700D+01  0.434401D+00
  0.331900D+01  0.346129D+00
  0.905900D+00  0.393780D-01
  0.364300D+00 -0.898300D-02
  0.128500D+00  0.238500D-02
   s    10 1.00
  0.823600D+04 -0.113000D-03
  0.123500D+04 -0.878000D-03
  0.280800D+03 -0.454000D-02
  0.792700D+02 -0.181330D-01
  0.255900D+02 -0.557600D-01
  0.899700D+01 -0.126895D+00
  0.331900D+01 -0.170352D+00
  0.905900D+00  0.140382D+00
  0.364300D+00  0.598684D+00
  0.128500D+00  0.395389D+00
   s     1 1.00
  0.905900D+00  0.100000D+01
   s     1 1.00
  0.364300D+00  0.100000D+01
   p     5 1.00
  0.187100D+02  0.140310D-01
  0.413300D+01  0.868660D-01
  0.120000D+01  0.290216D+00
  0.382700D+00  0.501008D+00
  0.120900D+00  0.343406D+00
   p     1 1.00
  0.382700D+00  0.100000D+01
   p     1 1.00
  0.120900D+00  0.100000D+01
   d     1 1.00
  0.109700D+01  0.100000D+01
   d     1 1.00
  0.318000D+00  0.100000D+01
   f     1 1.00
  0.761000D+00  0.100000D+01
  
  7  0
   s    10 1.00
  0.823600D+04  0.531000D-03
  0.123500D+04  0.410800D-02
  0.280800D+03  0.210870D-01
  0.792700D+02  0.818530D-01
  0.255900D+02  0.234817D+00
  0.899700D+01  0.434401D+00
  0.331900D+01  0.346129D+00
  0.905900D+00  0.393780D-01
  0.364300D+00 -0.898300D-02
  0.128500D+00  0.238500D-02
   s    10 1.00
  0.823600D+04 -0.113000D-03
  0.123500D+04 -0.878000D-03
  0.280800D+03 -0.454000D-02
  0.792700D+02 -0.181330D-01
  0.255900D+02 -0.557600D-01
  0.899700D+01 -0.126895D+00
  0.331900D+01 -0.170352D+00
  0.905900D+00  0.140382D+00
  0.364300D+00  0.598684D+00
  0.128500D+00  0.395389D+00
   s     1 1.00
  0.905900D+00  0.100000D+01
   s     1 1.00
  0.364300D+00  0.100000D+01
   p     5 1.00
  0.187100D+02  0.140310D-01
  0.413300D+01  0.868660D-01
  0.120000D+01  0.290216D+00
  0.382700D+00  0.501008D+00
  0.120900D+00  0.343406D+00
   p     1 1.00
  0.382700D+00  0.100000D+01
   p     1 1.00
  0.120900D+00  0.100000D+01
   d     1 1.00
  0.109700D+01  0.100000D+01
   d     1 1.00
  0.318000D+00  0.100000D+01
   f     1 1.00
  0.761000D+00  0.100000D+01
  
  8  0
   s     4 1.00
  0.130100D+02  0.196850D-01
  0.196200D+01  0.137977D+00
  0.444600D+00  0.478148D+00
  0.122000D+00  0.501240D+00
   s     1 1.00
  0.122000D+00  0.100000D+01
   p     1 1.00
  0.727000D+00  0.100000D+01
  
  9  0
   s     4 1.00
  0.130100D+02  0.196850D-01
  0.196200D+01  0.137977D+00
  0.444600D+00  0.478148D+00
  0.122000D+00  0.501240D+00
   s     1 1.00
  0.122000D+00  0.100000D+01
   p     1 1.00
  0.727000D+00  0.100000D+01
  
 10  0
   s     4 1.00
  0.130100D+02  0.196850D-01
  0.196200D+01  0.137977D+00
  0.444600D+00  0.478148D+00
  0.122000D+00  0.501240D+00
   s     1 1.00
  0.122000D+00  0.100000D+01
   p     1 1.00
  0.727000D+00  0.100000D+01
  
 11  0
   s     4 1.00
  0.130100D+02  0.196850D-01
  0.196200D+01  0.137977D+00
  0.444600D+00  0.478148D+00
  0.122000D+00  0.501240D+00
   s     1 1.00
  0.122000D+00  0.100000D+01
   p     1 1.00
  0.727000D+00  0.100000D+01
  
 12  0
   s     4 1.00
  0.130100D+02  0.196850D-01
  0.196200D+01  0.137977D+00
  0.444600D+00  0.478148D+00
  0.122000D+00  0.501240D+00
   s     1 1.00
  0.122000D+00  0.100000D+01
   p     1 1.00
  0.727000D+00  0.100000D+01
  
 13  0
   s     4 1.00
  0.130100D+02  0.196850D-01
  0.196200D+01  0.137977D+00
  0.444600D+00  0.478148D+00
  0.122000D+00  0.501240D+00
   s     1 1.00
  0.122000D+00  0.100000D+01
   p     1 1.00
  0.727000D+00  0.100000D+01
  
 14  0
   s     4 1.00
  0.130100D+02  0.196850D-01
  0.196200D+01  0.137977D+00
  0.444600D+00  0.478148D+00
  0.122000D+00  0.501240D+00
   s     1 1.00
  0.122000D+00  0.100000D+01
   p     1 1.00
  0.727000D+00  0.100000D+01
  
[MO]
 Sym= __1_a__
 Ene=  0.000000000000000E+000
 Spin= Alpha
 Occup=    2.00000000000000     
                     1  5.439719509922680E-005
                     2  0.997853144927893     
                     3  1.148023631598540E-002
                     4  2.128727234996250E-003
                     5  1.211974388672150E-003
                     6  2.469050956671220E-006
                     7 -2.895780514019920E-006
                     8  4.021787651768940E-003
                     9 -1.452577094504710E-007
                    10  1.750678724444880E-007
                    11 -2.293290271746310E-004
                    12 -2.474110015565800E-007
                    13  2.556516702653440E-007
                    14 -4.006959585772880E-004
                    15  2.041474080810115E-004
                    16  2.989528839337310E-007
                    17 -3.059676031421320E-007
                    18 -1.365442455973694E-005
                    19  1.026002099526510E-004
                    20  1.212221339456356E-004
                    21 -2.497684991114420E-007
                    22  1.423461679001700E-007
                    23 -9.614596993384901E-007
                    24 -5.202500755790600E-004
                    25 -1.897105053366400E-004
                    26  1.809354045441677E-007
                    27 -2.969505717655899E-007
                    28  2.575442302195420E-005
                    29 -6.867199424370190E-005
                    30  4.165965030368153E-008
                    31 -7.464132477843826E-008
                    32 -2.608467752497580E-004
                    33  2.956336639544900E-003
                    34  1.298615160267740E-004
                    35 -5.050295921877560E-004
                    36 -4.353201150493050E-006
                    37  5.117193950677550E-006
                    38 -7.111545987202810E-003
                    39  5.537723217125410E-008
                    40 -1.113696111018510E-007
                    41  7.547951930543349E-005
                    42  2.535011506412280E-006
                    43 -2.932432314449830E-006
                    44  4.159501798955090E-003
                    45  3.774196006770778E-004
                    46  3.214835068690450E-007
                    47 -5.322528934391710E-007
                    48  1.138042303233090E-004
                    49 -1.238551909880780E-005
                    50  4.607774147803899E-004
                    51  6.370085509500080E-007
                    52 -7.226694292355700E-007
                    53 -1.035665312623106E-004
                    54  1.191352210021210E-004
                    55 -7.704594526491965E-005
                    56  3.654885726260423E-008
                    57 -1.758030973610674E-007
                    58  5.394351065021980E-005
                    59 -2.437434386545660E-005
                    60 -1.916323766112305E-008
                    61 -6.956312526280426E-008
                    62 -2.019858362481340E-004
                    63 -1.747843448383180E-003
                    64  1.764563372140100E-005
                    65  7.458898873947130E-004
                    66 -1.695964063705740E-005
                    67 -9.025335123691650E-004
                    68  1.173998639050380E-003
                    69  5.677243770120580E-005
                    70  5.829180530942130E-005
                    71  3.169508920247190E-004
                    72  4.700360410041990E-005
                    73 -6.490801646409560E-004
                    74 -2.457079031568160E-004
                    75  9.332728825942632E-005
                    76  2.706632272216970E-006
                    77 -1.231258322038470E-005
                    78  3.731099832605700E-005
                    79  3.043946319632460E-007
                    80  4.042463691359853E-005
                    81 -2.913822290452720E-005
                    82  7.176213482206320E-005
                    83  7.046640739466080E-006
                    84  3.524449315964660E-005
                    85 -8.120097833476910E-005
                    86  6.312868548248670E-006
                    87 -1.075318727225907E-005
                    88  2.097434102035560E-005
                    89 -6.770434401716560E-006
                    90  2.110665479601137E-006
                    91  2.119674871681851E-005
                    92 -2.019469027666220E-004
                    93 -1.747687513502630E-003
                    94  1.782174927072640E-005
                    95  7.453250031850910E-004
                    96  1.839335839471590E-005
                    97  9.008705008833670E-004
                    98  1.175387162486660E-003
                    99 -5.636789068844330E-005
                   100 -5.889832448858880E-005
                   101  3.162723824715470E-004
                   102 -4.726564724832920E-005
                   103  6.488188185051610E-004
                   104 -2.445400538164070E-004
                   105  9.332888666009513E-005
                   106 -2.553570954985290E-006
                   107  1.204508749534980E-005
                   108  3.732716795302720E-005
                   109  3.226189541808710E-007
                   110  3.971165538659348E-005
                   111  2.928076563144590E-005
                   112 -7.203056778709800E-005
                   113  6.884316636069700E-006
                   114  3.511026614982420E-005
                   115 -8.118382296258939E-005
                   116 -6.122992941436898E-006
                   117  1.043618019618226E-005
                   118  2.094121250528420E-005
                   119 -6.708752457580070E-006
                   120 -2.130666160846927E-006
                   121 -2.124257280891346E-005
                   122 -1.567759568945490E-004
                   123  1.633356874673070E-005
                   124  9.288331654267809E-005
                   125  2.080994110898050E-004
                   126 -5.794895265327120E-005
                   127  5.087763184907670E-005
                   128 -8.545356671850310E-004
                   129 -1.714960024151720E-006
                   130  1.812636961929730E-005
                   131  2.675249152100580E-004
                   132  1.814888758419990E-005
                   133 -6.937801824168550E-005
                   134  6.332835989961390E-004
                   135 -6.676746691862676E-006
                   136  2.264591422110390E-006
                   137  5.228450741083850E-006
                   138 -3.680055277614980E-007
                   139  1.844994258287680E-006
                   140 -1.543579615013654E-004
                   141 -1.632524596581540E-005
                   142  1.247668407057930E-004
                   143  2.637480201407720E-005
                   144 -8.367808881122820E-006
                   145 -2.970253884170309E-005
                   146 -4.605713937205265E-007
                   147 -4.335077428022884E-006
                   148 -8.506359830746181E-006
                   149 -1.676507549074960E-006
                   150 -8.720386538253806E-007
                   151 -2.606831540363897E-006
                   152 -1.572867973375720E-004
                   153  1.452393012000530E-005
                   154  9.235710997214910E-005
                   155  2.113779358140870E-004
                   156  5.689315221961750E-005
                   157 -4.958810247533690E-005
                   158 -8.546459832376960E-004
                   159  2.088606669023510E-006
                   160 -1.891821623665960E-005
                   161  2.671337316932260E-004
                   162 -1.741809016154660E-005
                   163  6.904550633623799E-005
                   164  6.335933864901430E-004
                   165 -6.627305407383418E-006
                   166 -2.277761922856920E-006
                   167 -5.223064045923160E-006
                   168 -4.349133279001960E-007
                   169  1.833751129023260E-006
                   170 -1.545670258085881E-004
                   171  1.596060737049660E-005
                   172 -1.246911866605290E-004
                   173  2.615992968258000E-005
                   174 -8.545891623439500E-006
                   175 -2.962130961076925E-005
                   176  5.658419198492658E-007
                   177  4.260291296886837E-006
                   178 -8.546346984215301E-006
                   179 -1.679127115330340E-006
                   180  8.886631414159686E-007
                   181  2.630158637817394E-006
                   182 -1.337428700646270E-004
                   183 -3.633265624539550E-004
                   184  2.751719619033370E-005
                   185  2.208712149981970E-004
                   186 -3.662667873943040E-008
                   187  1.287393853504330E-007
                   188 -4.478440636550700E-005
                   189  4.260268044253060E-008
                   190 -4.968063897342630E-007
                   191  1.215405450482100E-005
                   192 -3.403712704190760E-009
                   193 -3.888438540764500E-008
                   194 -1.492383804719460E-005
                   195  2.014343772618099E-005
                   196  1.561225484443080E-008
                   197 -5.056837968431870E-009
                   198  8.044574193184761E-006
                   199  1.659304213101170E-006
                   200  4.321202150593660E-005
                   201  1.173682390864380E-008
                   202  1.648651013422370E-007
                   203  2.964196799339040E-005
                   204 -3.521063954558220E-006
                   205 -1.188468158967547E-005
                   206  1.753521193503199E-008
                   207 -3.484656450386787E-008
                   208  3.423616582725520E-006
                   209  2.032362247383300E-006
                   210  1.089610462993732E-009
                   211  2.874758930960503E-008
                   212  5.079542728832500E-003
                   213 -2.879270676444390E-003
                   214  4.242656130641560E-004
                   215  3.743712172574300E-004
                   216  4.078010284653950E-004
                   217  5.079508747510630E-003
                   218 -2.879257673220160E-003
                   219 -4.237639175186640E-004
                   220 -3.749555182171250E-004
                   221  4.077810633344800E-004
                   222 -6.893093771939570E-004
                   223 -1.969443944922250E-004
                   224  3.864907336863890E-006
                   225 -3.343651995027720E-005
                   226 -4.362476584935290E-005
                   227 -6.893809632138620E-004
                   228 -1.965441236513080E-004
                   229 -3.917902478603140E-006
                   230  3.347929130605750E-005
                   231 -4.360069492403250E-005
                   232 -2.663109953956370E-004
                   233 -3.039139051961860E-004
                   234 -2.926312090762600E-006
                   235 -1.209925958430570E-005
                   236  1.652545741104300E-006
                   237 -2.663563384017490E-004
                   238 -3.040805063824260E-004
                   239  2.924052033593580E-006
                   240  1.214655458349310E-005
                   241  1.718517204195820E-006
                   242  9.197656559613660E-005
                   243 -6.536091341358000E-005
                   244  9.910238315589450E-009
                   245 -3.482643263229990E-008
                   246  1.515243350656670E-005
 Sym= __2_a__
 Ene=  0.000000000000000E+000
 Spin= Alpha
 Occup=    2.00000000000000     
                     1 -2.418045554129430E-005
                     2 -1.158260345471700E-004
                     3  2.003721521285770E-003
                     4  6.242882647183621E-005
                     5  1.211106781079090E-003
                     6  1.456496047973880E-006
                     7 -1.713881173794350E-006
                     8  2.393793216450070E-003
                     9 -5.102007483793480E-008
                    10  6.117999531366601E-008
                    11 -8.849537803589120E-005
                    12 -1.108864114240020E-007
                    13  1.394329368710490E-007
                    14 -1.875074923549720E-004
                    15  5.018500746126131E-005
                    16  1.583302476481640E-008
                    17 -6.290652484860349E-008
                    18  2.626299119430540E-005
                    19 -2.910630990978880E-005
                    20 -1.600160629883642E-004
                    21 -4.080234156214080E-009
                    22  1.931290784734530E-007
                    23 -1.072916961694546E-004
                    24  1.366906903575280E-004
                    25  1.951971233972762E-004
                    26 -2.892962876107680E-007
                    27  4.162693516470495E-007
                    28 -3.886234063822120E-005
                    29 -3.128687569943780E-005
                    30  5.650040148396985E-008
                    31  1.125612962438754E-008
                    32   1.00105381616497     
                    33  8.996628818907950E-003
                    34  2.592536359211320E-003
                    35 -7.852092410829020E-003
                    36 -2.136076886284580E-006
                    37  2.497807919414110E-006
                    38 -3.493236321978490E-003
                    39  7.457422504727420E-007
                    40 -8.703398185719720E-007
                    41  1.221029698243000E-003
                    42  2.408830942028080E-006
                    43 -2.886589332493290E-006
                    44  3.929247775505380E-003
                    45  3.516698877398259E-004
                    46  6.274532342743540E-007
                    47 -1.566206294706790E-007
                    48 -4.041072579962880E-004
                    49  1.105774552071130E-005
                    50  4.040600456949398E-004
                    51 -7.340397841691430E-008
                    52 -1.088848666899350E-006
                    53  8.322882585977780E-004
                    54  9.213316601965940E-006
                    55  3.269567045676482E-004
                    56 -3.002703835726312E-007
                    57  7.742417810677680E-007
                    58 -1.849453503653438E-004
                    59  9.867302587423331E-006
                    60  1.300140764041115E-007
                    61  1.715295122946455E-007
                    62  9.969127919153890E-003
                    63 -1.889299663196240E-003
                    64 -2.734658116692960E-004
                    65  2.938963370329240E-003
                    66 -1.022912830262600E-006
                    67  1.913707687580510E-004
                    68 -8.943165983670169E-005
                    69 -3.763651447389030E-005
                    70  5.233967243226150E-004
                    71  8.825445189204630E-005
                    72  9.771799690732930E-005
                    73 -1.911313728943980E-003
                    74  1.159573676610130E-004
                    75 -2.136672480993238E-005
                    76  1.985870548604850E-006
                    77  1.908066578033190E-005
                    78  2.750023744629440E-005
                    79  2.760218022709580E-006
                    80  7.719544277454446E-004
                    81  3.646572242595830E-005
                    82 -4.301478547272480E-004
                    83 -1.779176105116476E-005
                    84 -1.911516135083250E-005
                    85  5.803733237423946E-005
                    86 -1.095812212151847E-006
                    87  3.339628756573531E-005
                    88 -1.150307653544756E-004
                    89 -1.924119331475660E-006
                    90  5.372370956018022E-006
                    91  5.060422607404472E-005
                    92  9.969100608524489E-003
                    93 -1.889381756150950E-003
                    94 -2.735130357242770E-004
                    95  2.939168795369290E-003
                    96  9.140729201145790E-007
                    97 -1.912441030112280E-004
                    98 -8.973411032440260E-005
                    99  3.774085450107640E-005
                   100 -5.235152575380530E-004
                   101  8.760678431600540E-005
                   102 -9.758475770031840E-005
                   103  1.911289819371290E-003
                   104  1.186581290266040E-004
                   105 -2.139551087511182E-005
                   106 -2.061134970923400E-006
                   107 -1.907671204688730E-005
                   108  2.746893734942020E-005
                   109  2.739953767489460E-006
                   110  7.731746881999358E-004
                   111 -3.483911460720640E-005
                   112  4.283269080108560E-004
                   113 -1.719776277380720E-005
                   114 -1.853792632895570E-005
                   115  5.814126928140592E-005
                   116  1.139217734974954E-006
                   117 -3.292578786232489E-005
                   118 -1.151981086099526E-004
                   119 -1.924167800411560E-006
                   120 -5.196210202076023E-006
                   121 -5.040400647542515E-005
                   122 -1.905011427692140E-004
                   123 -7.492996052785590E-004
                   124  2.279272863258160E-004
                   125 -1.680994169129820E-004
                   126 -9.614115814687681E-006
                   127 -3.351589012461970E-005
                   128 -2.125433751121740E-004
                   129  1.922614193136820E-005
                   130  2.273626912219090E-005
                   131  5.595969139783801E-004
                   132 -1.264956819980020E-005
                   133  3.058340708445020E-004
                   134  6.773713654415970E-004
                   135 -2.032915482680409E-005
                   136 -3.823456216705650E-006
                   137  4.877162816416030E-005
                   138  1.519044673902426E-005
                   139  3.650718663935610E-006
                   140 -3.038587559809980E-004
                   141 -1.670889856971680E-006
                   142 -2.424290086717800E-004
                   143 -2.504162611334380E-005
                   144 -1.770467446510450E-005
                   145 -4.933537964534124E-006
                   146  5.307734928222674E-006
                   147 -2.982217868494576E-005
                   148 -3.256810297276460E-005
                   149 -4.630748680862080E-006
                   150  6.038959667507054E-007
                   151 -6.979634919659860E-006
                   152 -1.902077408829070E-004
                   153 -7.483256955779680E-004
                   154  2.280112521476120E-004
                   155 -1.691958946590350E-004
                   156  9.355824031223469E-006
                   157  3.380808938268940E-005
                   158 -2.125111175236280E-004
                   159 -1.854960499597180E-005
                   160 -2.347331439958900E-005