[Molden Format]
[Atoms] AU
  N     1    7    -4.4628772100    0.2302805100   -0.0145248300        
  C     2    6    -1.7593735900   -0.0181692200   -0.0199630500        
  C     3    6    -0.4167645700    0.0147766100   -2.2857302900        
  C     4    6    -0.4362484900   -0.0375958000    2.2539348400        
  C     5    6     2.1921043600    0.0096949500   -2.2578425400        
  C     6    6     2.1801347400   -0.0133110400    2.2546892600        
  C     7    6     3.5057839000    0.0021624100    0.0065544200        
  H     8    1    -5.3481984300   -1.4490147500   -1.8572024700        
  H     9    1    -5.1571865000   -0.6892831000    1.5656011100        
  H    10    1    -1.4201473400    0.0487352500   -4.0463261900        
  H    11    1    -1.4476813500   -0.0704769900    4.0123266700        
  H    12    1     3.2079994200    0.0221273900   -4.0148725600        
  H    13    1     3.1771975800   -0.0253445600    4.0223672300        
  H    14    1     5.5343259400    0.0037291000    0.0123088800        
[5D]
[7F]
[GTO]
  1  0
   s    12 1.00
  0.114200D+05  0.172695D-04
  0.171200D+04  0.134411D-03
  0.389300D+03  0.694561D-03
  0.110000D+03  0.278531D-02
  0.355700D+02  0.863457D-02
  0.125400D+02  0.199805D-01
  0.464400D+01  0.262908D-01
  0.129300D+01 -0.243845D-01
  0.511800D+00 -0.924934D-01
  0.178700D+00 -0.339683D+00
  0.246240D-01  0.345111D+00
  0.112530D-01  0.752750D+00
   s    10 1.00
  0.114200D+05  0.523000D-03
  0.171200D+04  0.404500D-02
  0.389300D+03  0.207750D-01
  0.110000D+03  0.807269D-01
  0.355700D+02  0.233074D+00
  0.125400D+02  0.433501D+00
  0.464400D+01  0.347472D+00
  0.129300D+01  0.412620D-01
  0.511800D+00 -0.850799D-02
  0.178700D+00  0.238400D-02
   s    10 1.00
  0.114200D+05 -0.115000D-03
  0.171200D+04 -0.895000D-03
  0.389300D+03 -0.462400D-02
  0.110000D+03 -0.185280D-01
  0.355700D+02 -0.573390D-01
  0.125400D+02 -0.132076D+00
  0.464400D+01 -0.172510D+00
  0.129300D+01  0.151814D+00
  0.511800D+00  0.599944D+00
  0.178700D+00  0.387462D+00
   s     1 1.00
  0.129300D+01  0.100000D+01
   s     1 1.00
  0.178700D+00  0.100000D+01
   p     5 1.00
  0.266300D+02  0.146700D-01
  0.594800D+01  0.917640D-01
  0.174200D+01  0.298683D+00
  0.555000D+00  0.498487D+00
  0.172500D+00  0.337023D+00
   p     1 1.00
  0.174200D+01  0.100000D+01
   p     1 1.00
  0.555000D+00  0.100000D+01
   d     1 1.00
  0.165400D+01  0.100000D+01
   d     1 1.00
  0.469000D+00  0.100000D+01
   f     1 1.00
  0.109300D+01  0.100000D+01
  
  2  0
   s    10 1.00
  0.823600D+04  0.531000D-03
  0.123500D+04  0.410800D-02
  0.280800D+03  0.210870D-01
  0.792700D+02  0.818530D-01
  0.255900D+02  0.234817D+00
  0.899700D+01  0.434401D+00
  0.331900D+01  0.346129D+00
  0.905900D+00  0.393780D-01
  0.364300D+00 -0.898300D-02
  0.128500D+00  0.238500D-02
   s    10 1.00
  0.823600D+04 -0.113000D-03
  0.123500D+04 -0.878000D-03
  0.280800D+03 -0.454000D-02
  0.792700D+02 -0.181330D-01
  0.255900D+02 -0.557600D-01
  0.899700D+01 -0.126895D+00
  0.331900D+01 -0.170352D+00
  0.905900D+00  0.140382D+00
  0.364300D+00  0.598684D+00
  0.128500D+00  0.395389D+00
   s     1 1.00
  0.905900D+00  0.100000D+01
   s     1 1.00
  0.364300D+00  0.100000D+01
   p     5 1.00
  0.187100D+02  0.140310D-01
  0.413300D+01  0.868660D-01
  0.120000D+01  0.290216D+00
  0.382700D+00  0.501008D+00
  0.120900D+00  0.343406D+00
   p     1 1.00
  0.382700D+00  0.100000D+01
   p     1 1.00
  0.120900D+00  0.100000D+01
   d     1 1.00
  0.109700D+01  0.100000D+01
   d     1 1.00
  0.318000D+00  0.100000D+01
   f     1 1.00
  0.761000D+00  0.100000D+01
  
  3  0
   s    10 1.00
  0.823600D+04  0.531000D-03
  0.123500D+04  0.410800D-02
  0.280800D+03  0.210870D-01
  0.792700D+02  0.818530D-01
  0.255900D+02  0.234817D+00
  0.899700D+01  0.434401D+00
  0.331900D+01  0.346129D+00
  0.905900D+00  0.393780D-01
  0.364300D+00 -0.898300D-02
  0.128500D+00  0.238500D-02
   s    10 1.00
  0.823600D+04 -0.113000D-03
  0.123500D+04 -0.878000D-03
  0.280800D+03 -0.454000D-02
  0.792700D+02 -0.181330D-01
  0.255900D+02 -0.557600D-01
  0.899700D+01 -0.126895D+00
  0.331900D+01 -0.170352D+00
  0.905900D+00  0.140382D+00
  0.364300D+00  0.598684D+00
  0.128500D+00  0.395389D+00
   s     1 1.00
  0.905900D+00  0.100000D+01
   s     1 1.00
  0.364300D+00  0.100000D+01
   p     5 1.00
  0.187100D+02  0.140310D-01
  0.413300D+01  0.868660D-01
  0.120000D+01  0.290216D+00
  0.382700D+00  0.501008D+00
  0.120900D+00  0.343406D+00
   p     1 1.00
  0.382700D+00  0.100000D+01
   p     1 1.00
  0.120900D+00  0.100000D+01
   d     1 1.00
  0.109700D+01  0.100000D+01
   d     1 1.00
  0.318000D+00  0.100000D+01
   f     1 1.00
  0.761000D+00  0.100000D+01
  
  4  0
   s    10 1.00
  0.823600D+04  0.531000D-03
  0.123500D+04  0.410800D-02
  0.280800D+03  0.210870D-01
  0.792700D+02  0.818530D-01
  0.255900D+02  0.234817D+00
  0.899700D+01  0.434401D+00
  0.331900D+01  0.346129D+00
  0.905900D+00  0.393780D-01
  0.364300D+00 -0.898300D-02
  0.128500D+00  0.238500D-02
   s    10 1.00
  0.823600D+04 -0.113000D-03
  0.123500D+04 -0.878000D-03
  0.280800D+03 -0.454000D-02
  0.792700D+02 -0.181330D-01
  0.255900D+02 -0.557600D-01
  0.899700D+01 -0.126895D+00
  0.331900D+01 -0.170352D+00
  0.905900D+00  0.140382D+00
  0.364300D+00  0.598684D+00
  0.128500D+00  0.395389D+00
   s     1 1.00
  0.905900D+00  0.100000D+01
   s     1 1.00
  0.364300D+00  0.100000D+01
   p     5 1.00
  0.187100D+02  0.140310D-01
  0.413300D+01  0.868660D-01
  0.120000D+01  0.290216D+00
  0.382700D+00  0.501008D+00
  0.120900D+00  0.343406D+00
   p     1 1.00
  0.382700D+00  0.100000D+01
   p     1 1.00
  0.120900D+00  0.100000D+01
   d     1 1.00
  0.109700D+01  0.100000D+01
   d     1 1.00
  0.318000D+00  0.100000D+01
   f     1 1.00
  0.761000D+00  0.100000D+01
  
  5  0
   s    10 1.00
  0.823600D+04  0.531000D-03
  0.123500D+04  0.410800D-02
  0.280800D+03  0.210870D-01
  0.792700D+02  0.818530D-01
  0.255900D+02  0.234817D+00
  0.899700D+01  0.434401D+00
  0.331900D+01  0.346129D+00
  0.905900D+00  0.393780D-01
  0.364300D+00 -0.898300D-02
  0.128500D+00  0.238500D-02
   s    10 1.00
  0.823600D+04 -0.113000D-03
  0.123500D+04 -0.878000D-03
  0.280800D+03 -0.454000D-02
  0.792700D+02 -0.181330D-01
  0.255900D+02 -0.557600D-01
  0.899700D+01 -0.126895D+00
  0.331900D+01 -0.170352D+00
  0.905900D+00  0.140382D+00
  0.364300D+00  0.598684D+00
  0.128500D+00  0.395389D+00
   s     1 1.00
  0.905900D+00  0.100000D+01
   s     1 1.00
  0.364300D+00  0.100000D+01
   p     5 1.00
  0.187100D+02  0.140310D-01
  0.413300D+01  0.868660D-01
  0.120000D+01  0.290216D+00
  0.382700D+00  0.501008D+00
  0.120900D+00  0.343406D+00
   p     1 1.00
  0.382700D+00  0.100000D+01
   p     1 1.00
  0.120900D+00  0.100000D+01
   d     1 1.00
  0.109700D+01  0.100000D+01
   d     1 1.00
  0.318000D+00  0.100000D+01
   f     1 1.00
  0.761000D+00  0.100000D+01
  
  6  0
   s    10 1.00
  0.823600D+04  0.531000D-03
  0.123500D+04  0.410800D-02
  0.280800D+03  0.210870D-01
  0.792700D+02  0.818530D-01
  0.255900D+02  0.234817D+00
  0.899700D+01  0.434401D+00
  0.331900D+01  0.346129D+00
  0.905900D+00  0.393780D-01
  0.364300D+00 -0.898300D-02
  0.128500D+00  0.238500D-02
   s    10 1.00
  0.823600D+04 -0.113000D-03
  0.123500D+04 -0.878000D-03
  0.280800D+03 -0.454000D-02
  0.792700D+02 -0.181330D-01
  0.255900D+02 -0.557600D-01
  0.899700D+01 -0.126895D+00
  0.331900D+01 -0.170352D+00
  0.905900D+00  0.140382D+00
  0.364300D+00  0.598684D+00
  0.128500D+00  0.395389D+00
   s     1 1.00
  0.905900D+00  0.100000D+01
   s     1 1.00
  0.364300D+00  0.100000D+01
   p     5 1.00
  0.187100D+02  0.140310D-01
  0.413300D+01  0.868660D-01
  0.120000D+01  0.290216D+00
  0.382700D+00  0.501008D+00
  0.120900D+00  0.343406D+00
   p     1 1.00
  0.382700D+00  0.100000D+01
   p     1 1.00
  0.120900D+00  0.100000D+01
   d     1 1.00
  0.109700D+01  0.100000D+01
   d     1 1.00
  0.318000D+00  0.100000D+01
   f     1 1.00
  0.761000D+00  0.100000D+01
  
  7  0
   s    10 1.00
  0.823600D+04  0.531000D-03
  0.123500D+04  0.410800D-02
  0.280800D+03  0.210870D-01
  0.792700D+02  0.818530D-01
  0.255900D+02  0.234817D+00
  0.899700D+01  0.434401D+00
  0.331900D+01  0.346129D+00
  0.905900D+00  0.393780D-01
  0.364300D+00 -0.898300D-02
  0.128500D+00  0.238500D-02
   s    10 1.00
  0.823600D+04 -0.113000D-03
  0.123500D+04 -0.878000D-03
  0.280800D+03 -0.454000D-02
  0.792700D+02 -0.181330D-01
  0.255900D+02 -0.557600D-01
  0.899700D+01 -0.126895D+00
  0.331900D+01 -0.170352D+00
  0.905900D+00  0.140382D+00
  0.364300D+00  0.598684D+00
  0.128500D+00  0.395389D+00
   s     1 1.00
  0.905900D+00  0.100000D+01
   s     1 1.00
  0.364300D+00  0.100000D+01
   p     5 1.00
  0.187100D+02  0.140310D-01
  0.413300D+01  0.868660D-01
  0.120000D+01  0.290216D+00
  0.382700D+00  0.501008D+00
  0.120900D+00  0.343406D+00
   p     1 1.00
  0.382700D+00  0.100000D+01
   p     1 1.00
  0.120900D+00  0.100000D+01
   d     1 1.00
  0.109700D+01  0.100000D+01
   d     1 1.00
  0.318000D+00  0.100000D+01
   f     1 1.00
  0.761000D+00  0.100000D+01
  
  8  0
   s     4 1.00
  0.130100D+02  0.196850D-01
  0.196200D+01  0.137977D+00
  0.444600D+00  0.478148D+00
  0.122000D+00  0.501240D+00
   s     1 1.00
  0.122000D+00  0.100000D+01
   p     1 1.00
  0.727000D+00  0.100000D+01
  
  9  0
   s     4 1.00
  0.130100D+02  0.196850D-01
  0.196200D+01  0.137977D+00
  0.444600D+00  0.478148D+00
  0.122000D+00  0.501240D+00
   s     1 1.00
  0.122000D+00  0.100000D+01
   p     1 1.00
  0.727000D+00  0.100000D+01
  
 10  0
   s     4 1.00
  0.130100D+02  0.196850D-01
  0.196200D+01  0.137977D+00
  0.444600D+00  0.478148D+00
  0.122000D+00  0.501240D+00
   s     1 1.00
  0.122000D+00  0.100000D+01
   p     1 1.00
  0.727000D+00  0.100000D+01
  
 11  0
   s     4 1.00
  0.130100D+02  0.196850D-01
  0.196200D+01  0.137977D+00
  0.444600D+00  0.478148D+00
  0.122000D+00  0.501240D+00
   s     1 1.00
  0.122000D+00  0.100000D+01
   p     1 1.00
  0.727000D+00  0.100000D+01
  
 12  0
   s     4 1.00
  0.130100D+02  0.196850D-01
  0.196200D+01  0.137977D+00
  0.444600D+00  0.478148D+00
  0.122000D+00  0.501240D+00
   s     1 1.00
  0.122000D+00  0.100000D+01
   p     1 1.00
  0.727000D+00  0.100000D+01
  
 13  0
   s     4 1.00
  0.130100D+02  0.196850D-01
  0.196200D+01  0.137977D+00
  0.444600D+00  0.478148D+00
  0.122000D+00  0.501240D+00
   s     1 1.00
  0.122000D+00  0.100000D+01
   p     1 1.00
  0.727000D+00  0.100000D+01
  
 14  0
   s     4 1.00
  0.130100D+02  0.196850D-01
  0.196200D+01  0.137977D+00
  0.444600D+00  0.478148D+00
  0.122000D+00  0.501240D+00
   s     1 1.00
  0.122000D+00  0.100000D+01
   p     1 1.00
  0.727000D+00  0.100000D+01
  
[MO]
 Sym= __1_A__
 Ene=   1.00000000000000     
 Spin= Alpha
 Occup=    1.00000000000000     
                     1  2.144076429582515E-004
                     2  0.998443657791796     
                     3 -2.300934368709217E-003
                     4  1.525548422063062E-003
                     5  7.363733281510981E-003
                     6  6.625033628971503E-003
                     7 -4.911898876012922E-003
                     8  1.569414963630426E-003
                     9 -1.099319390480832E-003
                    10  5.633278784982037E-004
                    11 -2.726324773019927E-004
                    12 -2.439283326971677E-003
                    13  3.292697513047702E-003
                    14 -1.343448469997045E-003
                    15 -4.171413268745566E-005
                    16 -4.575415955764104E-005
                    17 -5.446290565714781E-005
                    18  5.960199005390160E-005
                    19  1.268503299928549E-005
                    20 -2.785946607190726E-004
                    21  2.077371269642141E-004
                    22 -7.425188055834500E-006
                    23  7.744610863602870E-005
                    24 -4.308935392043081E-004
                    25  3.533494757312724E-006
                    26 -9.357376474019580E-005
                    27 -2.530209562051292E-005
                    28 -8.254170294765258E-006
                    29  6.366833992206483E-006
                    30 -5.893863315851874E-005
                    31 -5.484619362814428E-005
                    32 -3.526089250828096E-004
                    33  9.015878855513144E-005
                    34  3.022956561338022E-004
                    35 -1.254139483835188E-004
                    36 -2.374827541108570E-003
                    37 -1.855951169546876E-004
                    38 -8.300806087115699E-005
                    39  9.215333465386911E-005
                    40  5.299270114856248E-006
                    41  3.082862796358103E-004
                    42  5.165848767761377E-003
                    43  5.819551732297592E-004
                    44 -1.274937073905342E-003
                    45 -1.554463511977420E-004
                    46  4.554763663387879E-006
                    47  7.499070877885430E-006
                    48  1.451488521483154E-004
                    49  3.415838899793658E-005
                    50  5.079857115535629E-004
                    51  2.944042772991609E-004
                    52 -4.023782486280233E-005
                    53 -1.846447981488437E-004
                    54 -3.363664117344682E-004
                    55  5.975074566872139E-007
                    56 -4.523398442550011E-005
                    57  6.568790447086916E-006
                    58  1.250317259210693E-005
                    59 -1.074909956493370E-006
                    60 -4.380280494610394E-005
                    61  3.232359846887667E-005
                    62 -5.348992331499329E-004
                    63 -1.992853332761752E-003
                    64  4.703645629813894E-005
                    65  1.573816402922211E-003
                    66  9.614968925331685E-005
                    67 -1.918574475236790E-004
                    68 -3.607597287651617E-004
                    69  6.922493779176236E-004
                    70  4.543242146868484E-005
                    71  3.387093176268436E-004
                    72  2.425803956828688E-004
                    73 -2.205357313782970E-004
                    74 -1.411418644506363E-003
                    75 -4.799721479142393E-005
                    76 -2.647182445418342E-005
                    77  9.950852341414361E-006
                    78  6.685604288371168E-005
                    79 -7.976065443041541E-006
                    80  2.867475895049497E-004
                    81  1.560975382762221E-004
                    82 -2.984227737775105E-005
                    83 -1.070229075022896E-004
                    84  5.815047727497902E-005
                    85 -1.858044761583326E-005
                    86 -8.507486506349462E-005
                    87  1.650824061394762E-005
                    88 -8.080778438421960E-007
                    89  1.721866050183875E-005
                    90 -5.377598282443700E-005
                    91 -1.232090385351479E-005
                    92 -3.071059402226377E-004
                    93 -1.201776398945165E-003
                    94  1.796244943711227E-004
                    95  3.229061281444890E-004
                    96  1.345554000744293E-004
                    97 -2.178217370842905E-004
                    98  2.825443517553299E-004
                    99  4.962730213949492E-004
                   100  1.176366541753520E-004
                   101  6.953199981710672E-005
                   102 -1.244784226729698E-003
                   103 -3.109586568791831E-004
                   104  7.246770282459090E-004
                   105 -5.044638145474078E-005
                   106  4.106196483436363E-006
                   107 -1.154586237712736E-005
                   108  4.893450648519374E-005
                   109 -1.464979833919292E-005
                   110  1.346215694812628E-004
                   111 -1.400334552419285E-004
                   112  1.023808999084369E-005
                   113 -1.942556230372477E-004
                   114  7.845463580847928E-005
                   115  1.323680359975866E-005
                   116 -2.585275472110390E-005
                   117  1.706522587608322E-005
                   118  1.295413451941542E-005
                   119 -1.160481152087404E-005
                   120 -3.428696698529916E-005
                   121 -1.019571557210617E-005
                   122 -2.800309321618945E-004
                   123 -7.736540310987604E-004
                   124  6.911407224779998E-005
                   125  8.455378637844360E-004
                   126 -2.740814112214005E-004
                   127 -1.006859525513778E-004
                   128 -1.428004450389569E-005
                   129  3.299341275453700E-004
                   130 -2.806926625536412E-005
                   131  1.243143538963492E-004
                   132  1.664899535207686E-003
                   133  1.227713226937401E-004
                   134  9.978048731315956E-006
                   135  1.799795879713429E-005
                   136 -1.972552031196805E-006
                   137 -6.063229680217757E-006
                   138 -6.018960386258288E-006
                   139  8.563238746957504E-006
                   140  1.473635823847083E-004
                   141  2.516581177983866E-004
                   142  1.017295530132417E-005
                   143 -2.702205866159296E-004
                   144 -2.508245075648140E-006
                   145 -2.229877188236438E-005
                   146 -1.843907317114834E-005
                   147  1.991767081639229E-006
                   148 -7.456816481892756E-006
                   149 -4.467917064273428E-007
                   150 -6.128743990981414E-005
                   151 -2.891463224801467E-006
                   152 -2.088856526205910E-004
                   153 -5.626212694841261E-004
                   154  1.578910837244104E-005
                   155  7.031189704699114E-004
                   156 -2.146017386024900E-004
                   157 -8.658406029036819E-005
                   158 -1.563629511244293E-005
                   159  4.020387221692332E-005
                   160 -5.062691145536734E-005
                   161  4.392022447195289E-005
                   162  1.873260804056408E-004
                   163  1.484286221918971E-004
                   164  6.126990963944032E-004
                   165 -7.086324920861997E-008
                   166  6.012143068671676E-006
                   167  5.721647053578107E-006
                   168  7.175214398307952E-006
                   169  1.160013815134130E-005
                   170  1.752128908604765E-005
                   171 -1.135110245365176E-004
                   172 -9.733960649008636E-006
                   173 -1.225673405120562E-004
                   174  4.182128783154966E-006
                   175  1.487840031280160E-007
                   176 -1.313186547462381E-005
                   177  4.206580363636253E-006
                   178 -4.375342836796490E-006
                   179 -8.543585400728589E-007
                   180 -3.395690636580346E-005
                   181 -6.394756797829832E-006
                   182 -1.556420540699324E-004
                   183 -4.826175080224433E-004
                   184  3.820410350194152E-005
                   185  2.155916192186690E-004
                   186 -3.057233035033142E-005
                   187 -8.318680444466092E-005
                   188 -2.765979766926072E-005
                   189  1.197681706383309E-004
                   190  1.041007653216331E-005
                   191  1.464486247797294E-004
                   192 -4.589239209731707E-004
                   193 -8.910788194531955E-005
                   194  8.139875702054249E-004
                   195 -3.609074147330382E-006
                   196  1.184043584773205E-006
                   197  1.597534468107632E-006
                   198  4.815148957729258E-007
                   199  3.151053852362149E-007
                   200 -1.255554972052682E-004
                   201 -1.177593416431357E-004
                   202 -4.201132189206842E-006
                   203  5.627050905482264E-005
                   204  1.673914366719034E-005
                   205  2.949581956482249E-006
                   206  5.796017880622224E-006
                   207  1.156425768422237E-006
                   208  9.505498247050039E-006
                   209  1.442600888069476E-008
                   210 -5.875184175770209E-006
                   211 -3.146188346086615E-006
                   212 -1.084339385941011E-004
                   213 -2.496113989360373E-004
                   214  4.698962110818337E-005
                   215  1.775799621152392E-004
                   216  5.391020588533962E-005
                   217  2.266141012110549E-004
                   218 -1.158789836319066E-003
                   219  8.302960891491127E-005
                   220  2.304190703665446E-004
                   221 -2.314464334726949E-004
                   222 -3.004821494426866E-004
                   223 -5.496213683286126E-004
                   224 -7.709890669801634E-005
                   225  7.756706451336012E-006
                   226  5.648171418154064E-005
                   227 -1.927572236012906E-004
                   228 -5.309427578220299E-004
                   229 -4.999430478644046E-005
                   230  1.328668578458622E-005
                   231 -6.616751621642368E-005
                   232  1.281216492037316E-005
                   233 -5.839035582060084E-004
                   234  1.821063129309633E-006
                   235 -9.905178527942595E-007
                   236 -2.825477383940327E-006
                   237 -3.149928336878981E-005
                   238 -4.560308363195177E-004
                   239  8.086672236449239E-006
                   240 -2.786241544571552E-006
                   241  8.793199689318809E-006
                   242 -4.269371215543976E-005
                   243  1.465635477691084E-004
                   244  3.439730520556212E-005
                   245  1.775037036929036E-006
                   246 -3.847257669101239E-007
 Sym= __2_A__
 Ene=   2.00000000000000     
 Spin= Alpha
 Occup=    1.00000000000000     
                     1 -2.153413223402647E-005
                     2 -1.369221638003799E-004
                     3  2.259773701295403E-003
                     4 -1.943518715675033E-006
                     5  1.143116940870821E-003
                     6  1.956345356950326E-003
                     7 -9.150132137374018E-005
                     8 -2.261012065922567E-004
                     9 -1.303228039792972E-004
                    10  1.323267041195322E-004
                    11 -2.279642819856467E-005
                    12  6.997539651878248E-005
                    13  9.008639590411841E-005
                    14  3.238337747821410E-005
                    15 -6.763514248217206E-005
                    16  5.498954408653588E-007
                    17  6.594739291864807E-007
                    18  4.700112370412084E-005
                    19 -1.062549836060269E-005
                    20  9.037873487027271E-005
                    21  2.377864645125988E-005
                    22  4.682900256396747E-006
                    23  1.174990252759248E-004
                    24 -3.242748392723705E-005
                    25 -1.055806966091534E-005
                    26  1.356673104879273E-004
                    27 -4.639663446950630E-005
                    28  1.251181861424797E-006
                    29 -4.493792202025014E-006
                    30  1.082095133753647E-004
                    31  3.962724154371473E-005
                    32   1.00088783452742     
                    33  8.843381098463559E-003
                    34  2.822581954410733E-003
                    35 -8.345508662378995E-003
                    36 -2.358483084528769E-003
                    37  6.248565759796710E-004
                    38  3.498077037329055E-005
                    39  7.735223835703840E-004
                    40 -2.484033913576314E-004
                    41 -1.204032415405797E-005
                    42  3.261360948870275E-003
                    43 -1.435908634003257E-004
                    44 -1.005062806027310E-005
                    45  2.964856379304557E-004
                    46 -5.851713097782225E-006
                    47 -9.326475183659360E-006
                    48  3.945032559475102E-004
                    49 -3.437124609860326E-005
                    50 -1.069220119262772E-003
                    51  5.598902463503835E-005
                    52  2.690219553078561E-005
                    53 -9.504335851026584E-005
                    54  5.982400063944455E-005
                    55  2.527586222918620E-006
                    56  2.934405779413061E-004
                    57 -1.099068166037376E-005
                    58 -3.653832074636834E-007
                    59 -4.777197784068003E-006
                    60  8.581655428489446E-005
                    61  2.025753343305551E-005
                    62  1.416963985320098E-002
                    63 -1.872922877917978E-003
                    64 -3.176335811211279E-004
                    65  3.193808326329691E-003
                    66 -9.264578485934175E-005
                    67  8.694472086570028E-005
                    68  2.203012561917007E-004
                    69  6.891188435698763E-007
                    70 -9.038351322881659E-006
                    71  5.772045325944044E-004
                    72  1.597437022589859E-004
                    73 -1.507192775155051E-005
                    74 -1.764829166593318E-003
                    75 -1.032817661952802E-005
                    76  1.895920727106931E-005
                    77  8.600330489171282E-006
                    78 -3.063204134692154E-005
                    79 -3.410751130659464E-006
                    80 -3.835328012472166E-004
                    81 -4.554728695478041E-004
                    82 -7.047965073109050E-006
                    83  7.424225455672540E-004
                    84 -3.565318674255333E-006
                    85  4.778215567982852E-005
                    86  1.069598910341108E-004
                    87  7.995359119008470E-007
                    88 -1.989070239122246E-005
                    89 -9.921665783258654E-006
                    90 -3.119579644077217E-005
                    91  4.571216487905243E-006
                    92  1.621012183706879E-002
                    93 -1.825999248871657E-003
                    94 -3.069915667242483E-004
                    95  3.122765285131955E-003
                    96 -1.013979436720129E-004
                    97  9.297907505218856E-005
                    98 -2.196531323642231E-004
                    99 -3.230774326579582E-006
                   100  6.945433936373524E-006
                   101 -5.453854411655223E-004
                   102  1.452742075976613E-004
                   103 -4.952727528444361E-005
                   104  1.813875610684958E-003
                   105 -8.901143103162885E-006
                   106 -2.092662961431386E-005
                   107 -6.963295473475397E-006
                   108 -3.275308408144664E-005
                   109 -3.198848494219683E-006
                   110 -4.125081978878512E-004
                   111  4.737068652028196E-004
                   112  7.525665629673424E-006
                   113  7.542824353319552E-004
                   114 -4.791852206344485E-006
                   115 -5.315252517640814E-005
                   116  1.085148708467919E-004
                   117 -2.979675875501457E-006
                   118  1.654033657112945E-005
                   119  4.946217586747841E-006
                   120 -3.036295958374755E-005
                   121  5.619888728904386E-006
                   122 -6.976482995755101E-005
                   123 -6.804462631470426E-004
                   124  2.476751678229405E-004
                   125 -3.005362004154945E-004
                   126 -2.291092918744261E-004
                   127  2.576775550991063E-005
                   128 -3.981429147456235E-005
                   129  5.926482488416555E-004
                   130 -2.695569830725221E-006
                   131  3.799390157838937E-005
                   132  5.775324234079914E-004
                   133  8.836042478820298E-006
                   134  3.173976003226991E-004
                   135 -9.466912641511800E-008
                   136  4.284298951122509E-005
                   137  2.214527965870730E-007
                   138 -3.382101210737046E-005
                   139 -9.755008954675414E-007
                   140  1.844297400442592E-004
                   141 -2.526653074304668E-004
                   142  5.633750834245998E-006
                   143 -2.595977822204986E-004
                   144 -1.066708177013776E-006
                   145 -1.887386309847473E-005
                   146  1.374198790393495E-005
                   147 -1.701407561466279E-007
                   148 -1.293959287493831E-005
                   149 -2.725612442169889E-006
                   150 -2.625016211785084E-005
                   151 -4.608141023964594E-007
                   152 -3.629460413974617E-005
                   153 -6.841315722270698E-004
                   154  2.469754293750318E-004
                   155 -3.107046433995931E-004
                   156 -2.229681153091861E-004
                   157  1.886174475141246E-005
                   158  3.852095609641800E-005
                   159  5.971358769366324E-004
                   160  7.461552142651799E-006