[Molden Format]
[Atoms] AU
  N     1    7    -4.4628772100    0.2302805100   -0.0145248300        
  C     2    6    -1.7593735900   -0.0181692200   -0.0199630500        
  C     3    6    -0.4167645700    0.0147766100   -2.2857302900        
  C     4    6    -0.4362484900   -0.0375958000    2.2539348400        
  C     5    6     2.1921043600    0.0096949500   -2.2578425400        
  C     6    6     2.1801347400   -0.0133110400    2.2546892600        
  C     7    6     3.5057839000    0.0021624100    0.0065544200        
  H     8    1    -5.3481984300   -1.4490147500   -1.8572024700        
  H     9    1    -5.1571865000   -0.6892831000    1.5656011100        
  H    10    1    -1.4201473400    0.0487352500   -4.0463261900        
  H    11    1    -1.4476813500   -0.0704769900    4.0123266700        
  H    12    1     3.2079994200    0.0221273900   -4.0148725600        
  H    13    1     3.1771975800   -0.0253445600    4.0223672300        
  H    14    1     5.5343259400    0.0037291000    0.0123088800        
[5D]
[7F]
[GTO]
  1  0
   s    12 1.00
  0.114200D+05  0.172695D-04
  0.171200D+04  0.134411D-03
  0.389300D+03  0.694561D-03
  0.110000D+03  0.278531D-02
  0.355700D+02  0.863457D-02
  0.125400D+02  0.199805D-01
  0.464400D+01  0.262908D-01
  0.129300D+01 -0.243845D-01
  0.511800D+00 -0.924934D-01
  0.178700D+00 -0.339683D+00
  0.246240D-01  0.345111D+00
  0.112530D-01  0.752750D+00
   s    10 1.00
  0.114200D+05  0.523000D-03
  0.171200D+04  0.404500D-02
  0.389300D+03  0.207750D-01
  0.110000D+03  0.807269D-01
  0.355700D+02  0.233074D+00
  0.125400D+02  0.433501D+00
  0.464400D+01  0.347472D+00
  0.129300D+01  0.412620D-01
  0.511800D+00 -0.850799D-02
  0.178700D+00  0.238400D-02
   s    10 1.00
  0.114200D+05 -0.115000D-03
  0.171200D+04 -0.895000D-03
  0.389300D+03 -0.462400D-02
  0.110000D+03 -0.185280D-01
  0.355700D+02 -0.573390D-01
  0.125400D+02 -0.132076D+00
  0.464400D+01 -0.172510D+00
  0.129300D+01  0.151814D+00
  0.511800D+00  0.599944D+00
  0.178700D+00  0.387462D+00
   s     1 1.00
  0.129300D+01  0.100000D+01
   s     1 1.00
  0.178700D+00  0.100000D+01
   p     5 1.00
  0.266300D+02  0.146700D-01
  0.594800D+01  0.917640D-01
  0.174200D+01  0.298683D+00
  0.555000D+00  0.498487D+00
  0.172500D+00  0.337023D+00
   p     1 1.00
  0.174200D+01  0.100000D+01
   p     1 1.00
  0.555000D+00  0.100000D+01
   d     1 1.00
  0.165400D+01  0.100000D+01
   d     1 1.00
  0.469000D+00  0.100000D+01
   f     1 1.00
  0.109300D+01  0.100000D+01
  
  2  0
   s    10 1.00
  0.823600D+04  0.531000D-03
  0.123500D+04  0.410800D-02
  0.280800D+03  0.210870D-01
  0.792700D+02  0.818530D-01
  0.255900D+02  0.234817D+00
  0.899700D+01  0.434401D+00
  0.331900D+01  0.346129D+00
  0.905900D+00  0.393780D-01
  0.364300D+00 -0.898300D-02
  0.128500D+00  0.238500D-02
   s    10 1.00
  0.823600D+04 -0.113000D-03
  0.123500D+04 -0.878000D-03
  0.280800D+03 -0.454000D-02
  0.792700D+02 -0.181330D-01
  0.255900D+02 -0.557600D-01
  0.899700D+01 -0.126895D+00
  0.331900D+01 -0.170352D+00
  0.905900D+00  0.140382D+00
  0.364300D+00  0.598684D+00
  0.128500D+00  0.395389D+00
   s     1 1.00
  0.905900D+00  0.100000D+01
   s     1 1.00
  0.364300D+00  0.100000D+01
   p     5 1.00
  0.187100D+02  0.140310D-01
  0.413300D+01  0.868660D-01
  0.120000D+01  0.290216D+00
  0.382700D+00  0.501008D+00
  0.120900D+00  0.343406D+00
   p     1 1.00
  0.382700D+00  0.100000D+01
   p     1 1.00
  0.120900D+00  0.100000D+01
   d     1 1.00
  0.109700D+01  0.100000D+01
   d     1 1.00
  0.318000D+00  0.100000D+01
   f     1 1.00
  0.761000D+00  0.100000D+01
  
  3  0
   s    10 1.00
  0.823600D+04  0.531000D-03
  0.123500D+04  0.410800D-02
  0.280800D+03  0.210870D-01
  0.792700D+02  0.818530D-01
  0.255900D+02  0.234817D+00
  0.899700D+01  0.434401D+00
  0.331900D+01  0.346129D+00
  0.905900D+00  0.393780D-01
  0.364300D+00 -0.898300D-02
  0.128500D+00  0.238500D-02
   s    10 1.00
  0.823600D+04 -0.113000D-03
  0.123500D+04 -0.878000D-03
  0.280800D+03 -0.454000D-02
  0.792700D+02 -0.181330D-01
  0.255900D+02 -0.557600D-01
  0.899700D+01 -0.126895D+00
  0.331900D+01 -0.170352D+00
  0.905900D+00  0.140382D+00
  0.364300D+00  0.598684D+00
  0.128500D+00  0.395389D+00
   s     1 1.00
  0.905900D+00  0.100000D+01
   s     1 1.00
  0.364300D+00  0.100000D+01
   p     5 1.00
  0.187100D+02  0.140310D-01
  0.413300D+01  0.868660D-01
  0.120000D+01  0.290216D+00
  0.382700D+00  0.501008D+00
  0.120900D+00  0.343406D+00
   p     1 1.00
  0.382700D+00  0.100000D+01
   p     1 1.00
  0.120900D+00  0.100000D+01
   d     1 1.00
  0.109700D+01  0.100000D+01
   d     1 1.00
  0.318000D+00  0.100000D+01
   f     1 1.00
  0.761000D+00  0.100000D+01
  
  4  0
   s    10 1.00
  0.823600D+04  0.531000D-03
  0.123500D+04  0.410800D-02
  0.280800D+03  0.210870D-01
  0.792700D+02  0.818530D-01
  0.255900D+02  0.234817D+00
  0.899700D+01  0.434401D+00
  0.331900D+01  0.346129D+00
  0.905900D+00  0.393780D-01
  0.364300D+00 -0.898300D-02
  0.128500D+00  0.238500D-02
   s    10 1.00
  0.823600D+04 -0.113000D-03
  0.123500D+04 -0.878000D-03
  0.280800D+03 -0.454000D-02
  0.792700D+02 -0.181330D-01
  0.255900D+02 -0.557600D-01
  0.899700D+01 -0.126895D+00
  0.331900D+01 -0.170352D+00
  0.905900D+00  0.140382D+00
  0.364300D+00  0.598684D+00
  0.128500D+00  0.395389D+00
   s     1 1.00
  0.905900D+00  0.100000D+01
   s     1 1.00
  0.364300D+00  0.100000D+01
   p     5 1.00
  0.187100D+02  0.140310D-01
  0.413300D+01  0.868660D-01
  0.120000D+01  0.290216D+00
  0.382700D+00  0.501008D+00
  0.120900D+00  0.343406D+00
   p     1 1.00
  0.382700D+00  0.100000D+01
   p     1 1.00
  0.120900D+00  0.100000D+01
   d     1 1.00
  0.109700D+01  0.100000D+01
   d     1 1.00
  0.318000D+00  0.100000D+01
   f     1 1.00
  0.761000D+00  0.100000D+01
  
  5  0
   s    10 1.00
  0.823600D+04  0.531000D-03
  0.123500D+04  0.410800D-02
  0.280800D+03  0.210870D-01
  0.792700D+02  0.818530D-01
  0.255900D+02  0.234817D+00
  0.899700D+01  0.434401D+00
  0.331900D+01  0.346129D+00
  0.905900D+00  0.393780D-01
  0.364300D+00 -0.898300D-02
  0.128500D+00  0.238500D-02
   s    10 1.00
  0.823600D+04 -0.113000D-03
  0.123500D+04 -0.878000D-03
  0.280800D+03 -0.454000D-02
  0.792700D+02 -0.181330D-01
  0.255900D+02 -0.557600D-01
  0.899700D+01 -0.126895D+00
  0.331900D+01 -0.170352D+00
  0.905900D+00  0.140382D+00
  0.364300D+00  0.598684D+00
  0.128500D+00  0.395389D+00
   s     1 1.00
  0.905900D+00  0.100000D+01
   s     1 1.00
  0.364300D+00  0.100000D+01
   p     5 1.00
  0.187100D+02  0.140310D-01
  0.413300D+01  0.868660D-01
  0.120000D+01  0.290216D+00
  0.382700D+00  0.501008D+00
  0.120900D+00  0.343406D+00
   p     1 1.00
  0.382700D+00  0.100000D+01
   p     1 1.00
  0.120900D+00  0.100000D+01
   d     1 1.00
  0.109700D+01  0.100000D+01
   d     1 1.00
  0.318000D+00  0.100000D+01
   f     1 1.00
  0.761000D+00  0.100000D+01
  
  6  0
   s    10 1.00
  0.823600D+04  0.531000D-03
  0.123500D+04  0.410800D-02
  0.280800D+03  0.210870D-01
  0.792700D+02  0.818530D-01
  0.255900D+02  0.234817D+00
  0.899700D+01  0.434401D+00
  0.331900D+01  0.346129D+00
  0.905900D+00  0.393780D-01
  0.364300D+00 -0.898300D-02
  0.128500D+00  0.238500D-02
   s    10 1.00
  0.823600D+04 -0.113000D-03
  0.123500D+04 -0.878000D-03
  0.280800D+03 -0.454000D-02
  0.792700D+02 -0.181330D-01
  0.255900D+02 -0.557600D-01
  0.899700D+01 -0.126895D+00
  0.331900D+01 -0.170352D+00
  0.905900D+00  0.140382D+00
  0.364300D+00  0.598684D+00
  0.128500D+00  0.395389D+00
   s     1 1.00
  0.905900D+00  0.100000D+01
   s     1 1.00
  0.364300D+00  0.100000D+01
   p     5 1.00
  0.187100D+02  0.140310D-01
  0.413300D+01  0.868660D-01
  0.120000D+01  0.290216D+00
  0.382700D+00  0.501008D+00
  0.120900D+00  0.343406D+00
   p     1 1.00
  0.382700D+00  0.100000D+01
   p     1 1.00
  0.120900D+00  0.100000D+01
   d     1 1.00
  0.109700D+01  0.100000D+01
   d     1 1.00
  0.318000D+00  0.100000D+01
   f     1 1.00
  0.761000D+00  0.100000D+01
  
  7  0
   s    10 1.00
  0.823600D+04  0.531000D-03
  0.123500D+04  0.410800D-02
  0.280800D+03  0.210870D-01
  0.792700D+02  0.818530D-01
  0.255900D+02  0.234817D+00
  0.899700D+01  0.434401D+00
  0.331900D+01  0.346129D+00
  0.905900D+00  0.393780D-01
  0.364300D+00 -0.898300D-02
  0.128500D+00  0.238500D-02
   s    10 1.00
  0.823600D+04 -0.113000D-03
  0.123500D+04 -0.878000D-03
  0.280800D+03 -0.454000D-02
  0.792700D+02 -0.181330D-01
  0.255900D+02 -0.557600D-01
  0.899700D+01 -0.126895D+00
  0.331900D+01 -0.170352D+00
  0.905900D+00  0.140382D+00
  0.364300D+00  0.598684D+00
  0.128500D+00  0.395389D+00
   s     1 1.00
  0.905900D+00  0.100000D+01
   s     1 1.00
  0.364300D+00  0.100000D+01
   p     5 1.00
  0.187100D+02  0.140310D-01
  0.413300D+01  0.868660D-01
  0.120000D+01  0.290216D+00
  0.382700D+00  0.501008D+00
  0.120900D+00  0.343406D+00
   p     1 1.00
  0.382700D+00  0.100000D+01
   p     1 1.00
  0.120900D+00  0.100000D+01
   d     1 1.00
  0.109700D+01  0.100000D+01
   d     1 1.00
  0.318000D+00  0.100000D+01
   f     1 1.00
  0.761000D+00  0.100000D+01
  
  8  0
   s     4 1.00
  0.130100D+02  0.196850D-01
  0.196200D+01  0.137977D+00
  0.444600D+00  0.478148D+00
  0.122000D+00  0.501240D+00
   s     1 1.00
  0.122000D+00  0.100000D+01
   p     1 1.00
  0.727000D+00  0.100000D+01
  
  9  0
   s     4 1.00
  0.130100D+02  0.196850D-01
  0.196200D+01  0.137977D+00
  0.444600D+00  0.478148D+00
  0.122000D+00  0.501240D+00
   s     1 1.00
  0.122000D+00  0.100000D+01
   p     1 1.00
  0.727000D+00  0.100000D+01
  
 10  0
   s     4 1.00
  0.130100D+02  0.196850D-01
  0.196200D+01  0.137977D+00
  0.444600D+00  0.478148D+00
  0.122000D+00  0.501240D+00
   s     1 1.00
  0.122000D+00  0.100000D+01
   p     1 1.00
  0.727000D+00  0.100000D+01
  
 11  0
   s     4 1.00
  0.130100D+02  0.196850D-01
  0.196200D+01  0.137977D+00
  0.444600D+00  0.478148D+00
  0.122000D+00  0.501240D+00
   s     1 1.00
  0.122000D+00  0.100000D+01
   p     1 1.00
  0.727000D+00  0.100000D+01
  
 12  0
   s     4 1.00
  0.130100D+02  0.196850D-01
  0.196200D+01  0.137977D+00
  0.444600D+00  0.478148D+00
  0.122000D+00  0.501240D+00
   s     1 1.00
  0.122000D+00  0.100000D+01
   p     1 1.00
  0.727000D+00  0.100000D+01
  
 13  0
   s     4 1.00
  0.130100D+02  0.196850D-01
  0.196200D+01  0.137977D+00
  0.444600D+00  0.478148D+00
  0.122000D+00  0.501240D+00
   s     1 1.00
  0.122000D+00  0.100000D+01
   p     1 1.00
  0.727000D+00  0.100000D+01
  
 14  0
   s     4 1.00
  0.130100D+02  0.196850D-01
  0.196200D+01  0.137977D+00
  0.444600D+00  0.478148D+00
  0.122000D+00  0.501240D+00
   s     1 1.00
  0.122000D+00  0.100000D+01
   p     1 1.00
  0.727000D+00  0.100000D+01
  
[MO]
 Sym= __1_A__
 Ene=  0.000000000000000E+000
 Spin= Alpha
 Occup=    2.00000000000000     
                     1  2.144076429798965E-004
                     2  0.998443657791747     
                     3 -2.300934368579839E-003
                     4  1.525548422062510E-003
                     5  7.363733281418807E-003
                     6  6.625033628932652E-003
                     7 -4.911898875937991E-003
                     8  1.569414963606223E-003
                     9 -1.099319390461733E-003
                    10  5.633278784791126E-004
                    11 -2.726324773013985E-004
                    12 -2.439283327001999E-003
                    13  3.292697513040697E-003
                    14 -1.343448470002554E-003
                    15 -4.171413268715768E-005
                    16 -4.575415957505588E-005
                    17 -5.446290565953913E-005
                    18  5.960199006026910E-005
                    19  1.268503300096248E-005
                    20 -2.785946607204144E-004
                    21  2.077371268961354E-004
                    22 -7.425188053150017E-006
                    23  7.744610866966312E-005
                    24 -4.308935392058277E-004
                    25  3.533494748489296E-006
                    26 -9.357376474224161E-005
                    27 -2.530209562226964E-005
                    28 -8.254170306308441E-006
                    29  6.366833996863318E-006
                    30 -5.893863316688881E-005
                    31 -5.484619363005777E-005
                    32 -3.526089221151421E-004
                    33  9.015879146198482E-005
                    34  3.022956561429660E-004
                    35 -1.254139487744327E-004
                    36 -2.374827540561512E-003
                    37 -1.855951168580037E-004
                    38 -8.300806397527603E-005
                    39  9.215333467420202E-005
                    40  5.299270107924641E-006
                    41  3.082862798798388E-004
                    42  5.165848768237982E-003
                    43  5.819551732387146E-004
                    44 -1.274937073015965E-003
                    45 -1.554463510783676E-004
                    46  4.554763577034877E-006
                    47  7.499070871825505E-006
                    48  1.451488521257880E-004
                    49  3.415838899993501E-005
                    50  5.079857115521448E-004
                    51  2.944042771597467E-004
                    52 -4.023782485430528E-005
                    53 -1.846447980501507E-004
                    54 -3.363664117249074E-004
                    55  5.975074826531737E-007
                    56 -4.523398438416524E-005
                    57  6.568790449426010E-006
                    58  1.250317257584004E-005
                    59 -1.074909956768750E-006
                    60 -4.380280494187739E-005
                    61  3.232359847211692E-005
                    62 -5.348992332861106E-004
                    63 -1.992853329947164E-003
                    64  4.703645627128307E-005
                    65  1.573816402796930E-003
                    66  9.614968406150612E-005
                    67 -1.918574474500322E-004
                    68 -3.607597283171522E-004
                    69  6.922493784324933E-004
                    70  4.543242147378957E-005
                    71  3.387093177203079E-004
                    72  2.425803967874331E-004
                    73 -2.205357313939258E-004
                    74 -1.411418645004829E-003
                    75 -4.799721464787076E-005
                    76 -2.647182449736481E-005
                    77  9.950852339556129E-006
                    78  6.685604285088164E-005
                    79 -7.976065443105444E-006
                    80  2.867475894372935E-004
                    81  1.560975379553228E-004
                    82 -2.984227737353706E-005
                    83 -1.070229074311804E-004
                    84  5.815047728376847E-005
                    85 -1.858044761418292E-005
                    86 -8.507486510719825E-005
                    87  1.650824061394727E-005
                    88 -8.080778206365084E-007
                    89  1.721866050235506E-005
                    90 -5.377598279878840E-005
                    91 -1.232090385299717E-005
                    92 -3.071059405081928E-004
                    93 -1.201776399451758E-003
                    94  1.796244943910518E-004
                    95  3.229061282420606E-004
                    96  1.345553982527430E-004
                    97 -2.178217370882652E-004
                    98  2.825443534954647E-004
                    99  4.962730215782051E-004
                   100  1.176366541742410E-004
                   101  6.953199962121468E-005
                   102 -1.244784226355315E-003
                   103 -3.109586568823808E-004
                   104  7.246770283866802E-004
                   105 -5.044638140105302E-005
                   106  4.106196432224002E-006
                   107 -1.154586237937790E-005
                   108  4.893450644110358E-005
                   109 -1.464979833993789E-005
                   110  1.346215694298499E-004
                   111 -1.400334551338290E-004
                   112  1.023808999491417E-005
                   113 -1.942556230348309E-004
                   114  7.845463581354826E-005
                   115  1.323680359250927E-005
                   116 -2.585275470980820E-005
                   117  1.706522587555498E-005
                   118  1.295413452827381E-005
                   119 -1.160481152141499E-005
                   120 -3.428696697203289E-005
                   121 -1.019571557260709E-005
                   122 -2.800309322099028E-004
                   123 -7.736540330024942E-004
                   124  6.911407231560347E-005
                   125  8.455378637374084E-004
                   126 -2.740814083125249E-004
                   127 -1.006859525315100E-004
                   128 -1.428004470464049E-005
                   129  3.299341274813874E-004
                   130 -2.806926626018255E-005
                   131  1.243143540005684E-004
                   132  1.664899535043423E-003
                   133  1.227713226983380E-004
                   134  9.978048835843464E-006
                   135  1.799795885485622E-005
                   136 -1.972552038901863E-006
                   137 -6.063229680583830E-006
                   138 -6.018960462539300E-006
                   139  8.563238746220658E-006
                   140  1.473635824858655E-004
                   141  2.516581177310129E-004
                   142  1.017295530137368E-005
                   143 -2.702205867377578E-004
                   144 -2.508245076692648E-006
                   145 -2.229877187711142E-005
                   146 -1.843907320497881E-005
                   147  1.991767082020042E-006
                   148 -7.456816481074946E-006
                   149 -4.467917064000458E-007
                   150 -6.128743994269662E-005
                   151 -2.891463224980828E-006
                   152 -2.088856526655901E-004
                   153 -5.626212701036364E-004
                   154  1.578910840275592E-005
                   155  7.031189704565963E-004
                   156 -2.146017367830413E-004
                   157 -8.658406028444104E-005
                   158 -1.563629470792823E-005
                   159  4.020387213846650E-005
                   160 -5.062691145647512E-005
                   161  4.392022438276518E-005
                   162  1.873260802837418E-004
                   163  1.484286221896874E-004
                   164  6.126990961942329E-004
                   165 -7.086320934533758E-008
                   166  6.012143053763901E-006
                   167  5.721647053442313E-006
                   168  7.175214357894776E-006
                   169  1.160013814987545E-005
                   170  1.752128915097471E-005
                   171 -1.135110245666965E-004
                   172 -9.733960650669571E-006
                   173 -1.225673405793608E-004
                   174  4.182128782512911E-006
                   175  1.487840074077569E-007
                   176 -1.313186548375921E-005
                   177  4.206580363569514E-006
                   178 -4.375342829835154E-006
                   179 -8.543585396018392E-007
                   180 -3.395690638235266E-005
                   181 -6.394756797566140E-006
                   182 -1.556420541143359E-004
                   183 -4.826175078116270E-004
                   184  3.820410350193750E-005
                   185  2.155916192232838E-004
                   186 -3.057233069031938E-005
                   187 -8.318680445621028E-005
                   188 -2.765979769226312E-005
                   189  1.197681707404693E-004
                   190  1.041007653181934E-005
                   191  1.464486247554618E-004
                   192 -4.589239212664903E-004
                   193 -8.910788195343095E-005
                   194  8.139875702349177E-004
                   195 -3.609074090367870E-006
                   196  1.184043580644965E-006
                   197  1.597534467569416E-006
                   198  4.815148596893780E-007
                   199  3.151053849819410E-007
                   200 -1.255554971357804E-004
                   201 -1.177593416657705E-004
                   202 -4.201132190087202E-006
                   203  5.627050904947924E-005
                   204  1.673914366678328E-005
                   205  2.949581959930616E-006
                   206  5.796017869155212E-006
                   207  1.156425768315729E-006
                   208  9.505498249184908E-006
                   209  1.442600902584185E-008
                   210 -5.875184181879417E-006
                   211 -3.146188346000283E-006
                   212 -1.084339386153148E-004
                   213 -2.496113989707660E-004
                   214  4.698962111666581E-005
                   215  1.775799621192467E-004
                   216  5.391020588694025E-005
                   217  2.266141014544417E-004
                   218 -1.158789836206981E-003
                   219  8.302960891409057E-005
                   220  2.304190703698050E-004
                   221 -2.314464334688891E-004
                   222 -3.004821461143655E-004
                   223 -5.496213698180734E-004
                   224 -7.709890664203747E-005
                   225  7.756706448801243E-006
                   226  5.648171440204925E-005
                   227 -1.927572212467944E-004
                   228 -5.309427586846373E-004
                   229 -4.999430473032143E-005
                   230  1.328668578630159E-005
                   231 -6.616751632693590E-005
                   232  1.281216574869514E-005
                   233 -5.839035583512516E-004
                   234  1.821063141719101E-006
                   235 -9.905178530366483E-007
                   236 -2.825477338567888E-006
                   237 -3.149928251690132E-005
                   238 -4.560308366193957E-004
                   239  8.086672225383819E-006
                   240 -2.786241544185746E-006
                   241  8.793199641240131E-006
                   242 -4.269371280494744E-005
                   243  1.465635478770567E-004
                   244  3.439730523705009E-005
                   245  1.775037036807401E-006
                   246 -3.847257680274646E-007
 Sym= __2_A__
 Ene=  0.000000000000000E+000
 Spin= Alpha
 Occup=    2.00000000000000     
                     1 -2.153413208586936E-005
                     2 -1.369221669449156E-004
                     3  2.259773701307546E-003
                     4 -1.943518752812520E-006
                     5  1.143116941420881E-003
                     6  1.956345356994725E-003
                     7 -9.150132116886580E-005
                     8 -2.261012065531745E-004
                     9 -1.303228040751754E-004
                    10  1.323267040602354E-004
                    11 -2.279642820140346E-005
                    12  6.997539640459552E-005
                    13  9.008639585674783E-005
                    14  3.238337741317944E-005
                    15 -6.763514249082009E-005
                    16  5.498954284565862E-007
                    17  6.594739287439475E-007
                    18  4.700112370058470E-005
                    19 -1.062549835841936E-005
                    20  9.037873501209421E-005
                    21  2.377864629277237E-005
                    22  4.682900246448971E-006
                    23  1.174990253671572E-004
                    24 -3.242748390795825E-005
                    25 -1.055806968272527E-005
                    26  1.356673105455745E-004
                    27 -4.639663447854398E-005
                    28  1.251181842067913E-006
                    29 -4.493792191961345E-006
                    30  1.082095133398524E-004
                    31  3.962724153519371E-005
                    32   1.00088783455992     
                    33  8.843381103493373E-003
                    34  2.822581955384433E-003
                    35 -8.345508669378613E-003
                    36 -2.358483084861163E-003
                    37  6.248565760989297E-004
                    38  3.498076713496064E-005
                    39  7.735223825725993E-004
                    40 -2.484033913821975E-004
                    41 -1.204032374839136E-005
                    42  3.261360950761167E-003
                    43 -1.435908634256363E-004
                    44 -1.005062745589159E-005
                    45  2.964856381346548E-004
                    46 -5.851713175957137E-006
                    47 -9.326475194417378E-006
                    48  3.945032559670914E-004
                    49 -3.437124610211896E-005
                    50 -1.069220121148987E-003
                    51  5.598902436025701E-005
                    52  2.690219560404390E-005
                    53 -9.504335857128056E-005
                    54  5.982400067519055E-005
                    55  2.527586268717403E-006
                    56  2.934405781942530E-004
                    57 -1.099068165906010E-005
                    58 -3.653832423254074E-007
                    59 -4.777197791301351E-006
                    60  8.581655431892739E-005
                    61  2.025753342967953E-005
                    62  1.416963869930086E-002
                    63 -1.872922884788969E-003
                    64 -3.176335850657800E-004
                    65  3.193808336685049E-003
                    66 -9.264579126905770E-005
                    67  8.694472104887263E-005
                    68  2.203012552973824E-004
                    69  6.891194619576221E-007
                    70 -9.038351403644729E-006
                    71  5.772045342204304E-004
                    72  1.597437028676545E-004
                    73 -1.507192776654460E-005
                    74 -1.764829167636541E-003
                    75 -1.032817659143719E-005
                    76  1.895920733710999E-005
                    77  8.600330497800621E-006
                    78 -3.063204188654492E-005
                    79 -3.410751128028327E-006
                    80 -3.835328016684642E-004
                    81 -4.554728712686788E-004
                    82 -7.047965067641695E-006
                    83  7.424225466225953E-004
                    84 -3.565318651021132E-006
                    85  4.778215560567756E-005
                    86  1.069598913510515E-004
                    87  7.995359024683242E-007
                    88 -1.989070227691797E-005
                    89 -9.921665792521709E-006
                    90 -3.119579635098482E-005
                    91  4.571216485700171E-006
                    92  1.621012099622393E-002
                    93 -1.825999255719114E-003
                    94 -3.069915696755378E-004
                    95  3.122765293108727E-003
                    96 -1.013979459404554E-004
                    97  9.297907508615732E-005
                    98 -2.196531291305286E-004
                    99 -3.230774338809395E-006
                   100  6.945433897387059E-006
                   101 -5.453854427160765E-004
                   102  1.452742072277016E-004
                   103 -4.952727530612244E-005
                   104  1.813875610957278E-003
                   105 -8.901143114963802E-006
                   106 -2.092662977199847E-005
                   107 -6.963295470618655E-006
                   108 -3.275308447471278E-005
                   109 -3.198848498869936E-006
                   110 -4.125081981856975E-004
                   111  4.737068665204358E-004
                   112  7.525665648134693E-006
                   113  7.542824361079983E-004
                   114 -4.791852198585650E-006
                   115 -5.315252512468264E-005
                   116  1.085148711256006E-004
                   117 -2.979675873155464E-006
                   118  1.654033651335306E-005
                   119  4.946217580136877E-006
                   120 -3.036295951736018E-005
                   121  5.619888726859479E-006
                   122 -6.976487124367768E-005
                   123 -6.804462635973090E-004
                   124  2.476751682592611E-004
                   125 -3.005362045286200E-004
                   126 -2.291092873924671E-004
                   127  2.576775551518887E-005
                   128 -3.981429166032800E-005
                   129  5.926482494498580E-004
                   130 -2.695569835174790E-006
                   131  3.799390144064456E-005
                   132  5.775324214447869E-004
                   133  8.836042468714609E-006
                   134  3.173976012615788E-004
                   135 -9.466902726987350E-008
                   136  4.284298954294035E-005
                   137  2.214527948447235E-007
                   138 -3.382101219672826E-005
                   139 -9.755008981287440E-007
                   140  1.844297400020849E-004
                   141 -2.526653083610300E-004
                   142  5.633750842444811E-006
                   143 -2.595977828844722E-004
                   144 -1.066708169258993E-006
                   145 -1.887386308704013E-005
                   146  1.374198793621233E-005
                   147 -1.701407560584348E-007
                   148 -1.293959291454805E-005
                   149 -2.725612442724292E-006
                   150 -2.625016203349072E-005
                   151 -4.608141011163132E-007
                   152 -3.629463587861693E-005
                   153 -6.841315707293147E-004
                   154  2.469754296717077E-004
                   155 -3.107046468240413E-004
                   156 -2.229681125828485E-004
                   157  1.886174474166820E-005
                   158  3.852095647397646E-005
                   159  5.971358773299070E-004
                   160  7.461552149094449E-006