[Molden Format]
[Atoms] AU
  N     1    7    -4.4628772100    0.2302805100   -0.0145248300        
  C     2    6    -1.7593735900   -0.0181692200   -0.0199630500        
  C     3    6    -0.4167645700    0.0147766100   -2.2857302900        
  C     4    6    -0.4362484900   -0.0375958000    2.2539348400        
  C     5    6     2.1921043600    0.0096949500   -2.2578425400        
  C     6    6     2.1801347400   -0.0133110400    2.2546892600        
  C     7    6     3.5057839000    0.0021624100    0.0065544200        
  H     8    1    -5.3481984300   -1.4490147500   -1.8572024700        
  H     9    1    -5.1571865000   -0.6892831000    1.5656011100        
  H    10    1    -1.4201473400    0.0487352500   -4.0463261900        
  H    11    1    -1.4476813500   -0.0704769900    4.0123266700        
  H    12    1     3.2079994200    0.0221273900   -4.0148725600        
  H    13    1     3.1771975800   -0.0253445600    4.0223672300        
  H    14    1     5.5343259400    0.0037291000    0.0123088800        
[5D]
[7F]
[GTO]
  1  0
   s    12 1.00
  0.114200D+05  0.172695D-04
  0.171200D+04  0.134411D-03
  0.389300D+03  0.694561D-03
  0.110000D+03  0.278531D-02
  0.355700D+02  0.863457D-02
  0.125400D+02  0.199805D-01
  0.464400D+01  0.262908D-01
  0.129300D+01 -0.243845D-01
  0.511800D+00 -0.924934D-01
  0.178700D+00 -0.339683D+00
  0.246240D-01  0.345111D+00
  0.112530D-01  0.752750D+00
   s    10 1.00
  0.114200D+05  0.523000D-03
  0.171200D+04  0.404500D-02
  0.389300D+03  0.207750D-01
  0.110000D+03  0.807269D-01
  0.355700D+02  0.233074D+00
  0.125400D+02  0.433501D+00
  0.464400D+01  0.347472D+00
  0.129300D+01  0.412620D-01
  0.511800D+00 -0.850799D-02
  0.178700D+00  0.238400D-02
   s    10 1.00
  0.114200D+05 -0.115000D-03
  0.171200D+04 -0.895000D-03
  0.389300D+03 -0.462400D-02
  0.110000D+03 -0.185280D-01
  0.355700D+02 -0.573390D-01
  0.125400D+02 -0.132076D+00
  0.464400D+01 -0.172510D+00
  0.129300D+01  0.151814D+00
  0.511800D+00  0.599944D+00
  0.178700D+00  0.387462D+00
   s     1 1.00
  0.129300D+01  0.100000D+01
   s     1 1.00
  0.178700D+00  0.100000D+01
   p     5 1.00
  0.266300D+02  0.146700D-01
  0.594800D+01  0.917640D-01
  0.174200D+01  0.298683D+00
  0.555000D+00  0.498487D+00
  0.172500D+00  0.337023D+00
   p     1 1.00
  0.174200D+01  0.100000D+01
   p     1 1.00
  0.555000D+00  0.100000D+01
   d     1 1.00
  0.165400D+01  0.100000D+01
   d     1 1.00
  0.469000D+00  0.100000D+01
   f     1 1.00
  0.109300D+01  0.100000D+01
  
  2  0
   s    10 1.00
  0.823600D+04  0.531000D-03
  0.123500D+04  0.410800D-02
  0.280800D+03  0.210870D-01
  0.792700D+02  0.818530D-01
  0.255900D+02  0.234817D+00
  0.899700D+01  0.434401D+00
  0.331900D+01  0.346129D+00
  0.905900D+00  0.393780D-01
  0.364300D+00 -0.898300D-02
  0.128500D+00  0.238500D-02
   s    10 1.00
  0.823600D+04 -0.113000D-03
  0.123500D+04 -0.878000D-03
  0.280800D+03 -0.454000D-02
  0.792700D+02 -0.181330D-01
  0.255900D+02 -0.557600D-01
  0.899700D+01 -0.126895D+00
  0.331900D+01 -0.170352D+00
  0.905900D+00  0.140382D+00
  0.364300D+00  0.598684D+00
  0.128500D+00  0.395389D+00
   s     1 1.00
  0.905900D+00  0.100000D+01
   s     1 1.00
  0.364300D+00  0.100000D+01
   p     5 1.00
  0.187100D+02  0.140310D-01
  0.413300D+01  0.868660D-01
  0.120000D+01  0.290216D+00
  0.382700D+00  0.501008D+00
  0.120900D+00  0.343406D+00
   p     1 1.00
  0.382700D+00  0.100000D+01
   p     1 1.00
  0.120900D+00  0.100000D+01
   d     1 1.00
  0.109700D+01  0.100000D+01
   d     1 1.00
  0.318000D+00  0.100000D+01
   f     1 1.00
  0.761000D+00  0.100000D+01
  
  3  0
   s    10 1.00
  0.823600D+04  0.531000D-03
  0.123500D+04  0.410800D-02
  0.280800D+03  0.210870D-01
  0.792700D+02  0.818530D-01
  0.255900D+02  0.234817D+00
  0.899700D+01  0.434401D+00
  0.331900D+01  0.346129D+00
  0.905900D+00  0.393780D-01
  0.364300D+00 -0.898300D-02
  0.128500D+00  0.238500D-02
   s    10 1.00
  0.823600D+04 -0.113000D-03
  0.123500D+04 -0.878000D-03
  0.280800D+03 -0.454000D-02
  0.792700D+02 -0.181330D-01
  0.255900D+02 -0.557600D-01
  0.899700D+01 -0.126895D+00
  0.331900D+01 -0.170352D+00
  0.905900D+00  0.140382D+00
  0.364300D+00  0.598684D+00
  0.128500D+00  0.395389D+00
   s     1 1.00
  0.905900D+00  0.100000D+01
   s     1 1.00
  0.364300D+00  0.100000D+01
   p     5 1.00
  0.187100D+02  0.140310D-01
  0.413300D+01  0.868660D-01
  0.120000D+01  0.290216D+00
  0.382700D+00  0.501008D+00
  0.120900D+00  0.343406D+00
   p     1 1.00
  0.382700D+00  0.100000D+01
   p     1 1.00
  0.120900D+00  0.100000D+01
   d     1 1.00
  0.109700D+01  0.100000D+01
   d     1 1.00
  0.318000D+00  0.100000D+01
   f     1 1.00
  0.761000D+00  0.100000D+01
  
  4  0
   s    10 1.00
  0.823600D+04  0.531000D-03
  0.123500D+04  0.410800D-02
  0.280800D+03  0.210870D-01
  0.792700D+02  0.818530D-01
  0.255900D+02  0.234817D+00
  0.899700D+01  0.434401D+00
  0.331900D+01  0.346129D+00
  0.905900D+00  0.393780D-01
  0.364300D+00 -0.898300D-02
  0.128500D+00  0.238500D-02
   s    10 1.00
  0.823600D+04 -0.113000D-03
  0.123500D+04 -0.878000D-03
  0.280800D+03 -0.454000D-02
  0.792700D+02 -0.181330D-01
  0.255900D+02 -0.557600D-01
  0.899700D+01 -0.126895D+00
  0.331900D+01 -0.170352D+00
  0.905900D+00  0.140382D+00
  0.364300D+00  0.598684D+00
  0.128500D+00  0.395389D+00
   s     1 1.00
  0.905900D+00  0.100000D+01
   s     1 1.00
  0.364300D+00  0.100000D+01
   p     5 1.00
  0.187100D+02  0.140310D-01
  0.413300D+01  0.868660D-01
  0.120000D+01  0.290216D+00
  0.382700D+00  0.501008D+00
  0.120900D+00  0.343406D+00
   p     1 1.00
  0.382700D+00  0.100000D+01
   p     1 1.00
  0.120900D+00  0.100000D+01
   d     1 1.00
  0.109700D+01  0.100000D+01
   d     1 1.00
  0.318000D+00  0.100000D+01
   f     1 1.00
  0.761000D+00  0.100000D+01
  
  5  0
   s    10 1.00
  0.823600D+04  0.531000D-03
  0.123500D+04  0.410800D-02
  0.280800D+03  0.210870D-01
  0.792700D+02  0.818530D-01
  0.255900D+02  0.234817D+00
  0.899700D+01  0.434401D+00
  0.331900D+01  0.346129D+00
  0.905900D+00  0.393780D-01
  0.364300D+00 -0.898300D-02
  0.128500D+00  0.238500D-02
   s    10 1.00
  0.823600D+04 -0.113000D-03
  0.123500D+04 -0.878000D-03
  0.280800D+03 -0.454000D-02
  0.792700D+02 -0.181330D-01
  0.255900D+02 -0.557600D-01
  0.899700D+01 -0.126895D+00
  0.331900D+01 -0.170352D+00
  0.905900D+00  0.140382D+00
  0.364300D+00  0.598684D+00
  0.128500D+00  0.395389D+00
   s     1 1.00
  0.905900D+00  0.100000D+01
   s     1 1.00
  0.364300D+00  0.100000D+01
   p     5 1.00
  0.187100D+02  0.140310D-01
  0.413300D+01  0.868660D-01
  0.120000D+01  0.290216D+00
  0.382700D+00  0.501008D+00
  0.120900D+00  0.343406D+00
   p     1 1.00
  0.382700D+00  0.100000D+01
   p     1 1.00
  0.120900D+00  0.100000D+01
   d     1 1.00
  0.109700D+01  0.100000D+01
   d     1 1.00
  0.318000D+00  0.100000D+01
   f     1 1.00
  0.761000D+00  0.100000D+01
  
  6  0
   s    10 1.00
  0.823600D+04  0.531000D-03
  0.123500D+04  0.410800D-02
  0.280800D+03  0.210870D-01
  0.792700D+02  0.818530D-01
  0.255900D+02  0.234817D+00
  0.899700D+01  0.434401D+00
  0.331900D+01  0.346129D+00
  0.905900D+00  0.393780D-01
  0.364300D+00 -0.898300D-02
  0.128500D+00  0.238500D-02
   s    10 1.00
  0.823600D+04 -0.113000D-03
  0.123500D+04 -0.878000D-03
  0.280800D+03 -0.454000D-02
  0.792700D+02 -0.181330D-01
  0.255900D+02 -0.557600D-01
  0.899700D+01 -0.126895D+00
  0.331900D+01 -0.170352D+00
  0.905900D+00  0.140382D+00
  0.364300D+00  0.598684D+00
  0.128500D+00  0.395389D+00
   s     1 1.00
  0.905900D+00  0.100000D+01
   s     1 1.00
  0.364300D+00  0.100000D+01
   p     5 1.00
  0.187100D+02  0.140310D-01
  0.413300D+01  0.868660D-01
  0.120000D+01  0.290216D+00
  0.382700D+00  0.501008D+00
  0.120900D+00  0.343406D+00
   p     1 1.00
  0.382700D+00  0.100000D+01
   p     1 1.00
  0.120900D+00  0.100000D+01
   d     1 1.00
  0.109700D+01  0.100000D+01
   d     1 1.00
  0.318000D+00  0.100000D+01
   f     1 1.00
  0.761000D+00  0.100000D+01
  
  7  0
   s    10 1.00
  0.823600D+04  0.531000D-03
  0.123500D+04  0.410800D-02
  0.280800D+03  0.210870D-01
  0.792700D+02  0.818530D-01
  0.255900D+02  0.234817D+00
  0.899700D+01  0.434401D+00
  0.331900D+01  0.346129D+00
  0.905900D+00  0.393780D-01
  0.364300D+00 -0.898300D-02
  0.128500D+00  0.238500D-02
   s    10 1.00
  0.823600D+04 -0.113000D-03
  0.123500D+04 -0.878000D-03
  0.280800D+03 -0.454000D-02
  0.792700D+02 -0.181330D-01
  0.255900D+02 -0.557600D-01
  0.899700D+01 -0.126895D+00
  0.331900D+01 -0.170352D+00
  0.905900D+00  0.140382D+00
  0.364300D+00  0.598684D+00
  0.128500D+00  0.395389D+00
   s     1 1.00
  0.905900D+00  0.100000D+01
   s     1 1.00
  0.364300D+00  0.100000D+01
   p     5 1.00
  0.187100D+02  0.140310D-01
  0.413300D+01  0.868660D-01
  0.120000D+01  0.290216D+00
  0.382700D+00  0.501008D+00
  0.120900D+00  0.343406D+00
   p     1 1.00
  0.382700D+00  0.100000D+01
   p     1 1.00
  0.120900D+00  0.100000D+01
   d     1 1.00
  0.109700D+01  0.100000D+01
   d     1 1.00
  0.318000D+00  0.100000D+01
   f     1 1.00
  0.761000D+00  0.100000D+01
  
  8  0
   s     4 1.00
  0.130100D+02  0.196850D-01
  0.196200D+01  0.137977D+00
  0.444600D+00  0.478148D+00
  0.122000D+00  0.501240D+00
   s     1 1.00
  0.122000D+00  0.100000D+01
   p     1 1.00
  0.727000D+00  0.100000D+01
  
  9  0
   s     4 1.00
  0.130100D+02  0.196850D-01
  0.196200D+01  0.137977D+00
  0.444600D+00  0.478148D+00
  0.122000D+00  0.501240D+00
   s     1 1.00
  0.122000D+00  0.100000D+01
   p     1 1.00
  0.727000D+00  0.100000D+01
  
 10  0
   s     4 1.00
  0.130100D+02  0.196850D-01
  0.196200D+01  0.137977D+00
  0.444600D+00  0.478148D+00
  0.122000D+00  0.501240D+00
   s     1 1.00
  0.122000D+00  0.100000D+01
   p     1 1.00
  0.727000D+00  0.100000D+01
  
 11  0
   s     4 1.00
  0.130100D+02  0.196850D-01
  0.196200D+01  0.137977D+00
  0.444600D+00  0.478148D+00
  0.122000D+00  0.501240D+00
   s     1 1.00
  0.122000D+00  0.100000D+01
   p     1 1.00
  0.727000D+00  0.100000D+01
  
 12  0
   s     4 1.00
  0.130100D+02  0.196850D-01
  0.196200D+01  0.137977D+00
  0.444600D+00  0.478148D+00
  0.122000D+00  0.501240D+00
   s     1 1.00
  0.122000D+00  0.100000D+01
   p     1 1.00
  0.727000D+00  0.100000D+01
  
 13  0
   s     4 1.00
  0.130100D+02  0.196850D-01
  0.196200D+01  0.137977D+00
  0.444600D+00  0.478148D+00
  0.122000D+00  0.501240D+00
   s     1 1.00
  0.122000D+00  0.100000D+01
   p     1 1.00
  0.727000D+00  0.100000D+01
  
 14  0
   s     4 1.00
  0.130100D+02  0.196850D-01
  0.196200D+01  0.137977D+00
  0.444600D+00  0.478148D+00
  0.122000D+00  0.501240D+00
   s     1 1.00
  0.122000D+00  0.100000D+01
   p     1 1.00
  0.727000D+00  0.100000D+01
  
[MO]
 Sym= __1_a__
 Ene=  0.000000000000000E+000
 Spin= Alpha
 Occup=    2.00000000000000     
                     1  2.144076429582520E-004
                     2  0.998443657791796     
                     3 -2.300934368709220E-003
                     4  1.525548422063060E-003
                     5  7.363733281510980E-003
                     6  6.625033628971500E-003
                     7 -4.911898876012920E-003
                     8  1.569414963630430E-003
                     9 -1.099319390480830E-003
                    10  5.633278784982039E-004
                    11 -2.726324773019930E-004
                    12 -2.439283326971680E-003
                    13  3.292697513047700E-003
                    14 -1.343448469997050E-003
                    15 -4.171413268745584E-005
                    16 -4.575415955764100E-005
                    17 -5.446290565714780E-005
                    18  5.960199005390160E-005
                    19  1.268503299928550E-005
                    20 -2.785946607190725E-004
                    21  2.077371269642140E-004
                    22 -7.425188055834500E-006
                    23  7.744610863602860E-005
                    24 -4.308935392043080E-004
                    25  3.533494757312724E-006
                    26 -9.357376474019555E-005
                    27 -2.530209562051292E-005
                    28 -8.254170294765259E-006
                    29  6.366833992206480E-006
                    30 -5.893863315851867E-005
                    31 -5.484619362814447E-005
                    32 -3.526089250828100E-004
                    33  9.015878855513140E-005
                    34  3.022956561338020E-004
                    35 -1.254139483835190E-004
                    36 -2.374827541108570E-003
                    37 -1.855951169546880E-004
                    38 -8.300806087115699E-005
                    39  9.215333465386909E-005
                    40  5.299270114856250E-006
                    41  3.082862796358100E-004
                    42  5.165848767761380E-003
                    43  5.819551732297590E-004
                    44 -1.274937073905340E-003
                    45 -1.554463511977419E-004
                    46  4.554763663387880E-006
                    47  7.499070877885430E-006
                    48  1.451488521483154E-004
                    49  3.415838899793660E-005
                    50  5.079857115535643E-004
                    51  2.944042772991610E-004
                    52 -4.023782486280230E-005
                    53 -1.846447981488438E-004
                    54 -3.363664117344680E-004
                    55  5.975074566872142E-007
                    56 -4.523398442550011E-005
                    57  6.568790447086911E-006
                    58  1.250317259210694E-005
                    59 -1.074909956493370E-006
                    60 -4.380280494610400E-005
                    61  3.232359846887666E-005
                    62 -5.348992331499330E-004
                    63 -1.992853332761750E-003
                    64  4.703645629813890E-005
                    65  1.573816402922210E-003
                    66  9.614968925331681E-005
                    67 -1.918574475236790E-004
                    68 -3.607597287651620E-004
                    69  6.922493779176240E-004
                    70  4.543242146868480E-005
                    71  3.387093176268440E-004
                    72  2.425803956828690E-004
                    73 -2.205357313782970E-004
                    74 -1.411418644506360E-003
                    75 -4.799721479142410E-005
                    76 -2.647182445418340E-005
                    77  9.950852341414360E-006
                    78  6.685604288371159E-005
                    79 -7.976065443041539E-006
                    80  2.867475895049496E-004
                    81  1.560975382762220E-004
                    82 -2.984227737775110E-005
                    83 -1.070229075022896E-004
                    84  5.815047727497900E-005
                    85 -1.858044761583326E-005
                    86 -8.507486506349450E-005
                    87  1.650824061394766E-005
                    88 -8.080778438421960E-007
                    89  1.721866050183870E-005
                    90 -5.377598282443701E-005
                    91 -1.232090385351480E-005
                    92 -3.071059402226380E-004
                    93 -1.201776398945160E-003
                    94  1.796244943711230E-004
                    95  3.229061281444890E-004
                    96  1.345554000744290E-004
                    97 -2.178217370842910E-004
                    98  2.825443517553300E-004
                    99  4.962730213949489E-004
                   100  1.176366541753520E-004
                   101  6.953199981710671E-005
                   102 -1.244784226729700E-003
                   103 -3.109586568791830E-004
                   104  7.246770282459090E-004
                   105 -5.044638145474088E-005
                   106  4.106196483436360E-006
                   107 -1.154586237712740E-005
                   108  4.893450648519380E-005
                   109 -1.464979833919290E-005
                   110  1.346215694812628E-004
                   111 -1.400334552419290E-004
                   112  1.023808999084370E-005
                   113 -1.942556230372476E-004
                   114  7.845463580847930E-005
                   115  1.323680359975866E-005
                   116 -2.585275472110388E-005
                   117  1.706522587608324E-005
                   118  1.295413451941542E-005
                   119 -1.160481152087400E-005
                   120 -3.428696698529909E-005
                   121 -1.019571557210619E-005
                   122 -2.800309321618950E-004
                   123 -7.736540310987600E-004
                   124  6.911407224780000E-005
                   125  8.455378637844360E-004
                   126 -2.740814112214000E-004
                   127 -1.006859525513780E-004
                   128 -1.428004450389570E-005
                   129  3.299341275453700E-004
                   130 -2.806926625536410E-005
                   131  1.243143538963490E-004
                   132  1.664899535207690E-003
                   133  1.227713226937400E-004
                   134  9.978048731315959E-006
                   135  1.799795879713429E-005
                   136 -1.972552031196800E-006
                   137 -6.063229680217760E-006
                   138 -6.018960386258280E-006
                   139  8.563238746957501E-006
                   140  1.473635823847084E-004
                   141  2.516581177983870E-004
                   142  1.017295530132420E-005
                   143 -2.702205866159300E-004
                   144 -2.508245075648140E-006
                   145 -2.229877188236439E-005
                   146 -1.843907317114837E-005
                   147  1.991767081639228E-006
                   148 -7.456816481892760E-006
                   149 -4.467917064273430E-007
                   150 -6.128743990981410E-005
                   151 -2.891463224801468E-006
                   152 -2.088856526205910E-004
                   153 -5.626212694841260E-004
                   154  1.578910837244100E-005
                   155  7.031189704699110E-004
                   156 -2.146017386024900E-004
                   157 -8.658406029036819E-005
                   158 -1.563629511244290E-005
                   159  4.020387221692330E-005
                   160 -5.062691145536730E-005
                   161  4.392022447195290E-005
                   162  1.873260804056410E-004
                   163  1.484286221918970E-004
                   164  6.126990963944030E-004
                   165 -7.086324920861983E-008
                   166  6.012143068671680E-006
                   167  5.721647053578110E-006
                   168  7.175214398307960E-006
                   169  1.160013815134130E-005
                   170  1.752128908604764E-005
                   171 -1.135110245365180E-004
                   172 -9.733960649008641E-006
                   173 -1.225673405120562E-004
                   174  4.182128783154970E-006
                   175  1.487840031280160E-007
                   176 -1.313186547462384E-005
                   177  4.206580363636253E-006
                   178 -4.375342836796480E-006
                   179 -8.543585400728590E-007
                   180 -3.395690636580347E-005
                   181 -6.394756797829842E-006
                   182 -1.556420540699320E-004
                   183 -4.826175080224430E-004
                   184  3.820410350194150E-005
                   185  2.155916192186690E-004
                   186 -3.057233035033140E-005
                   187 -8.318680444466089E-005
                   188 -2.765979766926070E-005
                   189  1.197681706383310E-004
                   190  1.041007653216330E-005
                   191  1.464486247797290E-004
                   192 -4.589239209731710E-004
                   193 -8.910788194531950E-005
                   194  8.139875702054250E-004
                   195 -3.609074147330390E-006
                   196  1.184043584773210E-006
                   197  1.597534468107630E-006
                   198  4.815148957729260E-007
                   199  3.151053852362150E-007
                   200 -1.255554972052683E-004
                   201 -1.177593416431360E-004
                   202 -4.201132189206840E-006
                   203  5.627050905482260E-005
                   204  1.673914366719030E-005
                   205  2.949581956482238E-006
                   206  5.796017880622225E-006
                   207  1.156425768422240E-006
                   208  9.505498247050039E-006
                   209  1.442600888069480E-008
                   210 -5.875184175770206E-006
                   211 -3.146188346086617E-006
                   212 -1.084339385941010E-004
                   213 -2.496113989360370E-004
                   214  4.698962110818340E-005
                   215  1.775799621152390E-004
                   216  5.391020588533960E-005
                   217  2.266141012110550E-004
                   218 -1.158789836319070E-003
                   219  8.302960891491130E-005
                   220  2.304190703665450E-004
                   221 -2.314464334726950E-004
                   222 -3.004821494426870E-004
                   223 -5.496213683286130E-004
                   224 -7.709890669801630E-005
                   225  7.756706451336010E-006
                   226  5.648171418154060E-005
                   227 -1.927572236012910E-004
                   228 -5.309427578220300E-004
                   229 -4.999430478644050E-005
                   230  1.328668578458620E-005
                   231 -6.616751621642370E-005
                   232  1.281216492037320E-005
                   233 -5.839035582060080E-004
                   234  1.821063129309630E-006
                   235 -9.905178527942590E-007
                   236 -2.825477383940330E-006
                   237 -3.149928336878980E-005
                   238 -4.560308363195180E-004
                   239  8.086672236449241E-006
                   240 -2.786241544571550E-006
                   241  8.793199689318810E-006
                   242 -4.269371215543980E-005
                   243  1.465635477691080E-004
                   244  3.439730520556210E-005
                   245  1.775037036929040E-006
                   246 -3.847257669101240E-007
 Sym= __2_a__
 Ene=  0.000000000000000E+000
 Spin= Alpha
 Occup=    2.00000000000000     
                     1 -2.153413223402650E-005
                     2 -1.369221638003800E-004
                     3  2.259773701295400E-003
                     4 -1.943518715675030E-006
                     5  1.143116940870820E-003
                     6  1.956345356950330E-003
                     7 -9.150132137374020E-005
                     8 -2.261012065922570E-004
                     9 -1.303228039792970E-004
                    10  1.323267041195320E-004
                    11 -2.279642819856470E-005
                    12  6.997539651878250E-005
                    13  9.008639590411840E-005
                    14  3.238337747821410E-005
                    15 -6.763514248217216E-005
                    16  5.498954408653590E-007
                    17  6.594739291864809E-007
                    18  4.700112370412080E-005
                    19 -1.062549836060270E-005
                    20  9.037873487027276E-005
                    21  2.377864645125990E-005
                    22  4.682900256396750E-006
                    23  1.174990252759248E-004
                    24 -3.242748392723700E-005
                    25 -1.055806966091534E-005
                    26  1.356673104879273E-004
                    27 -4.639663446950631E-005
                    28  1.251181861424798E-006
                    29 -4.493792202025010E-006
                    30  1.082095133753646E-004
                    31  3.962724154371475E-005
                    32   1.00088783452742     
                    33  8.843381098463559E-003
                    34  2.822581954410730E-003
                    35 -8.345508662379000E-003
                    36 -2.358483084528770E-003
                    37  6.248565759796710E-004
                    38  3.498077037329060E-005
                    39  7.735223835703840E-004
                    40 -2.484033913576310E-004
                    41 -1.204032415405800E-005
                    42  3.261360948870270E-003
                    43 -1.435908634003260E-004
                    44 -1.005062806027310E-005
                    45  2.964856379304558E-004
                    46 -5.851713097782230E-006
                    47 -9.326475183659360E-006
                    48  3.945032559475100E-004
                    49 -3.437124609860330E-005
                    50 -1.069220119262773E-003
                    51  5.598902463503830E-005
                    52  2.690219553078560E-005
                    53 -9.504335851026580E-005
                    54  5.982400063944450E-005
                    55  2.527586222918619E-006
                    56  2.934405779413059E-004
                    57 -1.099068166037374E-005
                    58 -3.653832074636840E-007
                    59 -4.777197784068000E-006
                    60  8.581655428489449E-005
                    61  2.025753343305550E-005
                    62  1.416963985320100E-002
                    63 -1.872922877917980E-003
                    64 -3.176335811211280E-004
                    65  3.193808326329690E-003
                    66 -9.264578485934169E-005
                    67  8.694472086570030E-005
                    68  2.203012561917010E-004
                    69  6.891188435698760E-007
                    70 -9.038351322881660E-006
                    71  5.772045325944040E-004
                    72  1.597437022589860E-004
                    73 -1.507192775155050E-005
                    74 -1.764829166593320E-003
                    75 -1.032817661952802E-005
                    76  1.895920727106930E-005
                    77  8.600330489171280E-006
                    78 -3.063204134692160E-005
                    79 -3.410751130659460E-006
                    80 -3.835328012472170E-004
                    81 -4.554728695478040E-004
                    82 -7.047965073109050E-006
                    83  7.424225455672540E-004
                    84 -3.565318674255330E-006
                    85  4.778215567982852E-005
                    86  1.069598910341106E-004
                    87  7.995359119008464E-007
                    88 -1.989070239122246E-005
                    89 -9.921665783258650E-006
                    90 -3.119579644077209E-005
                    91  4.571216487905244E-006
                    92  1.621012183706880E-002
                    93 -1.825999248871660E-003
                    94 -3.069915667242480E-004
                    95  3.122765285131950E-003
                    96 -1.013979436720130E-004
                    97  9.297907505218860E-005
                    98 -2.196531323642230E-004
                    99 -3.230774326579580E-006
                   100  6.945433936373520E-006
                   101 -5.453854411655220E-004
                   102  1.452742075976610E-004
                   103 -4.952727528444360E-005
                   104  1.813875610684960E-003
                   105 -8.901143103162895E-006
                   106 -2.092662961431390E-005
                   107 -6.963295473475400E-006
                   108 -3.275308408144660E-005
                   109 -3.198848494219680E-006
                   110 -4.125081978878506E-004
                   111  4.737068652028200E-004
                   112  7.525665629673420E-006
                   113  7.542824353319560E-004
                   114 -4.791852206344490E-006
                   115 -5.315252517640809E-005
                   116  1.085148708467916E-004
                   117 -2.979675875501459E-006
                   118  1.654033657112946E-005
                   119  4.946217586747840E-006
                   120 -3.036295958374746E-005
                   121  5.619888728904367E-006
                   122 -6.976482995755100E-005
                   123 -6.804462631470430E-004
                   124  2.476751678229400E-004
                   125 -3.005362004154940E-004
                   126 -2.291092918744260E-004
                   127  2.576775550991060E-005
                   128 -3.981429147456230E-005
                   129  5.926482488416551E-004
                   130 -2.695569830725220E-006
                   131  3.799390157838940E-005
                   132  5.775324234079910E-004
                   133  8.836042478820300E-006
                   134  3.173976003226990E-004
                   135 -9.466912641511783E-008
                   136  4.284298951122510E-005
                   137  2.214527965870730E-007
                   138 -3.382101210737040E-005
                   139 -9.755008954675410E-007
                   140  1.844297400442593E-004
                   141 -2.526653074304670E-004
                   142  5.633750834246000E-006
                   143 -2.595977822204980E-004
                   144 -1.066708177013780E-006
                   145 -1.887386309847472E-005
                   146  1.374198790393495E-005
                   147 -1.701407561466281E-007
                   148 -1.293959287493830E-005
                   149 -2.725612442169890E-006
                   150 -2.625016211785085E-005
                   151 -4.608141023964592E-007
                   152 -3.629460413974620E-005
                   153 -6.841315722270700E-004
                   154  2.469754293750320E-004
                   155 -3.107046433995930E-004
                   156 -2.229681153091860E-004
                   157  1.886174475141250E-005
                   158  3.852095609641800E-005
                   159  5.971358769366320E-004
                   160  7.461552142651800E-006