[Molden Format]
[Atoms] AU
  N     1    7    -4.4674115400    0.1299480000   -0.1665715900        
  C     2    6    -1.7686164300   -0.0226762900   -0.0734940700        
  C     3    6    -0.3952292700    0.0747027300   -2.3230626000        
  C     4    6    -0.4608559900   -0.0927623400    2.2087564000        
  C     5    6     2.2155522100    0.0583120800   -2.2755279500        
  C     6    6     2.1596792700   -0.0638077700    2.2373418100        
  C     7    6     3.5102109800    0.0003659000    0.0025060200        
  H     8    1    -5.1854114000   -1.3826673000   -1.1414032800        
  H     9    1    -5.1659542100   -0.0040495200    1.6355539800        
  H    10    1    -1.3837254200    0.1755351000   -4.0900025600        
  H    11    1    -1.4868802500   -0.1793752800    3.9565594000        
  H    12    1     3.2461690500    0.1192374900   -4.0223389300        
  H    13    1     3.1376234500   -0.1123958300    4.0146955700        
  H    14    1     5.5381932100    0.0078400300    0.0285142100        
[5D]
[7F]
[GTO]
  1  0
   s    12 1.00
  0.114200D+05  0.172695D-04
  0.171200D+04  0.134411D-03
  0.389300D+03  0.694561D-03
  0.110000D+03  0.278531D-02
  0.355700D+02  0.863457D-02
  0.125400D+02  0.199805D-01
  0.464400D+01  0.262908D-01
  0.129300D+01 -0.243845D-01
  0.511800D+00 -0.924934D-01
  0.178700D+00 -0.339683D+00
  0.246240D-01  0.345111D+00
  0.112530D-01  0.752750D+00
   s    10 1.00
  0.114200D+05  0.523000D-03
  0.171200D+04  0.404500D-02
  0.389300D+03  0.207750D-01
  0.110000D+03  0.807269D-01
  0.355700D+02  0.233074D+00
  0.125400D+02  0.433501D+00
  0.464400D+01  0.347472D+00
  0.129300D+01  0.412620D-01
  0.511800D+00 -0.850799D-02
  0.178700D+00  0.238400D-02
   s    10 1.00
  0.114200D+05 -0.115000D-03
  0.171200D+04 -0.895000D-03
  0.389300D+03 -0.462400D-02
  0.110000D+03 -0.185280D-01
  0.355700D+02 -0.573390D-01
  0.125400D+02 -0.132076D+00
  0.464400D+01 -0.172510D+00
  0.129300D+01  0.151814D+00
  0.511800D+00  0.599944D+00
  0.178700D+00  0.387462D+00
   s     1 1.00
  0.129300D+01  0.100000D+01
   s     1 1.00
  0.178700D+00  0.100000D+01
   p     5 1.00
  0.266300D+02  0.146700D-01
  0.594800D+01  0.917640D-01
  0.174200D+01  0.298683D+00
  0.555000D+00  0.498487D+00
  0.172500D+00  0.337023D+00
   p     1 1.00
  0.174200D+01  0.100000D+01
   p     1 1.00
  0.555000D+00  0.100000D+01
   d     1 1.00
  0.165400D+01  0.100000D+01
   d     1 1.00
  0.469000D+00  0.100000D+01
   f     1 1.00
  0.109300D+01  0.100000D+01
  
  2  0
   s    10 1.00
  0.823600D+04  0.531000D-03
  0.123500D+04  0.410800D-02
  0.280800D+03  0.210870D-01
  0.792700D+02  0.818530D-01
  0.255900D+02  0.234817D+00
  0.899700D+01  0.434401D+00
  0.331900D+01  0.346129D+00
  0.905900D+00  0.393780D-01
  0.364300D+00 -0.898300D-02
  0.128500D+00  0.238500D-02
   s    10 1.00
  0.823600D+04 -0.113000D-03
  0.123500D+04 -0.878000D-03
  0.280800D+03 -0.454000D-02
  0.792700D+02 -0.181330D-01
  0.255900D+02 -0.557600D-01
  0.899700D+01 -0.126895D+00
  0.331900D+01 -0.170352D+00
  0.905900D+00  0.140382D+00
  0.364300D+00  0.598684D+00
  0.128500D+00  0.395389D+00
   s     1 1.00
  0.905900D+00  0.100000D+01
   s     1 1.00
  0.364300D+00  0.100000D+01
   p     5 1.00
  0.187100D+02  0.140310D-01
  0.413300D+01  0.868660D-01
  0.120000D+01  0.290216D+00
  0.382700D+00  0.501008D+00
  0.120900D+00  0.343406D+00
   p     1 1.00
  0.382700D+00  0.100000D+01
   p     1 1.00
  0.120900D+00  0.100000D+01
   d     1 1.00
  0.109700D+01  0.100000D+01
   d     1 1.00
  0.318000D+00  0.100000D+01
   f     1 1.00
  0.761000D+00  0.100000D+01
  
  3  0
   s    10 1.00
  0.823600D+04  0.531000D-03
  0.123500D+04  0.410800D-02
  0.280800D+03  0.210870D-01
  0.792700D+02  0.818530D-01
  0.255900D+02  0.234817D+00
  0.899700D+01  0.434401D+00
  0.331900D+01  0.346129D+00
  0.905900D+00  0.393780D-01
  0.364300D+00 -0.898300D-02
  0.128500D+00  0.238500D-02
   s    10 1.00
  0.823600D+04 -0.113000D-03
  0.123500D+04 -0.878000D-03
  0.280800D+03 -0.454000D-02
  0.792700D+02 -0.181330D-01
  0.255900D+02 -0.557600D-01
  0.899700D+01 -0.126895D+00
  0.331900D+01 -0.170352D+00
  0.905900D+00  0.140382D+00
  0.364300D+00  0.598684D+00
  0.128500D+00  0.395389D+00
   s     1 1.00
  0.905900D+00  0.100000D+01
   s     1 1.00
  0.364300D+00  0.100000D+01
   p     5 1.00
  0.187100D+02  0.140310D-01
  0.413300D+01  0.868660D-01
  0.120000D+01  0.290216D+00
  0.382700D+00  0.501008D+00
  0.120900D+00  0.343406D+00
   p     1 1.00
  0.382700D+00  0.100000D+01
   p     1 1.00
  0.120900D+00  0.100000D+01
   d     1 1.00
  0.109700D+01  0.100000D+01
   d     1 1.00
  0.318000D+00  0.100000D+01
   f     1 1.00
  0.761000D+00  0.100000D+01
  
  4  0
   s    10 1.00
  0.823600D+04  0.531000D-03
  0.123500D+04  0.410800D-02
  0.280800D+03  0.210870D-01
  0.792700D+02  0.818530D-01
  0.255900D+02  0.234817D+00
  0.899700D+01  0.434401D+00
  0.331900D+01  0.346129D+00
  0.905900D+00  0.393780D-01
  0.364300D+00 -0.898300D-02
  0.128500D+00  0.238500D-02
   s    10 1.00
  0.823600D+04 -0.113000D-03
  0.123500D+04 -0.878000D-03
  0.280800D+03 -0.454000D-02
  0.792700D+02 -0.181330D-01
  0.255900D+02 -0.557600D-01
  0.899700D+01 -0.126895D+00
  0.331900D+01 -0.170352D+00
  0.905900D+00  0.140382D+00
  0.364300D+00  0.598684D+00
  0.128500D+00  0.395389D+00
   s     1 1.00
  0.905900D+00  0.100000D+01
   s     1 1.00
  0.364300D+00  0.100000D+01
   p     5 1.00
  0.187100D+02  0.140310D-01
  0.413300D+01  0.868660D-01
  0.120000D+01  0.290216D+00
  0.382700D+00  0.501008D+00
  0.120900D+00  0.343406D+00
   p     1 1.00
  0.382700D+00  0.100000D+01
   p     1 1.00
  0.120900D+00  0.100000D+01
   d     1 1.00
  0.109700D+01  0.100000D+01
   d     1 1.00
  0.318000D+00  0.100000D+01
   f     1 1.00
  0.761000D+00  0.100000D+01
  
  5  0
   s    10 1.00
  0.823600D+04  0.531000D-03
  0.123500D+04  0.410800D-02
  0.280800D+03  0.210870D-01
  0.792700D+02  0.818530D-01
  0.255900D+02  0.234817D+00
  0.899700D+01  0.434401D+00
  0.331900D+01  0.346129D+00
  0.905900D+00  0.393780D-01
  0.364300D+00 -0.898300D-02
  0.128500D+00  0.238500D-02
   s    10 1.00
  0.823600D+04 -0.113000D-03
  0.123500D+04 -0.878000D-03
  0.280800D+03 -0.454000D-02
  0.792700D+02 -0.181330D-01
  0.255900D+02 -0.557600D-01
  0.899700D+01 -0.126895D+00
  0.331900D+01 -0.170352D+00
  0.905900D+00  0.140382D+00
  0.364300D+00  0.598684D+00
  0.128500D+00  0.395389D+00
   s     1 1.00
  0.905900D+00  0.100000D+01
   s     1 1.00
  0.364300D+00  0.100000D+01
   p     5 1.00
  0.187100D+02  0.140310D-01
  0.413300D+01  0.868660D-01
  0.120000D+01  0.290216D+00
  0.382700D+00  0.501008D+00
  0.120900D+00  0.343406D+00
   p     1 1.00
  0.382700D+00  0.100000D+01
   p     1 1.00
  0.120900D+00  0.100000D+01
   d     1 1.00
  0.109700D+01  0.100000D+01
   d     1 1.00
  0.318000D+00  0.100000D+01
   f     1 1.00
  0.761000D+00  0.100000D+01
  
  6  0
   s    10 1.00
  0.823600D+04  0.531000D-03
  0.123500D+04  0.410800D-02
  0.280800D+03  0.210870D-01
  0.792700D+02  0.818530D-01
  0.255900D+02  0.234817D+00
  0.899700D+01  0.434401D+00
  0.331900D+01  0.346129D+00
  0.905900D+00  0.393780D-01
  0.364300D+00 -0.898300D-02
  0.128500D+00  0.238500D-02
   s    10 1.00
  0.823600D+04 -0.113000D-03
  0.123500D+04 -0.878000D-03
  0.280800D+03 -0.454000D-02
  0.792700D+02 -0.181330D-01
  0.255900D+02 -0.557600D-01
  0.899700D+01 -0.126895D+00
  0.331900D+01 -0.170352D+00
  0.905900D+00  0.140382D+00
  0.364300D+00  0.598684D+00
  0.128500D+00  0.395389D+00
   s     1 1.00
  0.905900D+00  0.100000D+01
   s     1 1.00
  0.364300D+00  0.100000D+01
   p     5 1.00
  0.187100D+02  0.140310D-01
  0.413300D+01  0.868660D-01
  0.120000D+01  0.290216D+00
  0.382700D+00  0.501008D+00
  0.120900D+00  0.343406D+00
   p     1 1.00
  0.382700D+00  0.100000D+01
   p     1 1.00
  0.120900D+00  0.100000D+01
   d     1 1.00
  0.109700D+01  0.100000D+01
   d     1 1.00
  0.318000D+00  0.100000D+01
   f     1 1.00
  0.761000D+00  0.100000D+01
  
  7  0
   s    10 1.00
  0.823600D+04  0.531000D-03
  0.123500D+04  0.410800D-02
  0.280800D+03  0.210870D-01
  0.792700D+02  0.818530D-01
  0.255900D+02  0.234817D+00
  0.899700D+01  0.434401D+00
  0.331900D+01  0.346129D+00
  0.905900D+00  0.393780D-01
  0.364300D+00 -0.898300D-02
  0.128500D+00  0.238500D-02
   s    10 1.00
  0.823600D+04 -0.113000D-03
  0.123500D+04 -0.878000D-03
  0.280800D+03 -0.454000D-02
  0.792700D+02 -0.181330D-01
  0.255900D+02 -0.557600D-01
  0.899700D+01 -0.126895D+00
  0.331900D+01 -0.170352D+00
  0.905900D+00  0.140382D+00
  0.364300D+00  0.598684D+00
  0.128500D+00  0.395389D+00
   s     1 1.00
  0.905900D+00  0.100000D+01
   s     1 1.00
  0.364300D+00  0.100000D+01
   p     5 1.00
  0.187100D+02  0.140310D-01
  0.413300D+01  0.868660D-01
  0.120000D+01  0.290216D+00
  0.382700D+00  0.501008D+00
  0.120900D+00  0.343406D+00
   p     1 1.00
  0.382700D+00  0.100000D+01
   p     1 1.00
  0.120900D+00  0.100000D+01
   d     1 1.00
  0.109700D+01  0.100000D+01
   d     1 1.00
  0.318000D+00  0.100000D+01
   f     1 1.00
  0.761000D+00  0.100000D+01
  
  8  0
   s     4 1.00
  0.130100D+02  0.196850D-01
  0.196200D+01  0.137977D+00
  0.444600D+00  0.478148D+00
  0.122000D+00  0.501240D+00
   s     1 1.00
  0.122000D+00  0.100000D+01
   p     1 1.00
  0.727000D+00  0.100000D+01
  
  9  0
   s     4 1.00
  0.130100D+02  0.196850D-01
  0.196200D+01  0.137977D+00
  0.444600D+00  0.478148D+00
  0.122000D+00  0.501240D+00
   s     1 1.00
  0.122000D+00  0.100000D+01
   p     1 1.00
  0.727000D+00  0.100000D+01
  
 10  0
   s     4 1.00
  0.130100D+02  0.196850D-01
  0.196200D+01  0.137977D+00
  0.444600D+00  0.478148D+00
  0.122000D+00  0.501240D+00
   s     1 1.00
  0.122000D+00  0.100000D+01
   p     1 1.00
  0.727000D+00  0.100000D+01
  
 11  0
   s     4 1.00
  0.130100D+02  0.196850D-01
  0.196200D+01  0.137977D+00
  0.444600D+00  0.478148D+00
  0.122000D+00  0.501240D+00
   s     1 1.00
  0.122000D+00  0.100000D+01
   p     1 1.00
  0.727000D+00  0.100000D+01
  
 12  0
   s     4 1.00
  0.130100D+02  0.196850D-01
  0.196200D+01  0.137977D+00
  0.444600D+00  0.478148D+00
  0.122000D+00  0.501240D+00
   s     1 1.00
  0.122000D+00  0.100000D+01
   p     1 1.00
  0.727000D+00  0.100000D+01
  
 13  0
   s     4 1.00
  0.130100D+02  0.196850D-01
  0.196200D+01  0.137977D+00
  0.444600D+00  0.478148D+00
  0.122000D+00  0.501240D+00
   s     1 1.00
  0.122000D+00  0.100000D+01
   p     1 1.00
  0.727000D+00  0.100000D+01
  
 14  0
   s     4 1.00
  0.130100D+02  0.196850D-01
  0.196200D+01  0.137977D+00
  0.444600D+00  0.478148D+00
  0.122000D+00  0.501240D+00
   s     1 1.00
  0.122000D+00  0.100000D+01
   p     1 1.00
  0.727000D+00  0.100000D+01
  
[MO]
 Sym= __1_A__
 Ene=   1.00000000000000     
 Spin= Alpha
 Occup=    1.00000000000000     
                     1  2.303226914184272E-004
                     2  0.998080053059766     
                     3  2.589258277705950E-003
                     4  1.928659099403174E-003
                     5  5.926438662718004E-003
                     6  5.662673444294995E-003
                     7 -4.460809218115941E-003
                     8  2.973472641097526E-003
                     9 -8.226678193758970E-004
                    10  2.783095756977003E-004
                    11 -3.456514999850010E-004
                    12 -1.547433818954199E-003
                    13  2.920969880235748E-003
                    14 -1.773112808103018E-003
                    15 -6.750058972260841E-006
                    16 -4.587319565135627E-005
                    17 -7.461616615887229E-006
                    18  5.955759796093126E-005
                    19  5.435147634320191E-005
                    20 -3.068144527009649E-004
                    21  3.355470091687225E-004
                    22 -1.631090730482587E-004
                    23  9.212017307595954E-005
                    24 -4.314917618256607E-004
                    25 -5.226511605436746E-005
                    26 -1.235002170882639E-004
                    27 -4.084177095810683E-006
                    28  6.278595927431001E-005
                    29 -2.137602108196167E-005
                    30 -1.047760999337404E-004
                    31 -3.238984358886411E-005
                    32 -3.667606005418939E-004
                    33  8.047335207515759E-004
                    34  2.461687352360462E-004
                    35 -8.983642172619109E-005
                    36 -3.993072597990323E-003
                    37 -8.580669758197890E-005
                    38 -1.709816844358365E-004
                    39  2.092252747330114E-004
                    40 -3.655150310574384E-005
                    41  5.264054931481188E-004
                    42  4.814874446404263E-003
                    43  7.716451345083828E-004
                    44 -2.375728882695593E-003
                    45 -2.074590739679752E-004
                    46  2.403054294217838E-005
                    47  7.981026556827160E-006
                    48  1.967866965930905E-004
                    49  4.596111336297100E-005
                    50  4.955142361094164E-004
                    51  4.073872775206288E-004
                    52 -5.495648176362047E-005
                    53 -8.366088036158782E-005
                    54 -3.428361324715130E-004
                    55  2.660491480919688E-005
                    56 -5.418739960709454E-005
                    57  4.194285054967496E-006
                    58  2.210345128278596E-005
                    59  2.188505502191540E-006
                    60 -3.440321711577632E-005
                    61  2.980480969996466E-005
                    62 -5.844733236422271E-004
                    63 -2.452664823263368E-003
                    64  2.156788317348777E-006
                    65  1.907026398667550E-003
                    66  4.100163446669500E-004
                    67 -1.059473910993829E-004
                    68 -6.038002326980279E-004
                    69  8.166707325576757E-004
                    70  5.622418860849762E-005
                    71  4.150514572796893E-004
                    72  1.002783792370360E-003
                    73 -2.493740317345262E-004
                    74 -1.346359125702235E-003
                    75 -7.072731901604526E-005
                    76 -2.444163228525932E-005
                    77  1.791484513550003E-005
                    78  7.497510108329556E-005
                    79 -5.926376356629128E-006
                    80  3.257072191118979E-004
                    81  1.921417599712735E-004
                    82 -4.779647526915309E-005
                    83 -5.712518442881732E-005
                    84  2.704319943750299E-005
                    85 -1.817251458583116E-005
                    86 -1.110224426475823E-004
                    87  1.897717623336584E-005
                    88 -3.466779990006656E-007
                    89  1.323425644508394E-005
                    90 -6.556935481975007E-005
                    91 -1.122067908192454E-005
                    92 -1.346786996170297E-004
                    93 -9.816562489112469E-004
                    94  2.051997916482830E-004
                    95 -2.789952999247791E-004
                    96  5.637044639132930E-004
                    97 -1.125400448849482E-004
                    98  4.600562945350200E-004
                    99  3.511880980885547E-004
                   100  7.875364544183084E-005
                   101  2.091232842521076E-004
                   102 -1.861475641646498E-003
                   103 -2.994851391362921E-004
                   104  2.602017802700200E-004
                   105 -6.774646921568528E-005
                   106  3.666168228314864E-006
                   107 -1.192647538667083E-005
                   108  4.643404721191022E-005
                   109 -9.111140457043360E-006
                   110  3.179156827062246E-005
                   111 -1.983567489128886E-004
                   112  1.096042894006118E-005
                   113 -2.038589461065130E-004
                   114  5.668578470500084E-005
                   115 -8.912509832695828E-006
                   116  4.275082219881062E-006
                   117  1.851697972129047E-005
                   118  1.753051660837543E-005
                   119 -1.079503966973306E-005
                   120 -2.378325160372538E-005
                   121 -7.072935943087101E-006
                   122 -2.663327579790711E-004
                   123 -5.976926230309871E-004
                   124  9.694804052763697E-005
                   125  7.415135257521980E-004
                   126 -5.147413604062194E-004
                   127 -4.526932894010561E-005
                   128 -1.240951889144736E-005
                   129  4.843983714811517E-004
                   130 -2.158934409763965E-005
                   131  1.963712556374964E-004
                   132  2.265080872635623E-003
                   133  1.259800788361280E-004
                   134  2.952977772185486E-004
                   135  2.187183727228597E-005
                   136  1.678482743404870E-006
                   137 -4.267713036905513E-006
                   138 -1.181450552310834E-005
                   139  9.317465437268519E-006
                   140  2.067985742685482E-004
                   141  3.122566715618873E-004
                   142  8.344655161028416E-006
                   143 -3.253086439315064E-004
                   144 -2.422801222792219E-005
                   145 -2.848744045949146E-005
                   146 -2.002455984461809E-005
                   147  2.576003401704433E-007
                   148 -1.020780648410574E-005
                   149 -3.369504223068125E-006
                   150 -7.092365948728306E-005
                   151 -9.843279021751726E-007
                   152 -1.418980466888332E-004
                   153 -1.933380275829470E-004
                   154 -1.279979511289790E-006
                   155  4.731655492302815E-004
                   156 -4.460954486719388E-004
                   157 -3.792217127396800E-005
                   158 -5.451153123543994E-005
                   159 -7.044343418075566E-005
                   160 -3.195314242213538E-005
                   161  1.774650787387887E-004
                   162 -5.785370524192401E-004
                   163  8.242965695330155E-005
                   164  7.949046510971222E-004
                   165 -1.200447601275089E-005
                   166  5.719255689227153E-006
                   167  2.948673145321005E-006
                   168  1.193819829747070E-005
                   169  6.659576786696351E-006
                   170 -4.914317473176707E-005
                   171 -7.613370597365947E-005
                   172  1.657614790584258E-006
                   173 -3.132860376083778E-005
                   174  2.437720155456904E-006
                   175 -5.374712700405910E-006
                   176 -8.950030592277908E-006
                   177  2.307723421428333E-006
                   178 -2.350573611629380E-006
                   179  4.319388713613846E-007
                   180 -1.614719281526072E-005
                   181 -3.591738994380377E-006
                   182 -1.390032246593536E-004
                   183 -4.304011243778847E-004
                   184  3.163522977424235E-005
                   185  1.751079461579128E-004
                   186 -1.785196387100830E-005
                   187 -3.616244456555343E-005
                   188 -6.553391774984359E-005
                   189  9.093304015463337E-005
                   190  1.058869461194406E-005
                   191  2.861276141834063E-004
                   192 -3.926979169833637E-004
                   193 -1.223600290411855E-004
                   194  1.561802840141358E-003
                   195 -8.797425973184029E-006
                   196  2.667336822905657E-006
                   197  1.080816333053094E-008
                   198  3.226173717931494E-006
                   199 -1.259430430747247E-006
                   200 -1.226994518893500E-004
                   201 -2.352325712704496E-004
                   202  4.358990603237698E-006
                   203  6.558287569279840E-005
                   204  1.875628790603092E-005
                   205  2.779562922081463E-006
                   206  1.781316034314094E-006
                   207  1.784847395007880E-006
                   208  1.861196722390240E-005
                   209 -9.304370959625849E-007
                   210 -5.151179863216637E-006
                   211 -2.571592032903875E-006
                   212  2.097586656477949E-003
                   213 -1.872175654504183E-003
                   214  1.424604881609164E-004
                   215  3.863586660713609E-004
                   216  1.594096276318054E-004
                   217  2.582092951102915E-003
                   218 -2.105676815322057E-003
                   219  1.833948691123640E-004
                   220  1.086789738542134E-004
                   221 -4.692829231683333E-004
                   222 -5.044560817252423E-004
                   223 -2.541061248587136E-004
                   224 -8.224271632714435E-005
                   225  7.518713829756534E-006
                   226  3.568362468894546E-005
                   227 -3.929428964704001E-004
                   228 -4.088411623408529E-004
                   229 -4.115265446112303E-005
                   230  1.369944051571655E-005
                   231 -4.547653556581369E-005
                   232 -5.420525043645480E-005
                   233 -6.205151700148088E-004
                   234 -1.480363248741880E-007
                   235 -1.088195395702649E-006
                   236 -1.806241256886871E-006
                   237 -1.341240500875847E-004
                   238 -3.262549177019959E-004
                   239  1.403150698030672E-005
                   240 -2.891803341560022E-006
                   241  1.740044997691138E-005
                   242  4.755829833180396E-006
                   243  1.171191286125333E-004
                   244  3.001429131804921E-005
                   245  1.760446282024437E-006
                   246  1.565909160780206E-006
 Sym= __2_A__
 Ene=   2.00000000000000     
 Spin= Alpha
 Occup=    1.00000000000000     
                     1 -1.233845638485248E-005
                     2 -8.479871488793326E-005
                     3  1.837745070480110E-003
                     4 -1.723047676832613E-005
                     5  1.218399283855933E-003
                     6  1.796623865247299E-003
                     7  1.598416308454321E-004
                     8 -1.955399575616934E-004
                     9 -1.530916693462643E-004
                    10  1.008064883476219E-004
                    11 -2.267782275021913E-005
                    12  9.519189115600137E-005
                    13  9.933164076283923E-005
                    14  5.876773551024356E-005
                    15 -6.730609160908782E-005
                    16  1.234107823929789E-005
                    17 -8.309980115629772E-006
                    18  4.304586432490872E-005
                    19 -1.646748576414473E-006
                    20  1.531142758253226E-004
                    21 -6.446507009426767E-005
                    22  3.019653585298258E-005
                    23  1.116396260967671E-004
                    24 -5.572196024189190E-005
                    25 -5.642986511119501E-005
                    26  1.335950834255471E-004
                    27 -2.343086612948177E-005
                    28 -4.663209970913788E-006
                    29 -3.376453777207289E-007
                    30  1.278899053941084E-004
                    31  3.512949281451177E-005
                    32   1.00094487916025     
                    33  8.751889681343659E-003
                    34  2.805954314202660E-003
                    35 -8.286074947769534E-003
                    36 -2.415384792320545E-003
                    37  5.903815753764160E-004
                    38  2.143178442012882E-005
                    39  1.091798713106042E-003
                    40 -2.047280840051346E-004
                    41 -1.046952889134575E-004
                    42  3.260252456778345E-003
                    43 -1.135098722184546E-004
                    44 -1.791350282519486E-004
                    45  3.006350816502845E-004
                    46  1.837143319748980E-005
                    47 -1.870773044664673E-005
                    48  3.967422289751480E-004
                    49 -1.504894609900898E-005
                    50 -1.023974396829758E-003
                    51 -1.467907665344492E-004
                    52  7.513702777838316E-005
                    53 -1.312219253344542E-004
                    54  2.178151027516875E-005
                    55 -9.971336365929611E-006
                    56  2.991006098857978E-004
                    57 -8.957355643227003E-006
                    58 -1.499906743452462E-005
                    59 -5.339618200535651E-006
                    60  7.721098632193499E-005
                    61  1.488372913507963E-005
                    62  1.301802239337511E-002
                    63 -1.840216070970381E-003
                    64 -2.900796420472163E-004
                    65  3.008124098749436E-003
                    66 -1.512295739952547E-004
                    67  8.569417068721841E-005
                    68  2.881652432351456E-004
                    69  3.278793153248139E-005
                    70 -1.416587183942711E-005
                    71  4.201819306947299E-004
                    72  3.859596692564764E-004
                    73  5.282288307245571E-005
                    74 -1.841872129934109E-003
                    75 -8.352058272636263E-006
                    76  2.598447418506009E-005
                    77  8.371487771875418E-006
                    78 -3.852491108193988E-005
                    79 -4.005282833366663E-006
                    80 -4.553448677965342E-004
                    81 -4.245136095907360E-004
                    82  1.073799492352635E-005
                    83  7.821579157871134E-004
                    84  5.562222346713173E-006
                    85  4.672911677895474E-005
                    86  1.103428944168988E-004
                    87  9.325039421700096E-006
                    88 -1.699777328798788E-005
                    89 -1.427338300806407E-005
                    90 -2.515471700325348E-005
                    91  2.827890051638937E-006
                    92  1.429420854935669E-002
                    93 -1.764100357195164E-003
                    94 -3.337313215694250E-004
                    95  3.242992836714313E-003
                    96 -1.864566080738085E-004
                    97  1.085661343120748E-004
                    98 -2.769559344599085E-004
                    99 -7.619999788549889E-006
                   100  2.625876608240557E-005
                   101 -6.184164608333284E-004
                   102  1.859017956512627E-005
                   103 -7.698111593173383E-005
                   104  1.742320703088338E-003
                   105 -3.655492552980849E-006
                   106 -1.851486968086797E-005
                   107 -4.047092384626456E-006
                   108 -3.326990863975334E-005
                   109 -3.753679482960104E-006
                   110 -3.554065801532725E-004
                   111  4.889898598566514E-004
                   112 -1.031590856084773E-005
                   113  7.175681219234602E-004
                   114 -1.245952428711024E-005
                   115 -5.155657932025616E-005
                   116  9.934757546042649E-005
                   117 -3.870749438846458E-006
                   118  1.975448580258399E-005
                   119 -1.732908973098406E-007
                   120 -3.293787521286757E-005
                   121  4.352594702860149E-006
                   122 -1.438841696276528E-004
                   123 -7.537765244932646E-004
                   124  2.427971446997922E-004
                   125 -2.747398349714769E-004
                   126 -1.808291601985362E-004
                   127  2.080756054609389E-005
                   128 -5.180545870742271E-005
                   129  6.058511555827316E-004
                   130 -9.434603266539262E-006
                   131  7.563668115382976E-005
                   132  7.118948993531314E-004
                   133 -1.136770815645626E-005
                   134  4.047224679495147E-004
                   135  2.630929789718273E-007
                   136  4.111940215400257E-005
                   137  4.849322311405862E-007
                   138 -3.263693971410996E-005
                   139 -2.481957537979141E-006
                   140  1.979988353931784E-004
                   141 -2.609916598173044E-004
                   142  1.793480207486790E-006
                   143 -2.566143219114430E-004
                   144  7.944843951315071E-006
                   145 -1.812280880260094E-005
                   146  1.543042050979426E-005
                   147 -1.094924523651334E-006
                   148 -1.127371173661673E-005
                   149 -2.859374505354395E-006
                   150 -2.273121333276358E-005
                   151  4.348182884030864E-007
                   152 -1.121139288099937E-004
                   153 -7.099592843093257E-004
                   154  2.550650033552137E-004
                   155 -3.358339619492579E-004
                   156 -1.650911144309672E-004
                   157  7.770190651566786E-006
                   158  3.427940550072941E-005
                   159  5.711893004125100E-004
                   160  7.114415460354436E-006