[Molden Format]
[Atoms] AU
  N     1    7     0.0000000000    0.0000000000   -4.2907334100        
  C     2    6     0.0000000000    0.0000000000   -1.7772236300        
  C     3    6     0.0000000000   -2.3389203600   -0.4111016300        
  C     4    6     0.0000000000    2.3389203600   -0.4111016300        
  C     5    6     0.0000000000   -2.2998668500    2.1639215300        
  C     6    6     0.0000000000    2.2998668500    2.1639215300        
  C     7    6     0.0000000000    0.0000000000    3.4755251800        
  H     8    1     0.0000000000   -1.4474705400   -5.1837012500        
  H     9    1     0.0000000000    1.4474705400   -5.1837012500        
  H    10    1     0.0000000000   -4.0745407300   -1.4447408500        
  H    11    1     0.0000000000    4.0745407300   -1.4447408500        
  H    12    1     0.0000000000   -4.0420632100    3.1963889500        
  H    13    1     0.0000000000    4.0420632100    3.1963889500        
  H    14    1     0.0000000000    0.0000000000    5.5020335600        
[5D]
[7F]
[GTO]
  1  0
   s    12 1.00
  0.114200D+05  0.172695D-04
  0.171200D+04  0.134411D-03
  0.389300D+03  0.694561D-03
  0.110000D+03  0.278531D-02
  0.355700D+02  0.863457D-02
  0.125400D+02  0.199805D-01
  0.464400D+01  0.262908D-01
  0.129300D+01 -0.243845D-01
  0.511800D+00 -0.924934D-01
  0.178700D+00 -0.339683D+00
  0.246240D-01  0.345111D+00
  0.112530D-01  0.752750D+00
   s    10 1.00
  0.114200D+05  0.523000D-03
  0.171200D+04  0.404500D-02
  0.389300D+03  0.207750D-01
  0.110000D+03  0.807269D-01
  0.355700D+02  0.233074D+00
  0.125400D+02  0.433501D+00
  0.464400D+01  0.347472D+00
  0.129300D+01  0.412620D-01
  0.511800D+00 -0.850799D-02
  0.178700D+00  0.238400D-02
   s    10 1.00
  0.114200D+05 -0.115000D-03
  0.171200D+04 -0.895000D-03
  0.389300D+03 -0.462400D-02
  0.110000D+03 -0.185280D-01
  0.355700D+02 -0.573390D-01
  0.125400D+02 -0.132076D+00
  0.464400D+01 -0.172510D+00
  0.129300D+01  0.151814D+00
  0.511800D+00  0.599944D+00
  0.178700D+00  0.387462D+00
   s     1 1.00
  0.129300D+01  0.100000D+01
   s     1 1.00
  0.178700D+00  0.100000D+01
   p     5 1.00
  0.266300D+02  0.146700D-01
  0.594800D+01  0.917640D-01
  0.174200D+01  0.298683D+00
  0.555000D+00  0.498487D+00
  0.172500D+00  0.337023D+00
   p     1 1.00
  0.174200D+01  0.100000D+01
   p     1 1.00
  0.555000D+00  0.100000D+01
   d     1 1.00
  0.165400D+01  0.100000D+01
   d     1 1.00
  0.469000D+00  0.100000D+01
   f     1 1.00
  0.109300D+01  0.100000D+01
  
  2  0
   s    10 1.00
  0.823600D+04  0.531000D-03
  0.123500D+04  0.410800D-02
  0.280800D+03  0.210870D-01
  0.792700D+02  0.818530D-01
  0.255900D+02  0.234817D+00
  0.899700D+01  0.434401D+00
  0.331900D+01  0.346129D+00
  0.905900D+00  0.393780D-01
  0.364300D+00 -0.898300D-02
  0.128500D+00  0.238500D-02
   s    10 1.00
  0.823600D+04 -0.113000D-03
  0.123500D+04 -0.878000D-03
  0.280800D+03 -0.454000D-02
  0.792700D+02 -0.181330D-01
  0.255900D+02 -0.557600D-01
  0.899700D+01 -0.126895D+00
  0.331900D+01 -0.170352D+00
  0.905900D+00  0.140382D+00
  0.364300D+00  0.598684D+00
  0.128500D+00  0.395389D+00
   s     1 1.00
  0.905900D+00  0.100000D+01
   s     1 1.00
  0.364300D+00  0.100000D+01
   p     5 1.00
  0.187100D+02  0.140310D-01
  0.413300D+01  0.868660D-01
  0.120000D+01  0.290216D+00
  0.382700D+00  0.501008D+00
  0.120900D+00  0.343406D+00
   p     1 1.00
  0.382700D+00  0.100000D+01
   p     1 1.00
  0.120900D+00  0.100000D+01
   d     1 1.00
  0.109700D+01  0.100000D+01
   d     1 1.00
  0.318000D+00  0.100000D+01
   f     1 1.00
  0.761000D+00  0.100000D+01
  
  3  0
   s    10 1.00
  0.823600D+04  0.531000D-03
  0.123500D+04  0.410800D-02
  0.280800D+03  0.210870D-01
  0.792700D+02  0.818530D-01
  0.255900D+02  0.234817D+00
  0.899700D+01  0.434401D+00
  0.331900D+01  0.346129D+00
  0.905900D+00  0.393780D-01
  0.364300D+00 -0.898300D-02
  0.128500D+00  0.238500D-02
   s    10 1.00
  0.823600D+04 -0.113000D-03
  0.123500D+04 -0.878000D-03
  0.280800D+03 -0.454000D-02
  0.792700D+02 -0.181330D-01
  0.255900D+02 -0.557600D-01
  0.899700D+01 -0.126895D+00
  0.331900D+01 -0.170352D+00
  0.905900D+00  0.140382D+00
  0.364300D+00  0.598684D+00
  0.128500D+00  0.395389D+00
   s     1 1.00
  0.905900D+00  0.100000D+01
   s     1 1.00
  0.364300D+00  0.100000D+01
   p     5 1.00
  0.187100D+02  0.140310D-01
  0.413300D+01  0.868660D-01
  0.120000D+01  0.290216D+00
  0.382700D+00  0.501008D+00
  0.120900D+00  0.343406D+00
   p     1 1.00
  0.382700D+00  0.100000D+01
   p     1 1.00
  0.120900D+00  0.100000D+01
   d     1 1.00
  0.109700D+01  0.100000D+01
   d     1 1.00
  0.318000D+00  0.100000D+01
   f     1 1.00
  0.761000D+00  0.100000D+01
  
  4  0
   s    10 1.00
  0.823600D+04  0.531000D-03
  0.123500D+04  0.410800D-02
  0.280800D+03  0.210870D-01
  0.792700D+02  0.818530D-01
  0.255900D+02  0.234817D+00
  0.899700D+01  0.434401D+00
  0.331900D+01  0.346129D+00
  0.905900D+00  0.393780D-01
  0.364300D+00 -0.898300D-02
  0.128500D+00  0.238500D-02
   s    10 1.00
  0.823600D+04 -0.113000D-03
  0.123500D+04 -0.878000D-03
  0.280800D+03 -0.454000D-02
  0.792700D+02 -0.181330D-01
  0.255900D+02 -0.557600D-01
  0.899700D+01 -0.126895D+00
  0.331900D+01 -0.170352D+00
  0.905900D+00  0.140382D+00
  0.364300D+00  0.598684D+00
  0.128500D+00  0.395389D+00
   s     1 1.00
  0.905900D+00  0.100000D+01
   s     1 1.00
  0.364300D+00  0.100000D+01
   p     5 1.00
  0.187100D+02  0.140310D-01
  0.413300D+01  0.868660D-01
  0.120000D+01  0.290216D+00
  0.382700D+00  0.501008D+00
  0.120900D+00  0.343406D+00
   p     1 1.00
  0.382700D+00  0.100000D+01
   p     1 1.00
  0.120900D+00  0.100000D+01
   d     1 1.00
  0.109700D+01  0.100000D+01
   d     1 1.00
  0.318000D+00  0.100000D+01
   f     1 1.00
  0.761000D+00  0.100000D+01
  
  5  0
   s    10 1.00
  0.823600D+04  0.531000D-03
  0.123500D+04  0.410800D-02
  0.280800D+03  0.210870D-01
  0.792700D+02  0.818530D-01
  0.255900D+02  0.234817D+00
  0.899700D+01  0.434401D+00
  0.331900D+01  0.346129D+00
  0.905900D+00  0.393780D-01
  0.364300D+00 -0.898300D-02
  0.128500D+00  0.238500D-02
   s    10 1.00
  0.823600D+04 -0.113000D-03
  0.123500D+04 -0.878000D-03
  0.280800D+03 -0.454000D-02
  0.792700D+02 -0.181330D-01
  0.255900D+02 -0.557600D-01
  0.899700D+01 -0.126895D+00
  0.331900D+01 -0.170352D+00
  0.905900D+00  0.140382D+00
  0.364300D+00  0.598684D+00
  0.128500D+00  0.395389D+00
   s     1 1.00
  0.905900D+00  0.100000D+01
   s     1 1.00
  0.364300D+00  0.100000D+01
   p     5 1.00
  0.187100D+02  0.140310D-01
  0.413300D+01  0.868660D-01
  0.120000D+01  0.290216D+00
  0.382700D+00  0.501008D+00
  0.120900D+00  0.343406D+00
   p     1 1.00
  0.382700D+00  0.100000D+01
   p     1 1.00
  0.120900D+00  0.100000D+01
   d     1 1.00
  0.109700D+01  0.100000D+01
   d     1 1.00
  0.318000D+00  0.100000D+01
   f     1 1.00
  0.761000D+00  0.100000D+01
  
  6  0
   s    10 1.00
  0.823600D+04  0.531000D-03
  0.123500D+04  0.410800D-02
  0.280800D+03  0.210870D-01
  0.792700D+02  0.818530D-01
  0.255900D+02  0.234817D+00
  0.899700D+01  0.434401D+00
  0.331900D+01  0.346129D+00
  0.905900D+00  0.393780D-01
  0.364300D+00 -0.898300D-02
  0.128500D+00  0.238500D-02
   s    10 1.00
  0.823600D+04 -0.113000D-03
  0.123500D+04 -0.878000D-03
  0.280800D+03 -0.454000D-02
  0.792700D+02 -0.181330D-01
  0.255900D+02 -0.557600D-01
  0.899700D+01 -0.126895D+00
  0.331900D+01 -0.170352D+00
  0.905900D+00  0.140382D+00
  0.364300D+00  0.598684D+00
  0.128500D+00  0.395389D+00
   s     1 1.00
  0.905900D+00  0.100000D+01
   s     1 1.00
  0.364300D+00  0.100000D+01
   p     5 1.00
  0.187100D+02  0.140310D-01
  0.413300D+01  0.868660D-01
  0.120000D+01  0.290216D+00
  0.382700D+00  0.501008D+00
  0.120900D+00  0.343406D+00
   p     1 1.00
  0.382700D+00  0.100000D+01
   p     1 1.00
  0.120900D+00  0.100000D+01
   d     1 1.00
  0.109700D+01  0.100000D+01
   d     1 1.00
  0.318000D+00  0.100000D+01
   f     1 1.00
  0.761000D+00  0.100000D+01
  
  7  0
   s    10 1.00
  0.823600D+04  0.531000D-03
  0.123500D+04  0.410800D-02
  0.280800D+03  0.210870D-01
  0.792700D+02  0.818530D-01
  0.255900D+02  0.234817D+00
  0.899700D+01  0.434401D+00
  0.331900D+01  0.346129D+00
  0.905900D+00  0.393780D-01
  0.364300D+00 -0.898300D-02
  0.128500D+00  0.238500D-02
   s    10 1.00
  0.823600D+04 -0.113000D-03
  0.123500D+04 -0.878000D-03
  0.280800D+03 -0.454000D-02
  0.792700D+02 -0.181330D-01
  0.255900D+02 -0.557600D-01
  0.899700D+01 -0.126895D+00
  0.331900D+01 -0.170352D+00
  0.905900D+00  0.140382D+00
  0.364300D+00  0.598684D+00
  0.128500D+00  0.395389D+00
   s     1 1.00
  0.905900D+00  0.100000D+01
   s     1 1.00
  0.364300D+00  0.100000D+01
   p     5 1.00
  0.187100D+02  0.140310D-01
  0.413300D+01  0.868660D-01
  0.120000D+01  0.290216D+00
  0.382700D+00  0.501008D+00
  0.120900D+00  0.343406D+00
   p     1 1.00
  0.382700D+00  0.100000D+01
   p     1 1.00
  0.120900D+00  0.100000D+01
   d     1 1.00
  0.109700D+01  0.100000D+01
   d     1 1.00
  0.318000D+00  0.100000D+01
   f     1 1.00
  0.761000D+00  0.100000D+01
  
  8  0
   s     4 1.00
  0.130100D+02  0.196850D-01
  0.196200D+01  0.137977D+00
  0.444600D+00  0.478148D+00
  0.122000D+00  0.501240D+00
   s     1 1.00
  0.122000D+00  0.100000D+01
   p     1 1.00
  0.727000D+00  0.100000D+01
  
  9  0
   s     4 1.00
  0.130100D+02  0.196850D-01
  0.196200D+01  0.137977D+00
  0.444600D+00  0.478148D+00
  0.122000D+00  0.501240D+00
   s     1 1.00
  0.122000D+00  0.100000D+01
   p     1 1.00
  0.727000D+00  0.100000D+01
  
 10  0
   s     4 1.00
  0.130100D+02  0.196850D-01
  0.196200D+01  0.137977D+00
  0.444600D+00  0.478148D+00
  0.122000D+00  0.501240D+00
   s     1 1.00
  0.122000D+00  0.100000D+01
   p     1 1.00
  0.727000D+00  0.100000D+01
  
 11  0
   s     4 1.00
  0.130100D+02  0.196850D-01
  0.196200D+01  0.137977D+00
  0.444600D+00  0.478148D+00
  0.122000D+00  0.501240D+00
   s     1 1.00
  0.122000D+00  0.100000D+01
   p     1 1.00
  0.727000D+00  0.100000D+01
  
 12  0
   s     4 1.00
  0.130100D+02  0.196850D-01
  0.196200D+01  0.137977D+00
  0.444600D+00  0.478148D+00
  0.122000D+00  0.501240D+00
   s     1 1.00
  0.122000D+00  0.100000D+01
   p     1 1.00
  0.727000D+00  0.100000D+01
  
 13  0
   s     4 1.00
  0.130100D+02  0.196850D-01
  0.196200D+01  0.137977D+00
  0.444600D+00  0.478148D+00
  0.122000D+00  0.501240D+00
   s     1 1.00
  0.122000D+00  0.100000D+01
   p     1 1.00
  0.727000D+00  0.100000D+01
  
 14  0
   s     4 1.00
  0.130100D+02  0.196850D-01
  0.196200D+01  0.137977D+00
  0.444600D+00  0.478148D+00
  0.122000D+00  0.501240D+00
   s     1 1.00
  0.122000D+00  0.100000D+01
   p     1 1.00
  0.727000D+00  0.100000D+01
  
[MO]
 Sym= __1_A__
 Ene=   1.00000000000000     
 Spin= Alpha
 Occup=    1.00000000000000     
                     1  6.950061426132871E-005
                     2  0.997631534600375     
                     3  1.212839028831921E-002
                     4  2.442435486476893E-003
                     5  2.622000638893351E-004
                     6  9.099182085914383E-012
                     7  1.269729423597053E-008
                     8  4.078378698945020E-003
                     9 -3.170164625228439E-012
                    10  1.480676126833119E-008
                    11 -2.423545212248977E-004
                    12 -2.221407546576134E-012
                    13 -1.059304082324297E-007
                    14 -1.124441480471264E-004
                    15  2.498958795178189E-004
                    16  7.038988107939427E-013
                    17  2.468168391081902E-009
                    18 -3.632971418062334E-004
                    19  1.667499683001729E-012
                    20  1.590030838683719E-004
                    21  1.655240624665193E-012
                    22 -9.795313446649951E-009
                    23  4.702025017460670E-004
                    24 -1.399261363454814E-012
                    25 -3.337905176368869E-004
                    26  9.201257817205392E-013
                    27  2.801667564202893E-009
                    28  3.044937902509648E-004
                    29  1.591286270209531E-012
                    30  6.178790488815741E-013
                    31 -1.089712164012675E-010
                    32 -3.900261318485907E-004
                    33  2.946001066469479E-003
                    34  1.775314691502800E-004
                    35 -2.911188290226413E-004
                    36 -9.600697072421432E-013
                    37  3.821726524531417E-008
                    38 -7.703668080643697E-003
                    39 -1.019473779492100E-012
                    40 -1.307379016671598E-007
                    41  3.754989006022526E-004
                    42 -3.117140144614498E-012
                    43 -7.234796482617251E-008
                    44  3.811140420967692E-003
                    45  3.659881880225655E-004
                    46 -2.221267580759079E-012
                    47  1.363715297097949E-008
                    48  1.460060651054838E-004
                    49 -9.123440864381292E-013
                    50  2.804837138753114E-005
                    51  1.794265495355613E-012
                    52 -2.268907008319665E-007
                    53 -4.619093374800958E-004
                    54 -4.268963178082721E-012
                    55 -1.424702520142232E-004
                    56 -8.615850282473059E-013
                    57 -1.589379699769484E-009
                    58  1.145285819245258E-004
                    59 -8.468887687663491E-013
                    60 -1.791496048458782E-012
                    61  1.877277467910143E-010
                    62 -2.043300017701898E-004
                    63 -1.777705258303919E-003
                    64  5.352852348135504E-005
                    65  5.851485121501125E-004
                    66  5.963321885130249E-012
                    67 -8.986040796836146E-004
                    68  1.163810214241139E-003
                    69 -8.649944706082741E-012
                    70 -9.839832824411177E-006
                    71  5.680432183083692E-004
                    72  4.115647837416140E-012
                    73 -3.365287075243055E-004
                    74  1.306674586929960E-005
                    75  1.009313222940424E-004
                    76 -2.115637121310120E-013
                    77 -1.846517801661096E-005
                    78  4.024887598813658E-005
                    79 -1.098737505458798E-012
                    80 -8.552515860737173E-005
                    81  6.964519321301942E-013
                    82  2.589274083133794E-004
                    83 -5.486731324055702E-005
                    84  1.629300414455480E-012
                    85 -9.915516341498939E-005
                    86 -3.324425049287413E-013
                    87 -3.417913917858175E-005
                    88  2.336822965130652E-005
                    89  1.598645633555991E-012
                    90 -3.071764352775369E-012
                    91  1.179077921730418E-005
                    92 -2.042839173459468E-004
                    93 -1.777514230708083E-003
                    94  5.378784099805737E-005
                    95  5.842544552487937E-004
                    96  4.441281763961251E-012
                    97  8.986485446962204E-004
                    98  1.163994333967096E-003
                    99 -2.285914151697627E-012
                   100  9.584179397817336E-006
                   101  5.669587453617487E-004
                   102  3.140075140802127E-012
                   103  3.356416069136073E-004
                   104  1.307672743464565E-005
                   105  1.008744040648371E-004
                   106  1.747414270716470E-012
                   107  1.849031576416641E-005
                   108  4.025291110092382E-005
                   109 -2.044312796237573E-012
                   110 -8.621477612835589E-005
                   111 -3.123466632208979E-012
                   112 -2.590616214854254E-004
                   113 -5.503394215054702E-005
                   114 -1.231761824818111E-012
                   115 -9.905323053812775E-005
                   116  2.955724408650065E-012
                   117  3.416515872312097E-005
                   118  2.336580419669164E-005
                   119  5.174548633439367E-013
                   120  1.916809913560568E-012
                   121 -1.178849973602739E-005
                   122 -1.470659712509957E-004
                   123  6.368340333168276E-005
                   124  1.088983242153093E-004
                   125  1.412272758868891E-004
                   126  3.690842887797719E-012
                   127  5.155770872267269E-005
                   128 -8.819360505953412E-004
                   129 -6.420424325035689E-012
                   130 -1.502134796051494E-005
                   131  3.263591655426880E-004
                   132 -2.968278130921587E-012
                   133 -1.308679082883235E-004
                   134  6.203648010996661E-004
                   135 -1.619330266254864E-005
                   136  2.617456335633326E-013
                   137  1.012390335973336E-006
                   138  2.581785401295938E-006
                   139 -7.640942340497523E-013
                   140 -1.614406218955628E-004
                   141 -4.959576132832093E-012
                   142  1.884698128444433E-004
                   143  1.422509296152933E-005
                   144 -3.337694169763475E-012
                   145 -3.817950338885013E-005
                   146  1.805962948965246E-013
                   147  7.791009264914965E-007
                   148 -9.266359708444748E-006
                   149 -1.461711284407896E-012
                   150 -8.753571528104147E-014
                   151 -2.948581428235762E-006
                   152 -1.478137893141702E-004
                   153  6.106066673115285E-005
                   154  1.082627348476928E-004
                   155  1.455228970060058E-004
                   156 -8.366724023033166E-012
                   157 -5.156973476884891E-005
                   158 -8.818409734858906E-004
                   159  1.180341874951392E-011
                   160  1.487270723883816E-005
                   161  3.255907441774993E-004
                   162 -1.195989283162112E-012
                   163  1.317977421693193E-004
                   164  6.203235116657403E-004
                   165 -1.611003273852278E-005
                   166 -1.876567424203140E-012
                   167 -1.010345756329866E-006
                   168  2.517127053039798E-006
                   169 -2.815987478403598E-012
                   170 -1.611257695996344E-004
                   171  2.705102107345932E-012
                   172 -1.887234469574314E-004
                   173  1.423862984098939E-005
                   174 -2.162545748662739E-013
                   175 -3.804882255295397E-005
                   176 -2.085921748831175E-012
                   177 -7.483186753787137E-007
                   178 -9.327375765307591E-006
                   179 -9.188765614038868E-013
                   180  1.847932810218562E-013
                   181  2.946944377070145E-006
                   182 -1.251433404047034E-004
                   183 -3.372765316655658E-004
                   184  2.977291307820880E-005
                   185  1.556827615048624E-004
                   186 -3.596107983965417E-012
                   187  5.828877267222671E-008
                   188 -3.416781390797956E-005
                   189  3.946307140579990E-012
                   190 -3.484286753147394E-007
                   191 -2.234339925762821E-006
                   192  1.822283674719370E-012
                   193  1.512660026636883E-007
                   194  1.213884964852056E-004
                   195  2.106047175814987E-005
                   196 -9.936326051701173E-013
                   197  2.562590759714257E-008
                   198  1.013789801790637E-005
                   199  4.950524707163640E-013
                   200  6.400295969910973E-005
                   201  5.442059880016723E-013
                   202  1.648288139905826E-007
                   203  4.468624449397412E-005
                   204 -8.857999136857353E-012
                   205 -1.350293028457267E-005
                   206  5.219123035358699E-013
                   207 -1.170546819605628E-008
                   208  6.419158244997842E-006
                   209  2.332285477084990E-012
                   210  1.405651885467037E-012
                   211  2.223546207949222E-008
                   212  5.461558382858873E-003
                   213 -3.223450931355303E-003
                   214 -1.049294682873002E-013
                   215  3.866721473128606E-004
                   216  3.252594792724172E-004
                   217  5.461681355836973E-003
                   218 -3.223504569581296E-003
                   219  1.405653663278110E-012
                   220 -3.867154211936923E-004
                   221  3.252879740858589E-004
                   222 -7.794898096008706E-004
                   223  8.123861640967144E-005
                   224  2.331987371569132E-012
                   225 -2.428762843328002E-005
                   226 -5.711593090807811E-005
                   227 -7.796113074126350E-004
                   228  8.173960773363997E-005
                   229 -5.637936623503765E-013
                   230  2.425800694648736E-005
                   231 -5.716010782582444E-005
                   232 -2.537655907216796E-004
                   233 -3.534471752216993E-004
                   234  3.707156057963293E-013
                   235 -7.966810880483749E-006
                   236  8.749312224374734E-006
                   237 -2.539081540415830E-004
                   238 -3.536161828223856E-004
                   239  5.894192631387552E-013
                   240  8.059951628657701E-006
                   241  8.812299451176159E-006
                   242  8.166813066622851E-005
                   243 -1.487139255462864E-004
                   244  6.787622897630659E-013
                   245 -1.738909569810529E-008
                   246  1.217259601168399E-005
 Sym= __2_A__
 Ene=   2.00000000000000     
 Spin= Alpha
 Occup=    1.00000000000000     
                     1 -4.077732410397277E-005
                     2 -1.920430592817772E-004
                     3  1.928422884609392E-003
                     4  9.758260420060081E-005
                     5  1.378663210187627E-003
                     6  6.741681276073630E-012
                     7  5.755186800197174E-009
                     8  2.982959655219983E-003
                     9 -8.250950315840690E-012
                    10 -3.405050186315723E-009
                    11 -5.265613294152199E-005
                    12 -1.230321299662323E-013
                    13  3.108502719004108E-009
                    14 -5.022542802158237E-004
                    15  3.646952979095149E-005
                    16 -2.303605800410430E-012
                    17  3.388543408475113E-010
                    18  6.316114375432743E-005
                    19 -1.242952977657529E-012
                    20 -3.653146923805803E-004
                    21  3.546604315607140E-012
                    22  9.315672252971912E-010
                    23 -3.821098255983640E-004
                    24 -2.523206683020529E-013
                    25  1.747887194143142E-004
                    26 -1.070824277246822E-012
                    27 -2.442998153824978E-009
                    28 -4.799974744063022E-006
                    29 -3.065466286059263E-012
                    30 -2.559587221634882E-012
                    31  7.244357610695364E-010
                    32   1.00105811376104     
                    33  9.234668544226894E-003
                    34  2.647654114681265E-003
                    35 -7.740779444434589E-003
                    36 -4.836896929014500E-013
                    37 -5.307193905780065E-009
                    38 -4.023623374540994E-003
                    39 -6.269708858961485E-012
                    40  2.314615580620391E-009
                    41  1.004100844576957E-003
                    42 -9.665426017409142E-012
                    43 -5.931277262892193E-008
                    44  4.524425879454946E-003
                    45  4.679851379427703E-004
                    46  1.173242362502774E-012
                    47 -3.117476197944481E-009
                    48 -4.331260269135016E-004
                    49  2.749132759402558E-012
                    50  5.828667559891346E-004
                    51  5.846600023785057E-012
                    52  1.015194983792598E-008
                    53  9.510978895583194E-004
                    54  9.781336792222415E-012
                    55  3.813292966830271E-004
                    56 -1.166023795135790E-012
                    57  2.703720808529235E-010
                    58 -2.102432545814106E-004
                    59  7.237181208395072E-012
                    60 -1.816433034446624E-012
                    61  1.553484931628348E-009
                    62  7.208892122867875E-003
                    63 -2.047752804216602E-003
                    64 -2.794625654622134E-004
                    65  3.065337980421618E-003
                    66  5.975209377687194E-012
                    67  1.207815097690899E-004
                    68 -4.650883769178741E-005
                    69  4.093137488773950E-012
                    70  6.013861792184918E-004
                    71  2.230331979866059E-005
                    72 -1.477287923276587E-012
                    73 -2.134613811103364E-003
                    74  7.843460270250031E-005
                    75 -1.664667525970861E-005
                    76  5.137359043450594E-013
                    77  1.365605667688801E-005
                    78  2.724327502497466E-005
                    79 -1.117252010257373E-012
                    80  7.719137326959662E-004
                    81 -1.740841904017067E-011
                    82 -4.330522518838751E-004
                    83 -9.482201192463724E-006
                    84  1.082234950275775E-011
                    85  7.249365277463332E-005
                    86 -4.136158946650276E-012
                    87  4.641443386388343E-005
                    88 -1.262767997678564E-004
                    89 -5.878664320081100E-012
                    90  3.440877889111814E-013
                    91  5.024900219147202E-005
                    92  7.208867111084366E-003
                    93 -2.047836745810067E-003
                    94 -2.795038376125014E-004
                    95  3.065535590582069E-003
                    96  8.613714784400364E-012
                    97 -1.207829003143089E-004
                    98 -4.653066434157036E-005
                    99 -6.393955783226284E-012
                   100 -6.013829452161421E-004
                   101  2.243086625016502E-005
                   102  4.865393074621783E-012
                   103  2.134737629138803E-003
                   104  7.829438270459324E-005
                   105 -1.663213195397266E-005
                   106 -2.680223762940289E-013
                   107 -1.366208987831007E-005
                   108  2.724195661357888E-005
                   109  1.696979180791324E-012
                   110  7.719719225503902E-004
                   111  5.266180916295738E-012
                   112  4.330985490448049E-004
                   113 -9.463352670085093E-006
                   114  2.845241703556608E-012
                   115  7.248085388173612E-005
                   116 -1.624454329340855E-012
                   117 -4.641229123183671E-005
                   118 -1.262743168934135E-004
                   119 -5.324544841907971E-012
                   120 -3.291805272265714E-012
                   121 -5.024785469984170E-005
                   122 -2.391141564054116E-004
                   123 -7.757258020571594E-004
                   124  2.254929154970839E-004
                   125 -1.084969978275867E-004
                   126 -6.105160603791939E-012
                   127 -2.141111771185687E-005
                   128 -2.316647520742638E-004
                   129  2.256693512626921E-011
                   130 -3.318012974717474E-006
                   131  5.397764593205903E-004
                   132 -6.470559735495144E-012
                   133  3.259233686093032E-004
                   134  7.626388767381857E-004
                   135 -1.465032291784598E-005
                   136  1.214995803421492E-012
                   137  5.111078329916125E-005
                   138  1.365258471493145E-005
                   139  9.391524804806337E-013
                   140 -2.948531749668591E-004
                   141 -3.456595349844300E-012
                   142 -2.217698664065029E-004
                   143 -1.277131256339003E-005
                   144  5.927740180121160E-012
                   145  2.246345537571758E-007
                   146  1.441335669860673E-012
                   147 -4.054930509933135E-005
                   148 -3.958307593280158E-005
                   149  2.839294814448288E-012
                   150  1.236064208329899E-012
                   151 -5.626030961973935E-006
                   152 -2.388425987371574E-004
                   153 -7.748236902962992E-004
                   154  2.255542397642812E-004
                   155 -1.094490036541549E-004
                   156  5.124211294057633E-012
                   157  2.140353989860832E-005
                   158 -2.316688459514879E-004
                   159 -3.621530373096446E-012
                   160  3.352852056849212E-006