[Molden Format]
[Atoms] AU
  N     1    7     0.0000000000    0.0000000000   -4.2907334100        
  C     2    6     0.0000000000    0.0000000000   -1.7772236300        
  C     3    6     0.0000000000   -2.3389203600   -0.4111016300        
  C     4    6     0.0000000000    2.3389203600   -0.4111016300        
  C     5    6     0.0000000000   -2.2998668500    2.1639215300        
  C     6    6     0.0000000000    2.2998668500    2.1639215300        
  C     7    6     0.0000000000    0.0000000000    3.4755251800        
  H     8    1     0.0000000000   -1.4474705400   -5.1837012500        
  H     9    1     0.0000000000    1.4474705400   -5.1837012500        
  H    10    1     0.0000000000   -4.0745407300   -1.4447408500        
  H    11    1     0.0000000000    4.0745407300   -1.4447408500        
  H    12    1     0.0000000000   -4.0420632100    3.1963889500        
  H    13    1     0.0000000000    4.0420632100    3.1963889500        
  H    14    1     0.0000000000    0.0000000000    5.5020335600        
[5D]
[7F]
[GTO]
  1  0
   s    12 1.00
  0.114200D+05  0.172695D-04
  0.171200D+04  0.134411D-03
  0.389300D+03  0.694561D-03
  0.110000D+03  0.278531D-02
  0.355700D+02  0.863457D-02
  0.125400D+02  0.199805D-01
  0.464400D+01  0.262908D-01
  0.129300D+01 -0.243845D-01
  0.511800D+00 -0.924934D-01
  0.178700D+00 -0.339683D+00
  0.246240D-01  0.345111D+00
  0.112530D-01  0.752750D+00
   s    10 1.00
  0.114200D+05  0.523000D-03
  0.171200D+04  0.404500D-02
  0.389300D+03  0.207750D-01
  0.110000D+03  0.807269D-01
  0.355700D+02  0.233074D+00
  0.125400D+02  0.433501D+00
  0.464400D+01  0.347472D+00
  0.129300D+01  0.412620D-01
  0.511800D+00 -0.850799D-02
  0.178700D+00  0.238400D-02
   s    10 1.00
  0.114200D+05 -0.115000D-03
  0.171200D+04 -0.895000D-03
  0.389300D+03 -0.462400D-02
  0.110000D+03 -0.185280D-01
  0.355700D+02 -0.573390D-01
  0.125400D+02 -0.132076D+00
  0.464400D+01 -0.172510D+00
  0.129300D+01  0.151814D+00
  0.511800D+00  0.599944D+00
  0.178700D+00  0.387462D+00
   s     1 1.00
  0.129300D+01  0.100000D+01
   s     1 1.00
  0.178700D+00  0.100000D+01
   p     5 1.00
  0.266300D+02  0.146700D-01
  0.594800D+01  0.917640D-01
  0.174200D+01  0.298683D+00
  0.555000D+00  0.498487D+00
  0.172500D+00  0.337023D+00
   p     1 1.00
  0.174200D+01  0.100000D+01
   p     1 1.00
  0.555000D+00  0.100000D+01
   d     1 1.00
  0.165400D+01  0.100000D+01
   d     1 1.00
  0.469000D+00  0.100000D+01
   f     1 1.00
  0.109300D+01  0.100000D+01
  
  2  0
   s    10 1.00
  0.823600D+04  0.531000D-03
  0.123500D+04  0.410800D-02
  0.280800D+03  0.210870D-01
  0.792700D+02  0.818530D-01
  0.255900D+02  0.234817D+00
  0.899700D+01  0.434401D+00
  0.331900D+01  0.346129D+00
  0.905900D+00  0.393780D-01
  0.364300D+00 -0.898300D-02
  0.128500D+00  0.238500D-02
   s    10 1.00
  0.823600D+04 -0.113000D-03
  0.123500D+04 -0.878000D-03
  0.280800D+03 -0.454000D-02
  0.792700D+02 -0.181330D-01
  0.255900D+02 -0.557600D-01
  0.899700D+01 -0.126895D+00
  0.331900D+01 -0.170352D+00
  0.905900D+00  0.140382D+00
  0.364300D+00  0.598684D+00
  0.128500D+00  0.395389D+00
   s     1 1.00
  0.905900D+00  0.100000D+01
   s     1 1.00
  0.364300D+00  0.100000D+01
   p     5 1.00
  0.187100D+02  0.140310D-01
  0.413300D+01  0.868660D-01
  0.120000D+01  0.290216D+00
  0.382700D+00  0.501008D+00
  0.120900D+00  0.343406D+00
   p     1 1.00
  0.382700D+00  0.100000D+01
   p     1 1.00
  0.120900D+00  0.100000D+01
   d     1 1.00
  0.109700D+01  0.100000D+01
   d     1 1.00
  0.318000D+00  0.100000D+01
   f     1 1.00
  0.761000D+00  0.100000D+01
  
  3  0
   s    10 1.00
  0.823600D+04  0.531000D-03
  0.123500D+04  0.410800D-02
  0.280800D+03  0.210870D-01
  0.792700D+02  0.818530D-01
  0.255900D+02  0.234817D+00
  0.899700D+01  0.434401D+00
  0.331900D+01  0.346129D+00
  0.905900D+00  0.393780D-01
  0.364300D+00 -0.898300D-02
  0.128500D+00  0.238500D-02
   s    10 1.00
  0.823600D+04 -0.113000D-03
  0.123500D+04 -0.878000D-03
  0.280800D+03 -0.454000D-02
  0.792700D+02 -0.181330D-01
  0.255900D+02 -0.557600D-01
  0.899700D+01 -0.126895D+00
  0.331900D+01 -0.170352D+00
  0.905900D+00  0.140382D+00
  0.364300D+00  0.598684D+00
  0.128500D+00  0.395389D+00
   s     1 1.00
  0.905900D+00  0.100000D+01
   s     1 1.00
  0.364300D+00  0.100000D+01
   p     5 1.00
  0.187100D+02  0.140310D-01
  0.413300D+01  0.868660D-01
  0.120000D+01  0.290216D+00
  0.382700D+00  0.501008D+00
  0.120900D+00  0.343406D+00
   p     1 1.00
  0.382700D+00  0.100000D+01
   p     1 1.00
  0.120900D+00  0.100000D+01
   d     1 1.00
  0.109700D+01  0.100000D+01
   d     1 1.00
  0.318000D+00  0.100000D+01
   f     1 1.00
  0.761000D+00  0.100000D+01
  
  4  0
   s    10 1.00
  0.823600D+04  0.531000D-03
  0.123500D+04  0.410800D-02
  0.280800D+03  0.210870D-01
  0.792700D+02  0.818530D-01
  0.255900D+02  0.234817D+00
  0.899700D+01  0.434401D+00
  0.331900D+01  0.346129D+00
  0.905900D+00  0.393780D-01
  0.364300D+00 -0.898300D-02
  0.128500D+00  0.238500D-02
   s    10 1.00
  0.823600D+04 -0.113000D-03
  0.123500D+04 -0.878000D-03
  0.280800D+03 -0.454000D-02
  0.792700D+02 -0.181330D-01
  0.255900D+02 -0.557600D-01
  0.899700D+01 -0.126895D+00
  0.331900D+01 -0.170352D+00
  0.905900D+00  0.140382D+00
  0.364300D+00  0.598684D+00
  0.128500D+00  0.395389D+00
   s     1 1.00
  0.905900D+00  0.100000D+01
   s     1 1.00
  0.364300D+00  0.100000D+01
   p     5 1.00
  0.187100D+02  0.140310D-01
  0.413300D+01  0.868660D-01
  0.120000D+01  0.290216D+00
  0.382700D+00  0.501008D+00
  0.120900D+00  0.343406D+00
   p     1 1.00
  0.382700D+00  0.100000D+01
   p     1 1.00
  0.120900D+00  0.100000D+01
   d     1 1.00
  0.109700D+01  0.100000D+01
   d     1 1.00
  0.318000D+00  0.100000D+01
   f     1 1.00
  0.761000D+00  0.100000D+01
  
  5  0
   s    10 1.00
  0.823600D+04  0.531000D-03
  0.123500D+04  0.410800D-02
  0.280800D+03  0.210870D-01
  0.792700D+02  0.818530D-01
  0.255900D+02  0.234817D+00
  0.899700D+01  0.434401D+00
  0.331900D+01  0.346129D+00
  0.905900D+00  0.393780D-01
  0.364300D+00 -0.898300D-02
  0.128500D+00  0.238500D-02
   s    10 1.00
  0.823600D+04 -0.113000D-03
  0.123500D+04 -0.878000D-03
  0.280800D+03 -0.454000D-02
  0.792700D+02 -0.181330D-01
  0.255900D+02 -0.557600D-01
  0.899700D+01 -0.126895D+00
  0.331900D+01 -0.170352D+00
  0.905900D+00  0.140382D+00
  0.364300D+00  0.598684D+00
  0.128500D+00  0.395389D+00
   s     1 1.00
  0.905900D+00  0.100000D+01
   s     1 1.00
  0.364300D+00  0.100000D+01
   p     5 1.00
  0.187100D+02  0.140310D-01
  0.413300D+01  0.868660D-01
  0.120000D+01  0.290216D+00
  0.382700D+00  0.501008D+00
  0.120900D+00  0.343406D+00
   p     1 1.00
  0.382700D+00  0.100000D+01
   p     1 1.00
  0.120900D+00  0.100000D+01
   d     1 1.00
  0.109700D+01  0.100000D+01
   d     1 1.00
  0.318000D+00  0.100000D+01
   f     1 1.00
  0.761000D+00  0.100000D+01
  
  6  0
   s    10 1.00
  0.823600D+04  0.531000D-03
  0.123500D+04  0.410800D-02
  0.280800D+03  0.210870D-01
  0.792700D+02  0.818530D-01
  0.255900D+02  0.234817D+00
  0.899700D+01  0.434401D+00
  0.331900D+01  0.346129D+00
  0.905900D+00  0.393780D-01
  0.364300D+00 -0.898300D-02
  0.128500D+00  0.238500D-02
   s    10 1.00
  0.823600D+04 -0.113000D-03
  0.123500D+04 -0.878000D-03
  0.280800D+03 -0.454000D-02
  0.792700D+02 -0.181330D-01
  0.255900D+02 -0.557600D-01
  0.899700D+01 -0.126895D+00
  0.331900D+01 -0.170352D+00
  0.905900D+00  0.140382D+00
  0.364300D+00  0.598684D+00
  0.128500D+00  0.395389D+00
   s     1 1.00
  0.905900D+00  0.100000D+01
   s     1 1.00
  0.364300D+00  0.100000D+01
   p     5 1.00
  0.187100D+02  0.140310D-01
  0.413300D+01  0.868660D-01
  0.120000D+01  0.290216D+00
  0.382700D+00  0.501008D+00
  0.120900D+00  0.343406D+00
   p     1 1.00
  0.382700D+00  0.100000D+01
   p     1 1.00
  0.120900D+00  0.100000D+01
   d     1 1.00
  0.109700D+01  0.100000D+01
   d     1 1.00
  0.318000D+00  0.100000D+01
   f     1 1.00
  0.761000D+00  0.100000D+01
  
  7  0
   s    10 1.00
  0.823600D+04  0.531000D-03
  0.123500D+04  0.410800D-02
  0.280800D+03  0.210870D-01
  0.792700D+02  0.818530D-01
  0.255900D+02  0.234817D+00
  0.899700D+01  0.434401D+00
  0.331900D+01  0.346129D+00
  0.905900D+00  0.393780D-01
  0.364300D+00 -0.898300D-02
  0.128500D+00  0.238500D-02
   s    10 1.00
  0.823600D+04 -0.113000D-03
  0.123500D+04 -0.878000D-03
  0.280800D+03 -0.454000D-02
  0.792700D+02 -0.181330D-01
  0.255900D+02 -0.557600D-01
  0.899700D+01 -0.126895D+00
  0.331900D+01 -0.170352D+00
  0.905900D+00  0.140382D+00
  0.364300D+00  0.598684D+00
  0.128500D+00  0.395389D+00
   s     1 1.00
  0.905900D+00  0.100000D+01
   s     1 1.00
  0.364300D+00  0.100000D+01
   p     5 1.00
  0.187100D+02  0.140310D-01
  0.413300D+01  0.868660D-01
  0.120000D+01  0.290216D+00
  0.382700D+00  0.501008D+00
  0.120900D+00  0.343406D+00
   p     1 1.00
  0.382700D+00  0.100000D+01
   p     1 1.00
  0.120900D+00  0.100000D+01
   d     1 1.00
  0.109700D+01  0.100000D+01
   d     1 1.00
  0.318000D+00  0.100000D+01
   f     1 1.00
  0.761000D+00  0.100000D+01
  
  8  0
   s     4 1.00
  0.130100D+02  0.196850D-01
  0.196200D+01  0.137977D+00
  0.444600D+00  0.478148D+00
  0.122000D+00  0.501240D+00
   s     1 1.00
  0.122000D+00  0.100000D+01
   p     1 1.00
  0.727000D+00  0.100000D+01
  
  9  0
   s     4 1.00
  0.130100D+02  0.196850D-01
  0.196200D+01  0.137977D+00
  0.444600D+00  0.478148D+00
  0.122000D+00  0.501240D+00
   s     1 1.00
  0.122000D+00  0.100000D+01
   p     1 1.00
  0.727000D+00  0.100000D+01
  
 10  0
   s     4 1.00
  0.130100D+02  0.196850D-01
  0.196200D+01  0.137977D+00
  0.444600D+00  0.478148D+00
  0.122000D+00  0.501240D+00
   s     1 1.00
  0.122000D+00  0.100000D+01
   p     1 1.00
  0.727000D+00  0.100000D+01
  
 11  0
   s     4 1.00
  0.130100D+02  0.196850D-01
  0.196200D+01  0.137977D+00
  0.444600D+00  0.478148D+00
  0.122000D+00  0.501240D+00
   s     1 1.00
  0.122000D+00  0.100000D+01
   p     1 1.00
  0.727000D+00  0.100000D+01
  
 12  0
   s     4 1.00
  0.130100D+02  0.196850D-01
  0.196200D+01  0.137977D+00
  0.444600D+00  0.478148D+00
  0.122000D+00  0.501240D+00
   s     1 1.00
  0.122000D+00  0.100000D+01
   p     1 1.00
  0.727000D+00  0.100000D+01
  
 13  0
   s     4 1.00
  0.130100D+02  0.196850D-01
  0.196200D+01  0.137977D+00
  0.444600D+00  0.478148D+00
  0.122000D+00  0.501240D+00
   s     1 1.00
  0.122000D+00  0.100000D+01
   p     1 1.00
  0.727000D+00  0.100000D+01
  
 14  0
   s     4 1.00
  0.130100D+02  0.196850D-01
  0.196200D+01  0.137977D+00
  0.444600D+00  0.478148D+00
  0.122000D+00  0.501240D+00
   s     1 1.00
  0.122000D+00  0.100000D+01
   p     1 1.00
  0.727000D+00  0.100000D+01
  
[MO]
 Sym= __1_a__
 Ene=  0.000000000000000E+000
 Spin= Alpha
 Occup=    2.00000000000000     
                     1  6.950061426132870E-005
                     2  0.997631534600375     
                     3  1.212839028831920E-002
                     4  2.442435486476890E-003
                     5  2.622000638893350E-004
                     6  9.099182085914380E-012
                     7  1.269729423597050E-008
                     8  4.078378698945020E-003
                     9 -3.170164625228440E-012
                    10  1.480676126833120E-008
                    11 -2.423545212248980E-004
                    12 -2.221407546576130E-012
                    13 -1.059304082324300E-007
                    14 -1.124441480471260E-004
                    15  2.498958795178189E-004
                    16  7.038988107939430E-013
                    17  2.468168391081900E-009
                    18 -3.632971418062340E-004
                    19  1.667499683001730E-012
                    20  1.590030838683719E-004
                    21  1.655240624665190E-012
                    22 -9.795313446649951E-009
                    23  4.702025017460680E-004
                    24 -1.399261363454810E-012
                    25 -3.337905176368879E-004
                    26  9.201257817205368E-013
                    27  2.801667564202890E-009
                    28  3.044937902509640E-004
                    29  1.591286270209530E-012
                    30  6.178790488815735E-013
                    31 -1.089712164012677E-010
                    32 -3.900261318485910E-004
                    33  2.946001066469480E-003
                    34  1.775314691502800E-004
                    35 -2.911188290226410E-004
                    36 -9.600697072421430E-013
                    37  3.821726524531420E-008
                    38 -7.703668080643700E-003
                    39 -1.019473779492100E-012
                    40 -1.307379016671600E-007
                    41  3.754989006022530E-004
                    42 -3.117140144614500E-012
                    43 -7.234796482617251E-008
                    44  3.811140420967690E-003
                    45  3.659881880225662E-004
                    46 -2.221267580759080E-012
                    47  1.363715297097950E-008
                    48  1.460060651054838E-004
                    49 -9.123440864381290E-013
                    50  2.804837138753113E-005
                    51  1.794265495355610E-012
                    52 -2.268907008319660E-007
                    53 -4.619093374800960E-004
                    54 -4.268963178082720E-012
                    55 -1.424702520142231E-004
                    56 -8.615850282473066E-013
                    57 -1.589379699769482E-009
                    58  1.145285819245258E-004
                    59 -8.468887687663490E-013
                    60 -1.791496048458773E-012
                    61  1.877277467910145E-010
                    62 -2.043300017701900E-004
                    63 -1.777705258303920E-003
                    64  5.352852348135500E-005
                    65  5.851485121501130E-004
                    66  5.963321885130250E-012
                    67 -8.986040796836150E-004
                    68  1.163810214241140E-003
                    69 -8.649944706082740E-012
                    70 -9.839832824411180E-006
                    71  5.680432183083690E-004
                    72  4.115647837416140E-012
                    73 -3.365287075243050E-004
                    74  1.306674586929960E-005
                    75  1.009313222940423E-004
                    76 -2.115637121310120E-013
                    77 -1.846517801661100E-005
                    78  4.024887598813660E-005
                    79 -1.098737505458800E-012
                    80 -8.552515860737187E-005
                    81  6.964519321301940E-013
                    82  2.589274083133790E-004
                    83 -5.486731324055700E-005
                    84  1.629300414455480E-012
                    85 -9.915516341498943E-005
                    86 -3.324425049287416E-013
                    87 -3.417913917858172E-005
                    88  2.336822965130660E-005
                    89  1.598645633555990E-012
                    90 -3.071764352775372E-012
                    91  1.179077921730419E-005
                    92 -2.042839173459470E-004
                    93 -1.777514230708080E-003
                    94  5.378784099805740E-005
                    95  5.842544552487940E-004
                    96  4.441281763961250E-012
                    97  8.986485446962200E-004
                    98  1.163994333967100E-003
                    99 -2.285914151697630E-012
                   100  9.584179397817340E-006
                   101  5.669587453617490E-004
                   102  3.140075140802130E-012
                   103  3.356416069136070E-004
                   104  1.307672743464560E-005
                   105  1.008744040648371E-004
                   106  1.747414270716470E-012
                   107  1.849031576416640E-005
                   108  4.025291110092380E-005
                   109 -2.044312796237570E-012
                   110 -8.621477612835589E-005
                   111 -3.123466632208980E-012
                   112 -2.590616214854250E-004
                   113 -5.503394215054700E-005
                   114 -1.231761824818110E-012
                   115 -9.905323053812783E-005
                   116  2.955724408650066E-012
                   117  3.416515872312094E-005
                   118  2.336580419669160E-005
                   119  5.174548633439370E-013
                   120  1.916809913560568E-012
                   121 -1.178849973602738E-005
                   122 -1.470659712509960E-004
                   123  6.368340333168280E-005
                   124  1.088983242153090E-004
                   125  1.412272758868890E-004
                   126  3.690842887797720E-012
                   127  5.155770872267270E-005
                   128 -8.819360505953410E-004
                   129 -6.420424325035690E-012
                   130 -1.502134796051490E-005
                   131  3.263591655426880E-004
                   132 -2.968278130921590E-012
                   133 -1.308679082883230E-004
                   134  6.203648010996660E-004
                   135 -1.619330266254863E-005
                   136  2.617456335633330E-013
                   137  1.012390335973340E-006
                   138  2.581785401295940E-006
                   139 -7.640942340497520E-013
                   140 -1.614406218955628E-004
                   141 -4.959576132832090E-012
                   142  1.884698128444430E-004
                   143  1.422509296152934E-005
                   144 -3.337694169763480E-012
                   145 -3.817950338885008E-005
                   146  1.805962948965245E-013
                   147  7.791009264914945E-007
                   148 -9.266359708444740E-006
                   149 -1.461711284407900E-012
                   150 -8.753571528104141E-014
                   151 -2.948581428235763E-006
                   152 -1.478137893141700E-004
                   153  6.106066673115281E-005
                   154  1.082627348476930E-004
                   155  1.455228970060060E-004
                   156 -8.366724023033171E-012
                   157 -5.156973476884890E-005
                   158 -8.818409734858910E-004
                   159  1.180341874951390E-011
                   160  1.487270723883820E-005
                   161  3.255907441774990E-004
                   162 -1.195989283162110E-012
                   163  1.317977421693190E-004
                   164  6.203235116657400E-004
                   165 -1.611003273852276E-005
                   166 -1.876567424203140E-012
                   167 -1.010345756329870E-006
                   168  2.517127053039800E-006
                   169 -2.815987478403600E-012
                   170 -1.611257695996345E-004
                   171  2.705102107345930E-012
                   172 -1.887234469574310E-004
                   173  1.423862984098940E-005
                   174 -2.162545748662740E-013
                   175 -3.804882255295399E-005
                   176 -2.085921748831174E-012
                   177 -7.483186753787137E-007
                   178 -9.327375765307600E-006
                   179 -9.188765614038870E-013
                   180  1.847932810218554E-013
                   181  2.946944377070144E-006
                   182 -1.251433404047030E-004
                   183 -3.372765316655660E-004
                   184  2.977291307820880E-005
                   185  1.556827615048620E-004
                   186 -3.596107983965420E-012
                   187  5.828877267222670E-008
                   188 -3.416781390797960E-005
                   189  3.946307140579990E-012
                   190 -3.484286753147390E-007
                   191 -2.234339925762820E-006
                   192  1.822283674719370E-012
                   193  1.512660026636880E-007
                   194  1.213884964852060E-004
                   195  2.106047175814987E-005
                   196 -9.936326051701171E-013
                   197  2.562590759714260E-008
                   198  1.013789801790638E-005
                   199  4.950524707163640E-013
                   200  6.400295969910977E-005
                   201  5.442059880016720E-013
                   202  1.648288139905830E-007
                   203  4.468624449397420E-005
                   204 -8.857999136857350E-012
                   205 -1.350293028457266E-005
                   206  5.219123035358699E-013
                   207 -1.170546819605627E-008
                   208  6.419158244997840E-006
                   209  2.332285477084990E-012
                   210  1.405651885467036E-012
                   211  2.223546207949224E-008
                   212  5.461558382858870E-003
                   213 -3.223450931355300E-003
                   214 -1.049294682873000E-013
                   215  3.866721473128610E-004
                   216  3.252594792724170E-004
                   217  5.461681355836970E-003
                   218 -3.223504569581300E-003
                   219  1.405653663278110E-012
                   220 -3.867154211936920E-004
                   221  3.252879740858590E-004
                   222 -7.794898096008710E-004
                   223  8.123861640967140E-005
                   224  2.331987371569130E-012
                   225 -2.428762843328000E-005
                   226 -5.711593090807810E-005
                   227 -7.796113074126350E-004
                   228  8.173960773363999E-005
                   229 -5.637936623503760E-013
                   230  2.425800694648740E-005
                   231 -5.716010782582440E-005
                   232 -2.537655907216800E-004
                   233 -3.534471752216990E-004
                   234  3.707156057963290E-013
                   235 -7.966810880483749E-006
                   236  8.749312224374730E-006
                   237 -2.539081540415830E-004
                   238 -3.536161828223860E-004
                   239  5.894192631387550E-013
                   240  8.059951628657699E-006
                   241  8.812299451176159E-006
                   242  8.166813066622851E-005
                   243 -1.487139255462860E-004
                   244  6.787622897630660E-013
                   245 -1.738909569810530E-008
                   246  1.217259601168400E-005
 Sym= __2_a__
 Ene=  0.000000000000000E+000
 Spin= Alpha
 Occup=    2.00000000000000     
                     1 -4.077732410397280E-005
                     2 -1.920430592817770E-004
                     3  1.928422884609390E-003
                     4  9.758260420060079E-005
                     5  1.378663210187630E-003
                     6  6.741681276073630E-012
                     7  5.755186800197170E-009
                     8  2.982959655219980E-003
                     9 -8.250950315840690E-012
                    10 -3.405050186315720E-009
                    11 -5.265613294152200E-005
                    12 -1.230321299662320E-013
                    13  3.108502719004110E-009
                    14 -5.022542802158240E-004
                    15  3.646952979095163E-005
                    16 -2.303605800410430E-012
                    17  3.388543408475110E-010
                    18  6.316114375432740E-005
                    19 -1.242952977657530E-012
                    20 -3.653146923805814E-004
                    21  3.546604315607140E-012
                    22  9.315672252971910E-010
                    23 -3.821098255983640E-004
                    24 -2.523206683020530E-013
                    25  1.747887194143142E-004
                    26 -1.070824277246823E-012
                    27 -2.442998153824977E-009
                    28 -4.799974744063020E-006
                    29 -3.065466286059260E-012
                    30 -2.559587221634875E-012
                    31  7.244357610695369E-010
                    32   1.00105811376104     
                    33  9.234668544226891E-003
                    34  2.647654114681270E-003
                    35 -7.740779444434590E-003
                    36 -4.836896929014500E-013
                    37 -5.307193905780060E-009
                    38 -4.023623374540990E-003
                    39 -6.269708858961480E-012
                    40  2.314615580620390E-009
                    41  1.004100844576960E-003
                    42 -9.665426017409140E-012
                    43 -5.931277262892190E-008
                    44  4.524425879454950E-003
                    45  4.679851379427693E-004
                    46  1.173242362502770E-012
                    47 -3.117476197944480E-009
                    48 -4.331260269135020E-004
                    49  2.749132759402560E-012
                    50  5.828667559891332E-004
                    51  5.846600023785060E-012
                    52  1.015194983792600E-008
                    53  9.510978895583200E-004
                    54  9.781336792222420E-012
                    55  3.813292966830268E-004
                    56 -1.166023795135790E-012
                    57  2.703720808529238E-010
                    58 -2.102432545814100E-004
                    59  7.237181208395070E-012
                    60 -1.816433034446621E-012
                    61  1.553484931628347E-009
                    62  7.208892122867880E-003
                    63 -2.047752804216600E-003
                    64 -2.794625654622130E-004
                    65  3.065337980421620E-003
                    66  5.975209377687190E-012
                    67  1.207815097690900E-004
                    68 -4.650883769178740E-005
                    69  4.093137488773950E-012
                    70  6.013861792184920E-004
                    71  2.230331979866060E-005
                    72 -1.477287923276590E-012
                    73 -2.134613811103360E-003
                    74  7.843460270250030E-005
                    75 -1.664667525970859E-005
                    76  5.137359043450590E-013
                    77  1.365605667688800E-005
                    78  2.724327502497460E-005
                    79 -1.117252010257370E-012
                    80  7.719137326959680E-004
                    81 -1.740841904017070E-011
                    82 -4.330522518838750E-004
                    83 -9.482201192463721E-006
                    84  1.082234950275770E-011
                    85  7.249365277463332E-005
                    86 -4.136158946650275E-012
                    87  4.641443386388340E-005
                    88 -1.262767997678564E-004
                    89 -5.878664320081100E-012
                    90  3.440877889111805E-013
                    91  5.024900219147211E-005
                    92  7.208867111084370E-003
                    93 -2.047836745810070E-003
                    94 -2.795038376125010E-004
                    95  3.065535590582070E-003
                    96  8.613714784400360E-012
                    97 -1.207829003143090E-004
                    98 -4.653066434157040E-005
                    99 -6.393955783226280E-012
                   100 -6.013829452161420E-004
                   101  2.243086625016500E-005
                   102  4.865393074621780E-012
                   103  2.134737629138800E-003
                   104  7.829438270459320E-005
                   105 -1.663213195397267E-005
                   106 -2.680223762940290E-013
                   107 -1.366208987831010E-005
                   108  2.724195661357880E-005
                   109  1.696979180791320E-012
                   110  7.719719225503888E-004
                   111  5.266180916295740E-012
                   112  4.330985490448050E-004
                   113 -9.463352670085100E-006
                   114  2.845241703556610E-012
                   115  7.248085388173607E-005
                   116 -1.624454329340857E-012
                   117 -4.641229123183671E-005
                   118 -1.262743168934134E-004
                   119 -5.324544841907970E-012
                   120 -3.291805272265709E-012
                   121 -5.024785469984180E-005
                   122 -2.391141564054120E-004
                   123 -7.757258020571590E-004
                   124  2.254929154970840E-004
                   125 -1.084969978275870E-004
                   126 -6.105160603791940E-012
                   127 -2.141111771185690E-005
                   128 -2.316647520742640E-004
                   129  2.256693512626920E-011
                   130 -3.318012974717470E-006
                   131  5.397764593205900E-004
                   132 -6.470559735495140E-012
                   133  3.259233686093030E-004
                   134  7.626388767381860E-004
                   135 -1.465032291784598E-005
                   136  1.214995803421490E-012
                   137  5.111078329916120E-005
                   138  1.365258471493146E-005
                   139  9.391524804806341E-013
                   140 -2.948531749668592E-004
                   141 -3.456595349844300E-012
                   142 -2.217698664065030E-004
                   143 -1.277131256339002E-005
                   144  5.927740180121160E-012
                   145  2.246345537571759E-007
                   146  1.441335669860675E-012
                   147 -4.054930509933133E-005
                   148 -3.958307593280160E-005
                   149  2.839294814448290E-012
                   150  1.236064208329899E-012
                   151 -5.626030961973930E-006
                   152 -2.388425987371570E-004
                   153 -7.748236902962990E-004
                   154  2.255542397642810E-004
                   155 -1.094490036541550E-004
                   156  5.124211294057630E-012
                   157  2.140353989860830E-005
                   158 -2.316688459514880E-004
                   159 -3.621530373096450E-012
                   160  3.352852056849210E-006