[Molden Format]
[Atoms] AU
  N     1    7     0.0000000000    0.0000000000   -4.2907334100        
  C     2    6     0.0000000000    0.0000000000   -1.7772236300        
  C     3    6     0.0000000000   -2.3389203600   -0.4111016300        
  C     4    6     0.0000000000    2.3389203600   -0.4111016300        
  C     5    6     0.0000000000   -2.2998668500    2.1639215300        
  C     6    6     0.0000000000    2.2998668500    2.1639215300        
  C     7    6     0.0000000000    0.0000000000    3.4755251800        
  H     8    1     0.0000000000   -1.2866404800   -5.0844826000        
  H     9    1     0.0000000000    1.6528040300   -5.3103747800        
  H    10    1     0.0000000000   -4.0745407300   -1.4447408500        
  H    11    1     0.0000000000    4.0745407300   -1.4447408500        
  H    12    1     0.0000000000   -4.0420632100    3.1963889500        
  H    13    1     0.0000000000    4.0420632100    3.1963889500        
  H    14    1     0.0000000000    0.0000000000    5.5020335600        
[5D]
[7F]
[GTO]
  1  0
   s    12 1.00
  0.114200D+05  0.172695D-04
  0.171200D+04  0.134411D-03
  0.389300D+03  0.694561D-03
  0.110000D+03  0.278531D-02
  0.355700D+02  0.863457D-02
  0.125400D+02  0.199805D-01
  0.464400D+01  0.262908D-01
  0.129300D+01 -0.243845D-01
  0.511800D+00 -0.924934D-01
  0.178700D+00 -0.339683D+00
  0.246240D-01  0.345111D+00
  0.112530D-01  0.752750D+00
   s    10 1.00
  0.114200D+05  0.523000D-03
  0.171200D+04  0.404500D-02
  0.389300D+03  0.207750D-01
  0.110000D+03  0.807269D-01
  0.355700D+02  0.233074D+00
  0.125400D+02  0.433501D+00
  0.464400D+01  0.347472D+00
  0.129300D+01  0.412620D-01
  0.511800D+00 -0.850799D-02
  0.178700D+00  0.238400D-02
   s    10 1.00
  0.114200D+05 -0.115000D-03
  0.171200D+04 -0.895000D-03
  0.389300D+03 -0.462400D-02
  0.110000D+03 -0.185280D-01
  0.355700D+02 -0.573390D-01
  0.125400D+02 -0.132076D+00
  0.464400D+01 -0.172510D+00
  0.129300D+01  0.151814D+00
  0.511800D+00  0.599944D+00
  0.178700D+00  0.387462D+00
   s     1 1.00
  0.129300D+01  0.100000D+01
   s     1 1.00
  0.178700D+00  0.100000D+01
   p     5 1.00
  0.266300D+02  0.146700D-01
  0.594800D+01  0.917640D-01
  0.174200D+01  0.298683D+00
  0.555000D+00  0.498487D+00
  0.172500D+00  0.337023D+00
   p     1 1.00
  0.174200D+01  0.100000D+01
   p     1 1.00
  0.555000D+00  0.100000D+01
   d     1 1.00
  0.165400D+01  0.100000D+01
   d     1 1.00
  0.469000D+00  0.100000D+01
   f     1 1.00
  0.109300D+01  0.100000D+01
  
  2  0
   s    10 1.00
  0.823600D+04  0.531000D-03
  0.123500D+04  0.410800D-02
  0.280800D+03  0.210870D-01
  0.792700D+02  0.818530D-01
  0.255900D+02  0.234817D+00
  0.899700D+01  0.434401D+00
  0.331900D+01  0.346129D+00
  0.905900D+00  0.393780D-01
  0.364300D+00 -0.898300D-02
  0.128500D+00  0.238500D-02
   s    10 1.00
  0.823600D+04 -0.113000D-03
  0.123500D+04 -0.878000D-03
  0.280800D+03 -0.454000D-02
  0.792700D+02 -0.181330D-01
  0.255900D+02 -0.557600D-01
  0.899700D+01 -0.126895D+00
  0.331900D+01 -0.170352D+00
  0.905900D+00  0.140382D+00
  0.364300D+00  0.598684D+00
  0.128500D+00  0.395389D+00
   s     1 1.00
  0.905900D+00  0.100000D+01
   s     1 1.00
  0.364300D+00  0.100000D+01
   p     5 1.00
  0.187100D+02  0.140310D-01
  0.413300D+01  0.868660D-01
  0.120000D+01  0.290216D+00
  0.382700D+00  0.501008D+00
  0.120900D+00  0.343406D+00
   p     1 1.00
  0.382700D+00  0.100000D+01
   p     1 1.00
  0.120900D+00  0.100000D+01
   d     1 1.00
  0.109700D+01  0.100000D+01
   d     1 1.00
  0.318000D+00  0.100000D+01
   f     1 1.00
  0.761000D+00  0.100000D+01
  
  3  0
   s    10 1.00
  0.823600D+04  0.531000D-03
  0.123500D+04  0.410800D-02
  0.280800D+03  0.210870D-01
  0.792700D+02  0.818530D-01
  0.255900D+02  0.234817D+00
  0.899700D+01  0.434401D+00
  0.331900D+01  0.346129D+00
  0.905900D+00  0.393780D-01
  0.364300D+00 -0.898300D-02
  0.128500D+00  0.238500D-02
   s    10 1.00
  0.823600D+04 -0.113000D-03
  0.123500D+04 -0.878000D-03
  0.280800D+03 -0.454000D-02
  0.792700D+02 -0.181330D-01
  0.255900D+02 -0.557600D-01
  0.899700D+01 -0.126895D+00
  0.331900D+01 -0.170352D+00
  0.905900D+00  0.140382D+00
  0.364300D+00  0.598684D+00
  0.128500D+00  0.395389D+00
   s     1 1.00
  0.905900D+00  0.100000D+01
   s     1 1.00
  0.364300D+00  0.100000D+01
   p     5 1.00
  0.187100D+02  0.140310D-01
  0.413300D+01  0.868660D-01
  0.120000D+01  0.290216D+00
  0.382700D+00  0.501008D+00
  0.120900D+00  0.343406D+00
   p     1 1.00
  0.382700D+00  0.100000D+01
   p     1 1.00
  0.120900D+00  0.100000D+01
   d     1 1.00
  0.109700D+01  0.100000D+01
   d     1 1.00
  0.318000D+00  0.100000D+01
   f     1 1.00
  0.761000D+00  0.100000D+01
  
  4  0
   s    10 1.00
  0.823600D+04  0.531000D-03
  0.123500D+04  0.410800D-02
  0.280800D+03  0.210870D-01
  0.792700D+02  0.818530D-01
  0.255900D+02  0.234817D+00
  0.899700D+01  0.434401D+00
  0.331900D+01  0.346129D+00
  0.905900D+00  0.393780D-01
  0.364300D+00 -0.898300D-02
  0.128500D+00  0.238500D-02
   s    10 1.00
  0.823600D+04 -0.113000D-03
  0.123500D+04 -0.878000D-03
  0.280800D+03 -0.454000D-02
  0.792700D+02 -0.181330D-01
  0.255900D+02 -0.557600D-01
  0.899700D+01 -0.126895D+00
  0.331900D+01 -0.170352D+00
  0.905900D+00  0.140382D+00
  0.364300D+00  0.598684D+00
  0.128500D+00  0.395389D+00
   s     1 1.00
  0.905900D+00  0.100000D+01
   s     1 1.00
  0.364300D+00  0.100000D+01
   p     5 1.00
  0.187100D+02  0.140310D-01
  0.413300D+01  0.868660D-01
  0.120000D+01  0.290216D+00
  0.382700D+00  0.501008D+00
  0.120900D+00  0.343406D+00
   p     1 1.00
  0.382700D+00  0.100000D+01
   p     1 1.00
  0.120900D+00  0.100000D+01
   d     1 1.00
  0.109700D+01  0.100000D+01
   d     1 1.00
  0.318000D+00  0.100000D+01
   f     1 1.00
  0.761000D+00  0.100000D+01
  
  5  0
   s    10 1.00
  0.823600D+04  0.531000D-03
  0.123500D+04  0.410800D-02
  0.280800D+03  0.210870D-01
  0.792700D+02  0.818530D-01
  0.255900D+02  0.234817D+00
  0.899700D+01  0.434401D+00
  0.331900D+01  0.346129D+00
  0.905900D+00  0.393780D-01
  0.364300D+00 -0.898300D-02
  0.128500D+00  0.238500D-02
   s    10 1.00
  0.823600D+04 -0.113000D-03
  0.123500D+04 -0.878000D-03
  0.280800D+03 -0.454000D-02
  0.792700D+02 -0.181330D-01
  0.255900D+02 -0.557600D-01
  0.899700D+01 -0.126895D+00
  0.331900D+01 -0.170352D+00
  0.905900D+00  0.140382D+00
  0.364300D+00  0.598684D+00
  0.128500D+00  0.395389D+00
   s     1 1.00
  0.905900D+00  0.100000D+01
   s     1 1.00
  0.364300D+00  0.100000D+01
   p     5 1.00
  0.187100D+02  0.140310D-01
  0.413300D+01  0.868660D-01
  0.120000D+01  0.290216D+00
  0.382700D+00  0.501008D+00
  0.120900D+00  0.343406D+00
   p     1 1.00
  0.382700D+00  0.100000D+01
   p     1 1.00
  0.120900D+00  0.100000D+01
   d     1 1.00
  0.109700D+01  0.100000D+01
   d     1 1.00
  0.318000D+00  0.100000D+01
   f     1 1.00
  0.761000D+00  0.100000D+01
  
  6  0
   s    10 1.00
  0.823600D+04  0.531000D-03
  0.123500D+04  0.410800D-02
  0.280800D+03  0.210870D-01
  0.792700D+02  0.818530D-01
  0.255900D+02  0.234817D+00
  0.899700D+01  0.434401D+00
  0.331900D+01  0.346129D+00
  0.905900D+00  0.393780D-01
  0.364300D+00 -0.898300D-02
  0.128500D+00  0.238500D-02
   s    10 1.00
  0.823600D+04 -0.113000D-03
  0.123500D+04 -0.878000D-03
  0.280800D+03 -0.454000D-02
  0.792700D+02 -0.181330D-01
  0.255900D+02 -0.557600D-01
  0.899700D+01 -0.126895D+00
  0.331900D+01 -0.170352D+00
  0.905900D+00  0.140382D+00
  0.364300D+00  0.598684D+00
  0.128500D+00  0.395389D+00
   s     1 1.00
  0.905900D+00  0.100000D+01
   s     1 1.00
  0.364300D+00  0.100000D+01
   p     5 1.00
  0.187100D+02  0.140310D-01
  0.413300D+01  0.868660D-01
  0.120000D+01  0.290216D+00
  0.382700D+00  0.501008D+00
  0.120900D+00  0.343406D+00
   p     1 1.00
  0.382700D+00  0.100000D+01
   p     1 1.00
  0.120900D+00  0.100000D+01
   d     1 1.00
  0.109700D+01  0.100000D+01
   d     1 1.00
  0.318000D+00  0.100000D+01
   f     1 1.00
  0.761000D+00  0.100000D+01
  
  7  0
   s    10 1.00
  0.823600D+04  0.531000D-03
  0.123500D+04  0.410800D-02
  0.280800D+03  0.210870D-01
  0.792700D+02  0.818530D-01
  0.255900D+02  0.234817D+00
  0.899700D+01  0.434401D+00
  0.331900D+01  0.346129D+00
  0.905900D+00  0.393780D-01
  0.364300D+00 -0.898300D-02
  0.128500D+00  0.238500D-02
   s    10 1.00
  0.823600D+04 -0.113000D-03
  0.123500D+04 -0.878000D-03
  0.280800D+03 -0.454000D-02
  0.792700D+02 -0.181330D-01
  0.255900D+02 -0.557600D-01
  0.899700D+01 -0.126895D+00
  0.331900D+01 -0.170352D+00
  0.905900D+00  0.140382D+00
  0.364300D+00  0.598684D+00
  0.128500D+00  0.395389D+00
   s     1 1.00
  0.905900D+00  0.100000D+01
   s     1 1.00
  0.364300D+00  0.100000D+01
   p     5 1.00
  0.187100D+02  0.140310D-01
  0.413300D+01  0.868660D-01
  0.120000D+01  0.290216D+00
  0.382700D+00  0.501008D+00
  0.120900D+00  0.343406D+00
   p     1 1.00
  0.382700D+00  0.100000D+01
   p     1 1.00
  0.120900D+00  0.100000D+01
   d     1 1.00
  0.109700D+01  0.100000D+01
   d     1 1.00
  0.318000D+00  0.100000D+01
   f     1 1.00
  0.761000D+00  0.100000D+01
  
  8  0
   s     4 1.00
  0.130100D+02  0.196850D-01
  0.196200D+01  0.137977D+00
  0.444600D+00  0.478148D+00
  0.122000D+00  0.501240D+00
   s     1 1.00
  0.122000D+00  0.100000D+01
   p     1 1.00
  0.727000D+00  0.100000D+01
  
  9  0
   s     4 1.00
  0.130100D+02  0.196850D-01
  0.196200D+01  0.137977D+00
  0.444600D+00  0.478148D+00
  0.122000D+00  0.501240D+00
   s     1 1.00
  0.122000D+00  0.100000D+01
   p     1 1.00
  0.727000D+00  0.100000D+01
  
 10  0
   s     4 1.00
  0.130100D+02  0.196850D-01
  0.196200D+01  0.137977D+00
  0.444600D+00  0.478148D+00
  0.122000D+00  0.501240D+00
   s     1 1.00
  0.122000D+00  0.100000D+01
   p     1 1.00
  0.727000D+00  0.100000D+01
  
 11  0
   s     4 1.00
  0.130100D+02  0.196850D-01
  0.196200D+01  0.137977D+00
  0.444600D+00  0.478148D+00
  0.122000D+00  0.501240D+00
   s     1 1.00
  0.122000D+00  0.100000D+01
   p     1 1.00
  0.727000D+00  0.100000D+01
  
 12  0
   s     4 1.00
  0.130100D+02  0.196850D-01
  0.196200D+01  0.137977D+00
  0.444600D+00  0.478148D+00
  0.122000D+00  0.501240D+00
   s     1 1.00
  0.122000D+00  0.100000D+01
   p     1 1.00
  0.727000D+00  0.100000D+01
  
 13  0
   s     4 1.00
  0.130100D+02  0.196850D-01
  0.196200D+01  0.137977D+00
  0.444600D+00  0.478148D+00
  0.122000D+00  0.501240D+00
   s     1 1.00
  0.122000D+00  0.100000D+01
   p     1 1.00
  0.727000D+00  0.100000D+01
  
 14  0
   s     4 1.00
  0.130100D+02  0.196850D-01
  0.196200D+01  0.137977D+00
  0.444600D+00  0.478148D+00
  0.122000D+00  0.501240D+00
   s     1 1.00
  0.122000D+00  0.100000D+01
   p     1 1.00
  0.727000D+00  0.100000D+01
  
[MO]
 Sym= __1_a__
 Ene=  0.000000000000000E+000
 Spin= Alpha
 Occup=    2.00000000000000     
                     1  5.813846975056890E-005
                     2  0.997681495556946     
                     3  1.202003996723120E-002
                     4  2.485028148797220E-003
                     5  2.104579346382370E-004
                     6  7.207931817013130E-012
                     7 -6.169791687969990E-004
                     8  4.090897773470290E-003
                     9 -5.311083576410820E-012
                    10 -4.263773788155840E-004
                    11 -2.845713036967440E-004
                    12 -2.136841230170430E-012
                    13 -3.366969134973680E-004
                    14 -1.054166749709040E-004
                    15  2.394373146142850E-004
                    16  1.167545291282110E-012
                    17  3.532891001211860E-004
                    18 -4.216306270723960E-004
                    19 -8.034430964663260E-013
                    20  1.756268962245936E-004
                    21  5.097511402425140E-012
                    22  1.097446176591380E-004
                    23  4.745169977392440E-004
                    24 -5.119490303305820E-013
                    25 -3.458019347001795E-004
                    26  5.145460020848520E-013
                    27 -6.231404865072374E-005
                    28  3.250403479299680E-004
                    29  2.649695431358090E-012
                    30 -2.618842681095196E-012
                    31  1.417444169749449E-004
                    32 -3.858952493524530E-004
                    33  2.930159594378690E-003
                    34  1.750187645923680E-004
                    35 -3.027656893538360E-004
                    36 -1.128744819736540E-011
                    37  2.409864325672490E-004
                    38 -7.655234849283810E-003
                    39  7.184122609569730E-012
                    40 -9.638260234054159E-005
                    41  3.826119438995540E-004
                    42 -3.001370836662700E-012
                    43  3.260576892099220E-004
                    44  3.758939365491700E-003
                    45  3.583799254543794E-004
                    46  6.410048809664590E-013
                    47  2.981928384952860E-005
                    48  1.496501209753990E-004
                    49 -4.141615614214160E-012
                    50 -1.140471129168018E-005
                    51  8.329421785088910E-012
                    52 -2.029389875068440E-004
                    53 -4.917984038426040E-004
                    54 -2.439480270411820E-013
                    55 -1.474119883777420E-004
                    56 -4.224607464045451E-012
                    57  1.987881099059999E-006
                    58  1.210163086271718E-004
                    59 -2.273775178896150E-012
                    60 -4.844882020097587E-012
                    61 -6.478361332499659E-006
                    62 -2.063905074814330E-004
                    63 -1.905315126069780E-003
                    64  7.042997243964971E-005
                    65  4.628625323624730E-004
                    66 -5.293870073757800E-012
                    67 -1.002694781735990E-003
                    68  1.275958299685470E-003
                    69 -1.200797168614090E-012
                    70 -1.098394269855400E-004
                    71  6.251864427243830E-004
                    72  5.757020302837990E-012
                    73 -1.592164647612530E-004
                    74 -3.277802790090340E-004
                    75  9.703689533708573E-005
                    76  6.989499978762110E-013
                    77 -8.693489556303331E-006
                    78  4.596192501319020E-005
                    79  2.074488814353770E-012
                    80 -8.219363527650830E-006
                    81 -7.020057965398860E-014
                    82  2.484761370939180E-004
                    83 -2.476922900986660E-005
                    84 -3.492982905433540E-012
                    85 -9.516936088337838E-005
                    86  1.602902536002637E-012
                    87 -3.443889931124827E-005
                    88  2.285122571834740E-005
                    89  2.048400228331760E-012
                    90 -3.134137289208216E-012
                    91  8.816580614750828E-006
                    92 -1.840266608457590E-004
                    93 -1.567327635056560E-003
                    94  3.574375849154330E-005
                    95  6.409732113595950E-004
                    96 -1.766702557126860E-011
                    97  7.949331322729360E-004
                    98  1.011030947441370E-003
                    99  1.562762592988080E-011
                   100 -8.338419715920410E-005
                   101  5.675018654749380E-004
                   102  4.469948447369170E-012
                   103  4.627317564927760E-004
                   104  3.632350871412580E-004
                   105  1.047673277232695E-004
                   106 -1.954693796356420E-012
                   107  2.870208793182120E-005
                   108  3.405073006340560E-005
                   109 -2.968770315923110E-012
                   110 -1.738881425903316E-004
                   111 -2.006321073544870E-012
                   112 -2.767910507700260E-004
                   113 -9.943953646187340E-005
                   114  3.825255502324330E-012
                   115 -1.097997730528557E-004
                   116  1.214485844427534E-012
                   117  4.167909210660954E-005
                   118  2.601818841079980E-005
                   119  2.983702429748690E-012
                   120  6.856459704869821E-013
                   121 -1.076348718957034E-005
                   122 -1.386283192385640E-004
                   123  1.270423273280210E-004
                   124  1.217543643489110E-004
                   125  3.061041365545520E-005
                   126  4.832026941874650E-012
                   127  6.038127243546430E-005
                   128 -9.266607004579470E-004
                   129 -6.119982621107980E-012
                   130 -1.864977497717410E-005
                   131  3.584109492990450E-004
                   132 -4.390577123561220E-012
                   133 -2.856033914698400E-004
                   134  2.917299481956250E-004
                   135 -1.834438249253669E-005
                   136  8.691016265107960E-014
                   137  3.695437983677380E-006
                   138  3.353704510110460E-006
                   139 -4.794921349032640E-013
                   140 -1.522183615640526E-004
                   141 -2.120988890299370E-012
                   142  1.595399779742070E-004
                   143  2.079674032372920E-005
                   144  1.400468242298010E-012
                   145 -3.724389835644571E-005
                   146  1.070950145957700E-012
                   147  5.510544108719864E-006
                   148 -6.821857905101340E-006
                   149  2.866670477926760E-012
                   150 -1.236873220282609E-012
                   151 -1.438623157079516E-006
                   152 -1.455725992194530E-004
                   153  2.605903324907410E-005
                   154  1.021295770329640E-004
                   155  2.043685114998620E-004
                   156 -9.168735329138390E-012
                   157 -4.178795935947950E-005
                   158 -8.258732319192370E-004
                   159  1.245090918469850E-011
                   160  5.595232969069510E-006
                   161  3.115768158737480E-004
                   162 -2.575979300674020E-013
                   163 -1.196308898398010E-005
                   164  9.239040254549210E-004
                   165 -1.801649336509159E-005
                   166  1.448221704345650E-012
                   167  2.177738610647580E-006
                   168  1.959287757356722E-006
                   169 -1.047755805157820E-012
                   170 -1.761439802886288E-004
                   171 -6.834833271318900E-013
                   172 -2.146998970536640E-004
                   173  7.895643468068440E-006
                   174 -4.357884263372180E-012
                   175 -4.226898724807547E-005
                   176  1.861259162078659E-012
                   177  7.632174117295728E-007
                   178 -1.123550316635030E-005
                   179 -1.353970276530380E-012
                   180  2.756562609110596E-012
                   181  4.464694444697459E-006
                   182 -1.173332643716650E-004
                   183 -3.100120121782360E-004
                   184  2.872149085040110E-005
                   185  1.387664418695690E-004
                   186 -5.854921434758930E-012
                   187 -3.720224262456020E-006
                   188 -3.713024779495910E-005
                   189 -1.782823906601720E-012
                   190 -3.194175408008640E-005
                   191 -2.529537029383830E-006
                   192  8.665738775260299E-012
                   193 -3.672669152306900E-004
                   194  1.340867810589620E-004
                   195  2.138860492485387E-005
                   196 -5.481819422624630E-013
                   197  9.182625835257480E-007
                   198  1.012352478872580E-005
                   199 -1.634464898631000E-012
                   200  6.167842921982006E-005
                   201  3.820874786048410E-012
                   202  2.956954607462790E-005
                   203  4.460872253308460E-005
                   204 -1.302873493318370E-012
                   205 -1.362569678459676E-005
                   206  2.026085440042836E-012
                   207 -3.270300284478514E-006
                   208  6.466890568431520E-006
                   209  3.128579524850780E-012
                   210  2.448901444625684E-013
                   211  5.480306715933894E-007
                   212  5.856261231593270E-003
                   213 -3.641746625769070E-003
                   214  1.703393440818310E-012
                   215  2.067386768456490E-004
                   216  2.446495334259830E-004
                   217  4.162479744587330E-003
                   218 -2.382965841604420E-003
                   219  1.501975065613090E-012
                   220 -4.873563738089980E-004
                   221  3.809587167844020E-004
                   222 -7.698924777288080E-004
                   223  1.160704366289390E-004
                   224  4.566522791449620E-014
                   225 -3.023685744220570E-005
                   226 -4.046689232195130E-005
                   227 -7.718140937389900E-004
                   228  5.831174948376320E-005
                   229 -5.395477464437570E-012
                   230  1.624622863172580E-005
                   231 -7.097363691165949E-005
                   232 -2.875032771340760E-004
                   233 -3.269899427031490E-004
                   234  2.487835256329430E-012
                   235 -6.739974944665120E-006
                   236  8.044173132925320E-006
                   237 -2.173880834370280E-004
                   238 -3.758608578600510E-004
                   239  2.117600611361820E-012
                   240  6.762397998183760E-006
                   241  8.889102967407620E-006
                   242  8.027417446835830E-005
                   243 -1.545232625879240E-004
                   244 -2.834395243600190E-012
                   245  1.921768898544390E-006
                   246  1.145292783906570E-005
 Sym= __2_a__
 Ene=  0.000000000000000E+000
 Spin= Alpha
 Occup=    2.00000000000000     
                     1 -3.992923144147510E-005
                     2 -2.083489299193280E-004
                     3  1.907216750480250E-003
                     4  1.008955727702100E-004
                     5  1.424416830242130E-003
                     6 -1.180229763487630E-011
                     7  1.246622448255770E-004
                     8  2.995334382407430E-003
                     9  5.456975336563680E-012
                    10  2.371899006171840E-005
                    11 -5.358714316460020E-005
                    12  3.541754580862700E-012
                    13 -2.029849165069850E-005
                    14 -4.582402040247880E-004
                    15  3.400803837695504E-005
                    16 -3.806894417982960E-013
                    17  7.026537197728680E-007
                    18  6.415356759602780E-005
                    19 -5.369889793055510E-013
                    20 -3.523481360276454E-004
                    21 -4.296466315666670E-013
                    22 -1.077185991263020E-004
                    23 -3.736235453255380E-004
                    24  3.540584598308310E-012
                    25  1.744731551204613E-004
                    26  2.247238782854308E-013
                    27  3.218135511096970E-005
                    28 -7.632405716003641E-006
                    29 -5.574587258457010E-013
                    30 -5.223931228288742E-013
                    31  7.144449348169306E-006
                    32   1.00105853238086     
                    33  9.239195882935090E-003
                    34  2.650206029405150E-003
                    35 -7.759051227117130E-003
                    36  6.172736331314720E-012
                    37 -6.025302235582280E-006
                    38 -4.036250890643420E-003
                    39 -7.224329629565470E-013
                    40  2.375428540492200E-005
                    41  1.024420946964090E-003
                    42  1.307762746803000E-011
                    43 -1.012821898314520E-004
                    44  4.537920779538660E-003
                    45  4.661042363803706E-004
                    46 -2.696521755811750E-012
                    47  7.573318105043760E-006
                    48 -4.325734755770920E-004
                    49 -6.748641869311410E-015
                    50  5.684399461196494E-004
                    51  3.183157254992530E-012
                    52 -8.709519868215620E-005
                    53  9.468222394900780E-004
                    54  6.440807395707170E-012
                    55  3.789600953691132E-004
                    56  3.178964527722928E-012
                    57  1.652051752284880E-006
                    58 -2.105341610895440E-004
                    59  6.304842525996010E-013
                    60  3.155730279474044E-012
                    61 -9.558826203702049E-007
                    62  7.231273827861570E-003
                    63 -2.067398840162080E-003
                    64 -2.766415535723050E-004
                    65  3.045299958515380E-003
                    66 -3.446208133089330E-012
                    67  1.177048147752510E-004
                    68 -3.883445369172960E-005
                    69  6.434388877584690E-012
                    70  5.742835272818170E-004
                    71  2.232176940899090E-005
                    72 -4.216193024112250E-012
                    73 -2.183596119113050E-003
                    74  1.488784268332000E-004
                    75 -1.689012708480712E-005
                    76 -3.724363555151490E-012
                    77  1.480870345838060E-005
                    78  2.786569868953500E-005
                    79 -2.000161572057360E-012
                    80  7.911056571805874E-004
                    81  9.535908593053489E-012
                    82 -4.339130941353870E-004
                    83 -1.615977632369532E-006
                    84 -1.123955376135340E-013
                    85  7.383912608511111E-005
                    86 -1.665606697450712E-012
                    87  4.976269535567620E-005
                    88 -1.253865837150174E-004
                    89 -3.187817869815100E-013
                    90 -2.244312599699805E-012
                    91  4.969716920475949E-005
                    92  7.202602742986820E-003
                    93 -2.042159030415760E-003
                    94 -2.806612244988850E-004
                    95  3.083604403038140E-003
                    96  7.399608195936239E-012
                    97 -1.162179412409890E-004
                    98 -4.567454023788510E-005
                    99 -7.994326394934799E-012
                   100 -6.271318343333840E-004
                   101  3.093188780796210E-005
                   102 -1.048019920277180E-011
                   103  2.095601342038830E-003
                   104  8.370430596601289E-006
                   105 -1.585489975181035E-005
                   106 -1.906742225828050E-012
                   107 -1.234476470078670E-005
                   108  2.725234019116320E-005
                   109 -3.201280485204440E-012
                   110  7.512908847434274E-004
                   111  2.409883776050700E-012
                   112  4.244307951830680E-004
                   113 -1.806169764683860E-005
                   114  8.807328542994590E-012
                   115  7.175925741216185E-005
                   116 -2.861875329038753E-013
                   117 -4.374530941284554E-005
                   118 -1.272929807917230E-004
                   119 -2.405338511482900E-012
                   120  6.023811466467421E-014
                   121 -5.096051129794935E-005
                   122 -2.406263329136450E-004
                   123 -7.870091980254240E-004
                   124  2.242271330676950E-004
                   125 -9.987025396605140E-005
                   126 -5.786209181233610E-012
                   127 -2.304595985114630E-005
                   128 -2.334773965785990E-004
                   129 -5.893522760038809E-014
                   130  6.391720678843090E-006
                   131  5.449773247821010E-004
                   132 -8.244643662389060E-013
                   133  3.653531291645480E-004
                   134  8.335742273281250E-004
                   135 -1.383993960670393E-005
                   136  3.313241276662620E-012
                   137  5.157040876179820E-005
                   138  1.354117533136936E-005
                   139 -9.379785578324940E-013
                   140 -2.996539908969601E-004
                   141  1.366267719391500E-012
                   142 -2.213642495828240E-004
                   143 -1.682925136252424E-005
                   144 -4.795143200929840E-012
                   145  1.252368418900020E-006
                   146 -1.506237899295333E-012
                   147 -4.147088363138667E-005
                   148 -3.968805561546440E-005
                   149  2.241573018254280E-013
                   150 -3.833678827354954E-012
                   151 -5.968483045319850E-006
                   152 -2.376079014216680E-004
                   153 -7.649548097167780E-004
                   154  2.270149915629480E-004
                   155 -1.151397179834560E-004
                   156  1.526397885263090E-011
                   157  1.886592924816450E-005
                   158 -2.361406930114340E-004
                   159 -1.373033258982020E-011
                   160  1.712420437779330E-005