[Molden Format]
[Atoms] AU
  N     1    7     0.0000000000    0.0000000000   -4.2907334100        
  C     2    6     0.0000000000    0.0000000000   -1.7772236300        
  C     3    6     0.0000000000   -2.3389203600   -0.4111016300        
  C     4    6     0.0000000000    2.3389203600   -0.4111016300        
  C     5    6     0.0000000000   -2.2998668500    2.1639215300        
  C     6    6     0.0000000000    2.2998668500    2.1639215300        
  C     7    6     0.0000000000    0.0000000000    3.4755251800        
  H     8    1     0.0000000000   -1.2866404800   -5.0844826000        
  H     9    1     0.0000000000    1.6528040300   -5.3103747800        
  H    10    1     0.0000000000   -4.0745407300   -1.4447408500        
  H    11    1     0.0000000000    4.0745407300   -1.4447408500        
  H    12    1     0.0000000000   -4.0420632100    3.1963889500        
  H    13    1     0.0000000000    4.0420632100    3.1963889500        
  H    14    1     0.0000000000    0.0000000000    5.5020335600        
[5D]
[7F]
[GTO]
  1  0
   s    12 1.00
  0.114200D+05  0.172695D-04
  0.171200D+04  0.134411D-03
  0.389300D+03  0.694561D-03
  0.110000D+03  0.278531D-02
  0.355700D+02  0.863457D-02
  0.125400D+02  0.199805D-01
  0.464400D+01  0.262908D-01
  0.129300D+01 -0.243845D-01
  0.511800D+00 -0.924934D-01
  0.178700D+00 -0.339683D+00
  0.246240D-01  0.345111D+00
  0.112530D-01  0.752750D+00
   s    10 1.00
  0.114200D+05  0.523000D-03
  0.171200D+04  0.404500D-02
  0.389300D+03  0.207750D-01
  0.110000D+03  0.807269D-01
  0.355700D+02  0.233074D+00
  0.125400D+02  0.433501D+00
  0.464400D+01  0.347472D+00
  0.129300D+01  0.412620D-01
  0.511800D+00 -0.850799D-02
  0.178700D+00  0.238400D-02
   s    10 1.00
  0.114200D+05 -0.115000D-03
  0.171200D+04 -0.895000D-03
  0.389300D+03 -0.462400D-02
  0.110000D+03 -0.185280D-01
  0.355700D+02 -0.573390D-01
  0.125400D+02 -0.132076D+00
  0.464400D+01 -0.172510D+00
  0.129300D+01  0.151814D+00
  0.511800D+00  0.599944D+00
  0.178700D+00  0.387462D+00
   s     1 1.00
  0.129300D+01  0.100000D+01
   s     1 1.00
  0.178700D+00  0.100000D+01
   p     5 1.00
  0.266300D+02  0.146700D-01
  0.594800D+01  0.917640D-01
  0.174200D+01  0.298683D+00
  0.555000D+00  0.498487D+00
  0.172500D+00  0.337023D+00
   p     1 1.00
  0.174200D+01  0.100000D+01
   p     1 1.00
  0.555000D+00  0.100000D+01
   d     1 1.00
  0.165400D+01  0.100000D+01
   d     1 1.00
  0.469000D+00  0.100000D+01
   f     1 1.00
  0.109300D+01  0.100000D+01
  
  2  0
   s    10 1.00
  0.823600D+04  0.531000D-03
  0.123500D+04  0.410800D-02
  0.280800D+03  0.210870D-01
  0.792700D+02  0.818530D-01
  0.255900D+02  0.234817D+00
  0.899700D+01  0.434401D+00
  0.331900D+01  0.346129D+00
  0.905900D+00  0.393780D-01
  0.364300D+00 -0.898300D-02
  0.128500D+00  0.238500D-02
   s    10 1.00
  0.823600D+04 -0.113000D-03
  0.123500D+04 -0.878000D-03
  0.280800D+03 -0.454000D-02
  0.792700D+02 -0.181330D-01
  0.255900D+02 -0.557600D-01
  0.899700D+01 -0.126895D+00
  0.331900D+01 -0.170352D+00
  0.905900D+00  0.140382D+00
  0.364300D+00  0.598684D+00
  0.128500D+00  0.395389D+00
   s     1 1.00
  0.905900D+00  0.100000D+01
   s     1 1.00
  0.364300D+00  0.100000D+01
   p     5 1.00
  0.187100D+02  0.140310D-01
  0.413300D+01  0.868660D-01
  0.120000D+01  0.290216D+00
  0.382700D+00  0.501008D+00
  0.120900D+00  0.343406D+00
   p     1 1.00
  0.382700D+00  0.100000D+01
   p     1 1.00
  0.120900D+00  0.100000D+01
   d     1 1.00
  0.109700D+01  0.100000D+01
   d     1 1.00
  0.318000D+00  0.100000D+01
   f     1 1.00
  0.761000D+00  0.100000D+01
  
  3  0
   s    10 1.00
  0.823600D+04  0.531000D-03
  0.123500D+04  0.410800D-02
  0.280800D+03  0.210870D-01
  0.792700D+02  0.818530D-01
  0.255900D+02  0.234817D+00
  0.899700D+01  0.434401D+00
  0.331900D+01  0.346129D+00
  0.905900D+00  0.393780D-01
  0.364300D+00 -0.898300D-02
  0.128500D+00  0.238500D-02
   s    10 1.00
  0.823600D+04 -0.113000D-03
  0.123500D+04 -0.878000D-03
  0.280800D+03 -0.454000D-02
  0.792700D+02 -0.181330D-01
  0.255900D+02 -0.557600D-01
  0.899700D+01 -0.126895D+00
  0.331900D+01 -0.170352D+00
  0.905900D+00  0.140382D+00
  0.364300D+00  0.598684D+00
  0.128500D+00  0.395389D+00
   s     1 1.00
  0.905900D+00  0.100000D+01
   s     1 1.00
  0.364300D+00  0.100000D+01
   p     5 1.00
  0.187100D+02  0.140310D-01
  0.413300D+01  0.868660D-01
  0.120000D+01  0.290216D+00
  0.382700D+00  0.501008D+00
  0.120900D+00  0.343406D+00
   p     1 1.00
  0.382700D+00  0.100000D+01
   p     1 1.00
  0.120900D+00  0.100000D+01
   d     1 1.00
  0.109700D+01  0.100000D+01
   d     1 1.00
  0.318000D+00  0.100000D+01
   f     1 1.00
  0.761000D+00  0.100000D+01
  
  4  0
   s    10 1.00
  0.823600D+04  0.531000D-03
  0.123500D+04  0.410800D-02
  0.280800D+03  0.210870D-01
  0.792700D+02  0.818530D-01
  0.255900D+02  0.234817D+00
  0.899700D+01  0.434401D+00
  0.331900D+01  0.346129D+00
  0.905900D+00  0.393780D-01
  0.364300D+00 -0.898300D-02
  0.128500D+00  0.238500D-02
   s    10 1.00
  0.823600D+04 -0.113000D-03
  0.123500D+04 -0.878000D-03
  0.280800D+03 -0.454000D-02
  0.792700D+02 -0.181330D-01
  0.255900D+02 -0.557600D-01
  0.899700D+01 -0.126895D+00
  0.331900D+01 -0.170352D+00
  0.905900D+00  0.140382D+00
  0.364300D+00  0.598684D+00
  0.128500D+00  0.395389D+00
   s     1 1.00
  0.905900D+00  0.100000D+01
   s     1 1.00
  0.364300D+00  0.100000D+01
   p     5 1.00
  0.187100D+02  0.140310D-01
  0.413300D+01  0.868660D-01
  0.120000D+01  0.290216D+00
  0.382700D+00  0.501008D+00
  0.120900D+00  0.343406D+00
   p     1 1.00
  0.382700D+00  0.100000D+01
   p     1 1.00
  0.120900D+00  0.100000D+01
   d     1 1.00
  0.109700D+01  0.100000D+01
   d     1 1.00
  0.318000D+00  0.100000D+01
   f     1 1.00
  0.761000D+00  0.100000D+01
  
  5  0
   s    10 1.00
  0.823600D+04  0.531000D-03
  0.123500D+04  0.410800D-02
  0.280800D+03  0.210870D-01
  0.792700D+02  0.818530D-01
  0.255900D+02  0.234817D+00
  0.899700D+01  0.434401D+00
  0.331900D+01  0.346129D+00
  0.905900D+00  0.393780D-01
  0.364300D+00 -0.898300D-02
  0.128500D+00  0.238500D-02
   s    10 1.00
  0.823600D+04 -0.113000D-03
  0.123500D+04 -0.878000D-03
  0.280800D+03 -0.454000D-02
  0.792700D+02 -0.181330D-01
  0.255900D+02 -0.557600D-01
  0.899700D+01 -0.126895D+00
  0.331900D+01 -0.170352D+00
  0.905900D+00  0.140382D+00
  0.364300D+00  0.598684D+00
  0.128500D+00  0.395389D+00
   s     1 1.00
  0.905900D+00  0.100000D+01
   s     1 1.00
  0.364300D+00  0.100000D+01
   p     5 1.00
  0.187100D+02  0.140310D-01
  0.413300D+01  0.868660D-01
  0.120000D+01  0.290216D+00
  0.382700D+00  0.501008D+00
  0.120900D+00  0.343406D+00
   p     1 1.00
  0.382700D+00  0.100000D+01
   p     1 1.00
  0.120900D+00  0.100000D+01
   d     1 1.00
  0.109700D+01  0.100000D+01
   d     1 1.00
  0.318000D+00  0.100000D+01
   f     1 1.00
  0.761000D+00  0.100000D+01
  
  6  0
   s    10 1.00
  0.823600D+04  0.531000D-03
  0.123500D+04  0.410800D-02
  0.280800D+03  0.210870D-01
  0.792700D+02  0.818530D-01
  0.255900D+02  0.234817D+00
  0.899700D+01  0.434401D+00
  0.331900D+01  0.346129D+00
  0.905900D+00  0.393780D-01
  0.364300D+00 -0.898300D-02
  0.128500D+00  0.238500D-02
   s    10 1.00
  0.823600D+04 -0.113000D-03
  0.123500D+04 -0.878000D-03
  0.280800D+03 -0.454000D-02
  0.792700D+02 -0.181330D-01
  0.255900D+02 -0.557600D-01
  0.899700D+01 -0.126895D+00
  0.331900D+01 -0.170352D+00
  0.905900D+00  0.140382D+00
  0.364300D+00  0.598684D+00
  0.128500D+00  0.395389D+00
   s     1 1.00
  0.905900D+00  0.100000D+01
   s     1 1.00
  0.364300D+00  0.100000D+01
   p     5 1.00
  0.187100D+02  0.140310D-01
  0.413300D+01  0.868660D-01
  0.120000D+01  0.290216D+00
  0.382700D+00  0.501008D+00
  0.120900D+00  0.343406D+00
   p     1 1.00
  0.382700D+00  0.100000D+01
   p     1 1.00
  0.120900D+00  0.100000D+01
   d     1 1.00
  0.109700D+01  0.100000D+01
   d     1 1.00
  0.318000D+00  0.100000D+01
   f     1 1.00
  0.761000D+00  0.100000D+01
  
  7  0
   s    10 1.00
  0.823600D+04  0.531000D-03
  0.123500D+04  0.410800D-02
  0.280800D+03  0.210870D-01
  0.792700D+02  0.818530D-01
  0.255900D+02  0.234817D+00
  0.899700D+01  0.434401D+00
  0.331900D+01  0.346129D+00
  0.905900D+00  0.393780D-01
  0.364300D+00 -0.898300D-02
  0.128500D+00  0.238500D-02
   s    10 1.00
  0.823600D+04 -0.113000D-03
  0.123500D+04 -0.878000D-03
  0.280800D+03 -0.454000D-02
  0.792700D+02 -0.181330D-01
  0.255900D+02 -0.557600D-01
  0.899700D+01 -0.126895D+00
  0.331900D+01 -0.170352D+00
  0.905900D+00  0.140382D+00
  0.364300D+00  0.598684D+00
  0.128500D+00  0.395389D+00
   s     1 1.00
  0.905900D+00  0.100000D+01
   s     1 1.00
  0.364300D+00  0.100000D+01
   p     5 1.00
  0.187100D+02  0.140310D-01
  0.413300D+01  0.868660D-01
  0.120000D+01  0.290216D+00
  0.382700D+00  0.501008D+00
  0.120900D+00  0.343406D+00
   p     1 1.00
  0.382700D+00  0.100000D+01
   p     1 1.00
  0.120900D+00  0.100000D+01
   d     1 1.00
  0.109700D+01  0.100000D+01
   d     1 1.00
  0.318000D+00  0.100000D+01
   f     1 1.00
  0.761000D+00  0.100000D+01
  
  8  0
   s     4 1.00
  0.130100D+02  0.196850D-01
  0.196200D+01  0.137977D+00
  0.444600D+00  0.478148D+00
  0.122000D+00  0.501240D+00
   s     1 1.00
  0.122000D+00  0.100000D+01
   p     1 1.00
  0.727000D+00  0.100000D+01
  
  9  0
   s     4 1.00
  0.130100D+02  0.196850D-01
  0.196200D+01  0.137977D+00
  0.444600D+00  0.478148D+00
  0.122000D+00  0.501240D+00
   s     1 1.00
  0.122000D+00  0.100000D+01
   p     1 1.00
  0.727000D+00  0.100000D+01
  
 10  0
   s     4 1.00
  0.130100D+02  0.196850D-01
  0.196200D+01  0.137977D+00
  0.444600D+00  0.478148D+00
  0.122000D+00  0.501240D+00
   s     1 1.00
  0.122000D+00  0.100000D+01
   p     1 1.00
  0.727000D+00  0.100000D+01
  
 11  0
   s     4 1.00
  0.130100D+02  0.196850D-01
  0.196200D+01  0.137977D+00
  0.444600D+00  0.478148D+00
  0.122000D+00  0.501240D+00
   s     1 1.00
  0.122000D+00  0.100000D+01
   p     1 1.00
  0.727000D+00  0.100000D+01
  
 12  0
   s     4 1.00
  0.130100D+02  0.196850D-01
  0.196200D+01  0.137977D+00
  0.444600D+00  0.478148D+00
  0.122000D+00  0.501240D+00
   s     1 1.00
  0.122000D+00  0.100000D+01
   p     1 1.00
  0.727000D+00  0.100000D+01
  
 13  0
   s     4 1.00
  0.130100D+02  0.196850D-01
  0.196200D+01  0.137977D+00
  0.444600D+00  0.478148D+00
  0.122000D+00  0.501240D+00
   s     1 1.00
  0.122000D+00  0.100000D+01
   p     1 1.00
  0.727000D+00  0.100000D+01
  
 14  0
   s     4 1.00
  0.130100D+02  0.196850D-01
  0.196200D+01  0.137977D+00
  0.444600D+00  0.478148D+00
  0.122000D+00  0.501240D+00
   s     1 1.00
  0.122000D+00  0.100000D+01
   p     1 1.00
  0.727000D+00  0.100000D+01
  
[MO]
 Sym= __1_A__
 Ene=   1.00000000000000     
 Spin= Alpha
 Occup=    1.00000000000000     
                     1  5.813846975056889E-005
                     2  0.997681495556946     
                     3  1.202003996723115E-002
                     4  2.485028148797219E-003
                     5  2.104579346382369E-004
                     6  7.207931817013133E-012
                     7 -6.169791687969985E-004
                     8  4.090897773470287E-003
                     9 -5.311083576410824E-012
                    10 -4.263773788155844E-004
                    11 -2.845713036967441E-004
                    12 -2.136841230170434E-012
                    13 -3.366969134973680E-004
                    14 -1.054166749709042E-004
                    15  2.394373146142849E-004
                    16  1.167545291282111E-012
                    17  3.532891001211863E-004
                    18 -4.216306270723968E-004
                    19 -8.034430964663262E-013
                    20  1.756268962245936E-004
                    21  5.097511402425144E-012
                    22  1.097446176591377E-004
                    23  4.745169977392442E-004
                    24 -5.119490303305818E-013
                    25 -3.458019347001806E-004
                    26  5.145460020848520E-013
                    27 -6.231404865072372E-005
                    28  3.250403479299672E-004
                    29  2.649695431358092E-012
                    30 -2.618842681095195E-012
                    31  1.417444169749449E-004
                    32 -3.858952493524525E-004
                    33  2.930159594378690E-003
                    34  1.750187645923676E-004
                    35 -3.027656893538357E-004
                    36 -1.128744819736538E-011
                    37  2.409864325672494E-004
                    38 -7.655234849283810E-003
                    39  7.184122609569731E-012
                    40 -9.638260234054161E-005
                    41  3.826119438995536E-004
                    42 -3.001370836662695E-012
                    43  3.260576892099218E-004
                    44  3.758939365491701E-003
                    45  3.583799254543801E-004
                    46  6.410048809664587E-013
                    47  2.981928384952862E-005
                    48  1.496501209753991E-004
                    49 -4.141615614214160E-012
                    50 -1.140471129168017E-005
                    51  8.329421785088910E-012
                    52 -2.029389875068437E-004
                    53 -4.917984038426048E-004
                    54 -2.439480270411822E-013
                    55 -1.474119883777421E-004
                    56 -4.224607464045452E-012
                    57  1.987881099059998E-006
                    58  1.210163086271717E-004
                    59 -2.273775178896148E-012
                    60 -4.844882020097590E-012
                    61 -6.478361332499685E-006
                    62 -2.063905074814332E-004
                    63 -1.905315126069784E-003
                    64  7.042997243964972E-005
                    65  4.628625323624730E-004
                    66 -5.293870073757800E-012
                    67 -1.002694781735993E-003
                    68  1.275958299685466E-003
                    69 -1.200797168614087E-012
                    70 -1.098394269855397E-004
                    71  6.251864427243832E-004
                    72  5.757020302837987E-012
                    73 -1.592164647612526E-004
                    74 -3.277802790090344E-004
                    75  9.703689533708564E-005
                    76  6.989499978762114E-013
                    77 -8.693489556303327E-006
                    78  4.596192501319024E-005
                    79  2.074488814353772E-012
                    80 -8.219363527650830E-006
                    81 -7.020057965398862E-014
                    82  2.484761370939175E-004
                    83 -2.476922900986654E-005
                    84 -3.492982905433543E-012
                    85 -9.516936088337839E-005
                    86  1.602902536002639E-012
                    87 -3.443889931124830E-005
                    88  2.285122571834748E-005
                    89  2.048400228331765E-012
                    90 -3.134137289208220E-012
                    91  8.816580614750822E-006
                    92 -1.840266608457591E-004
                    93 -1.567327635056560E-003
                    94  3.574375849154330E-005
                    95  6.409732113595947E-004
                    96 -1.766702557126861E-011
                    97  7.949331322729364E-004
                    98  1.011030947441367E-003
                    99  1.562762592988079E-011
                   100 -8.338419715920411E-005
                   101  5.675018654749381E-004
                   102  4.469948447369173E-012
                   103  4.627317564927761E-004
                   104  3.632350871412584E-004
                   105  1.047673277232696E-004
                   106 -1.954693796356422E-012
                   107  2.870208793182120E-005
                   108  3.405073006340552E-005
                   109 -2.968770315923105E-012
                   110 -1.738881425903316E-004
                   111 -2.006321073544870E-012
                   112 -2.767910507700256E-004
                   113 -9.943953646187343E-005
                   114  3.825255502324333E-012
                   115 -1.097997730528557E-004
                   116  1.214485844427535E-012
                   117  4.167909210660955E-005
                   118  2.601818841079982E-005
                   119  2.983702429748687E-012
                   120  6.856459704869818E-013
                   121 -1.076348718957035E-005
                   122 -1.386283192385637E-004
                   123  1.270423273280214E-004
                   124  1.217543643489111E-004
                   125  3.061041365545517E-005
                   126  4.832026941874648E-012
                   127  6.038127243546434E-005
                   128 -9.266607004579468E-004
                   129 -6.119982621107982E-012
                   130 -1.864977497717414E-005
                   131  3.584109492990452E-004
                   132 -4.390577123561222E-012
                   133 -2.856033914698403E-004
                   134  2.917299481956247E-004
                   135 -1.834438249253669E-005
                   136  8.691016265107956E-014
                   137  3.695437983677381E-006
                   138  3.353704510110464E-006
                   139 -4.794921349032639E-013
                   140 -1.522183615640525E-004
                   141 -2.120988890299371E-012
                   142  1.595399779742071E-004
                   143  2.079674032372912E-005
                   144  1.400468242298008E-012
                   145 -3.724389835644575E-005
                   146  1.070950145957701E-012
                   147  5.510544108719867E-006
                   148 -6.821857905101350E-006
                   149  2.866670477926762E-012
                   150 -1.236873220282609E-012
                   151 -1.438623157079517E-006
                   152 -1.455725992194528E-004
                   153  2.605903324907407E-005
                   154  1.021295770329639E-004
                   155  2.043685114998615E-004
                   156 -9.168735329138390E-012
                   157 -4.178795935947949E-005
                   158 -8.258732319192368E-004
                   159  1.245090918469848E-011
                   160  5.595232969069509E-006
                   161  3.115768158737479E-004
                   162 -2.575979300674016E-013
                   163 -1.196308898398010E-005
                   164  9.239040254549214E-004
                   165 -1.801649336509160E-005
                   166  1.448221704345646E-012
                   167  2.177738610647577E-006
                   168  1.959287757356723E-006
                   169 -1.047755805157824E-012
                   170 -1.761439802886288E-004
                   171 -6.834833271318903E-013
                   172 -2.146998970536643E-004
                   173  7.895643468068444E-006
                   174 -4.357884263372178E-012
                   175 -4.226898724807537E-005
                   176  1.861259162078657E-012
                   177  7.632174117295708E-007
                   178 -1.123550316635030E-005
                   179 -1.353970276530383E-012
                   180  2.756562609110603E-012
                   181  4.464694444697457E-006
                   182 -1.173332643716652E-004
                   183 -3.100120121782357E-004
                   184  2.872149085040106E-005
                   185  1.387664418695695E-004
                   186 -5.854921434758930E-012
                   187 -3.720224262456021E-006
                   188 -3.713024779495914E-005
                   189 -1.782823906601722E-012
                   190 -3.194175408008642E-005
                   191 -2.529537029383827E-006
                   192  8.665738775260298E-012
                   193 -3.672669152306903E-004
                   194  1.340867810589616E-004
                   195  2.138860492485386E-005
                   196 -5.481819422624627E-013
                   197  9.182625835257478E-007
                   198  1.012352478872580E-005
                   199 -1.634464898631004E-012
                   200  6.167842921981993E-005
                   201  3.820874786048409E-012
                   202  2.956954607462793E-005
                   203  4.460872253308454E-005
                   204 -1.302873493318365E-012
                   205 -1.362569678459676E-005
                   206  2.026085440042833E-012
                   207 -3.270300284478513E-006
                   208  6.466890568431512E-006
                   209  3.128579524850784E-012
                   210  2.448901444625686E-013
                   211  5.480306715933904E-007
                   212  5.856261231593273E-003
                   213 -3.641746625769070E-003
                   214  1.703393440818307E-012
                   215  2.067386768456487E-004
                   216  2.446495334259834E-004
                   217  4.162479744587327E-003
                   218 -2.382965841604423E-003
                   219  1.501975065613092E-012
                   220 -4.873563738089985E-004
                   221  3.809587167844017E-004
                   222 -7.698924777288081E-004
                   223  1.160704366289386E-004
                   224  4.566522791449625E-014
                   225 -3.023685744220574E-005
                   226 -4.046689232195134E-005
                   227 -7.718140937389902E-004
                   228  5.831174948376321E-005
                   229 -5.395477464437567E-012
                   230  1.624622863172580E-005
                   231 -7.097363691165945E-005
                   232 -2.875032771340763E-004
                   233 -3.269899427031489E-004
                   234  2.487835256329434E-012
                   235 -6.739974944665124E-006
                   236  8.044173132925320E-006
                   237 -2.173880834370283E-004
                   238 -3.758608578600512E-004
                   239  2.117600611361819E-012
                   240  6.762397998183762E-006
                   241  8.889102967407616E-006
                   242  8.027417446835834E-005
                   243 -1.545232625879237E-004
                   244 -2.834395243600187E-012
                   245  1.921768898544389E-006
                   246  1.145292783906575E-005
 Sym= __2_A__
 Ene=   2.00000000000000     
 Spin= Alpha
 Occup=    1.00000000000000     
                     1 -3.992923144147507E-005
                     2 -2.083489299193279E-004
                     3  1.907216750480254E-003
                     4  1.008955727702101E-004
                     5  1.424416830242131E-003
                     6 -1.180229763487627E-011
                     7  1.246622448255773E-004
                     8  2.995334382407432E-003
                     9  5.456975336563685E-012
                    10  2.371899006171836E-005
                    11 -5.358714316460019E-005
                    12  3.541754580862701E-012
                    13 -2.029849165069846E-005
                    14 -4.582402040247882E-004
                    15  3.400803837695505E-005
                    16 -3.806894417982958E-013
                    17  7.026537197728682E-007
                    18  6.415356759602786E-005
                    19 -5.369889793055507E-013
                    20 -3.523481360276458E-004
                    21 -4.296466315666668E-013
                    22 -1.077185991263024E-004
                    23 -3.736235453255388E-004
                    24  3.540584598308307E-012
                    25  1.744731551204613E-004
                    26  2.247238782854311E-013
                    27  3.218135511096972E-005
                    28 -7.632405716003632E-006
                    29 -5.574587258457013E-013
                    30 -5.223931228288743E-013
                    31  7.144449348169297E-006
                    32   1.00105853238086     
                    33  9.239195882935092E-003
                    34  2.650206029405149E-003
                    35 -7.759051227117132E-003
                    36  6.172736331314720E-012
                    37 -6.025302235582284E-006
                    38 -4.036250890643421E-003
                    39 -7.224329629565473E-013
                    40  2.375428540492200E-005
                    41  1.024420946964088E-003
                    42  1.307762746803001E-011
                    43 -1.012821898314520E-004
                    44  4.537920779538658E-003
                    45  4.661042363803710E-004
                    46 -2.696521755811747E-012
                    47  7.573318105043762E-006
                    48 -4.325734755770924E-004
                    49 -6.748641869311415E-015
                    50  5.684399461196480E-004
                    51  3.183157254992534E-012
                    52 -8.709519868215618E-005
                    53  9.468222394900780E-004
                    54  6.440807395707173E-012
                    55  3.789600953691140E-004
                    56  3.178964527722928E-012
                    57  1.652051752284881E-006
                    58 -2.105341610895448E-004
                    59  6.304842525996005E-013
                    60  3.155730279474050E-012
                    61 -9.558826203702041E-007
                    62  7.231273827861574E-003
                    63 -2.067398840162076E-003
                    64 -2.766415535723052E-004
                    65  3.045299958515383E-003
                    66 -3.446208133089333E-012
                    67  1.177048147752510E-004
                    68 -3.883445369172955E-005
                    69  6.434388877584685E-012
                    70  5.742835272818171E-004
                    71  2.232176940899091E-005
                    72 -4.216193024112246E-012
                    73 -2.183596119113055E-003
                    74  1.488784268332000E-004
                    75 -1.689012708480713E-005
                    76 -3.724363555151495E-012
                    77  1.480870345838057E-005
                    78  2.786569868953494E-005
                    79 -2.000161572057364E-012
                    80  7.911056571805856E-004
                    81  9.535908593053486E-012
                    82 -4.339130941353873E-004
                    83 -1.615977632369533E-006
                    84 -1.123955376135342E-013
                    85  7.383912608511117E-005
                    86 -1.665606697450714E-012
                    87  4.976269535567619E-005
                    88 -1.253865837150174E-004
                    89 -3.187817869815095E-013
                    90 -2.244312599699810E-012
                    91  4.969716920475973E-005
                    92  7.202602742986818E-003
                    93 -2.042159030415764E-003
                    94 -2.806612244988851E-004
                    95  3.083604403038144E-003
                    96  7.399608195936239E-012
                    97 -1.162179412409887E-004
                    98 -4.567454023788510E-005
                    99 -7.994326394934801E-012
                   100 -6.271318343333840E-004
                   101  3.093188780796211E-005
                   102 -1.048019920277183E-011
                   103  2.095601342038825E-003
                   104  8.370430596601293E-006
                   105 -1.585489975181034E-005
                   106 -1.906742225828051E-012
                   107 -1.234476470078673E-005
                   108  2.725234019116324E-005
                   109 -3.201280485204435E-012
                   110  7.512908847434281E-004
                   111  2.409883776050700E-012
                   112  4.244307951830678E-004
                   113 -1.806169764683860E-005
                   114  8.807328542994592E-012
                   115  7.175925741216178E-005
                   116 -2.861875329038752E-013
                   117 -4.374530941284557E-005
                   118 -1.272929807917230E-004
                   119 -2.405338511482902E-012
                   120  6.023811466467425E-014
                   121 -5.096051129794916E-005
                   122 -2.406263329136446E-004
                   123 -7.870091980254236E-004
                   124  2.242271330676954E-004
                   125 -9.987025396605144E-005
                   126 -5.786209181233606E-012
                   127 -2.304595985114625E-005
                   128 -2.334773965785990E-004
                   129 -5.893522760038813E-014
                   130  6.391720678843088E-006
                   131  5.449773247821006E-004
                   132 -8.244643662389055E-013
                   133  3.653531291645475E-004
                   134  8.335742273281250E-004
                   135 -1.383993960670392E-005
                   136  3.313241276662621E-012
                   137  5.157040876179823E-005
                   138  1.354117533136935E-005
                   139 -9.379785578324940E-013
                   140 -2.996539908969600E-004
                   141  1.366267719391497E-012
                   142 -2.213642495828240E-004
                   143 -1.682925136252424E-005
                   144 -4.795143200929845E-012
                   145  1.252368418900019E-006
                   146 -1.506237899295330E-012
                   147 -4.147088363138669E-005
                   148 -3.968805561546448E-005
                   149  2.241573018254276E-013
                   150 -3.833678827354960E-012
                   151 -5.968483045319855E-006
                   152 -2.376079014216683E-004
                   153 -7.649548097167783E-004
                   154  2.270149915629484E-004
                   155 -1.151397179834556E-004
                   156  1.526397885263094E-011
                   157  1.886592924816450E-005
                   158 -2.361406930114335E-004
                   159 -1.373033258982023E-011
                   160  1.712420437779330E-005