[Molden Format]
[Atoms] AU
  N     1    7    -0.0517765700   -4.3089844900    0.0000000100        
  C     2    6     0.0647538100   -1.7783246500   -0.0000000200        
  C     3    6    -2.2678766300   -0.3983327800   -0.0000000200        
  C     4    6     2.3593468100   -0.3388541700   -0.0000000400        
  C     5    6    -2.2678819000    2.1847686800   -0.0000000100        
  C     6    6     2.3086640900    2.2443344000    0.0000000100        
  C     7    6     0.0059438200    3.5355861800    0.0000000100        
  H     8    1    -3.6006927000   -6.8181930200    0.0000000700        
  H     9    1     1.7509000100   -5.0388157400    0.0000000100        
  H    10    1    -3.9964914400   -1.4515209000   -0.0000000400        
  H    11    1     4.1294359000   -1.3321065800   -0.0000000400        
  H    12    1    -4.0272855100    3.1961068700   -0.0000000300        
  H    13    1     4.0451721000    3.2943620000    0.0000000400        
  H    14    1    -0.0194439900    5.5632985900    0.0000000400        
[5D]
[7F]
[GTO]
  1  0
   s    12 1.00
  0.114200D+05  0.172695D-04
  0.171200D+04  0.134411D-03
  0.389300D+03  0.694561D-03
  0.110000D+03  0.278531D-02
  0.355700D+02  0.863457D-02
  0.125400D+02  0.199805D-01
  0.464400D+01  0.262908D-01
  0.129300D+01 -0.243845D-01
  0.511800D+00 -0.924934D-01
  0.178700D+00 -0.339683D+00
  0.246240D-01  0.345111D+00
  0.112530D-01  0.752750D+00
   s    10 1.00
  0.114200D+05  0.523000D-03
  0.171200D+04  0.404500D-02
  0.389300D+03  0.207750D-01
  0.110000D+03  0.807269D-01
  0.355700D+02  0.233074D+00
  0.125400D+02  0.433501D+00
  0.464400D+01  0.347472D+00
  0.129300D+01  0.412620D-01
  0.511800D+00 -0.850799D-02
  0.178700D+00  0.238400D-02
   s    10 1.00
  0.114200D+05 -0.115000D-03
  0.171200D+04 -0.895000D-03
  0.389300D+03 -0.462400D-02
  0.110000D+03 -0.185280D-01
  0.355700D+02 -0.573390D-01
  0.125400D+02 -0.132076D+00
  0.464400D+01 -0.172510D+00
  0.129300D+01  0.151814D+00
  0.511800D+00  0.599944D+00
  0.178700D+00  0.387462D+00
   s     1 1.00
  0.129300D+01  0.100000D+01
   s     1 1.00
  0.178700D+00  0.100000D+01
   p     5 1.00
  0.266300D+02  0.146700D-01
  0.594800D+01  0.917640D-01
  0.174200D+01  0.298683D+00
  0.555000D+00  0.498487D+00
  0.172500D+00  0.337023D+00
   p     1 1.00
  0.174200D+01  0.100000D+01
   p     1 1.00
  0.555000D+00  0.100000D+01
   d     1 1.00
  0.165400D+01  0.100000D+01
   d     1 1.00
  0.469000D+00  0.100000D+01
   f     1 1.00
  0.109300D+01  0.100000D+01
  
  2  0
   s    10 1.00
  0.823600D+04  0.531000D-03
  0.123500D+04  0.410800D-02
  0.280800D+03  0.210870D-01
  0.792700D+02  0.818530D-01
  0.255900D+02  0.234817D+00
  0.899700D+01  0.434401D+00
  0.331900D+01  0.346129D+00
  0.905900D+00  0.393780D-01
  0.364300D+00 -0.898300D-02
  0.128500D+00  0.238500D-02
   s    10 1.00
  0.823600D+04 -0.113000D-03
  0.123500D+04 -0.878000D-03
  0.280800D+03 -0.454000D-02
  0.792700D+02 -0.181330D-01
  0.255900D+02 -0.557600D-01
  0.899700D+01 -0.126895D+00
  0.331900D+01 -0.170352D+00
  0.905900D+00  0.140382D+00
  0.364300D+00  0.598684D+00
  0.128500D+00  0.395389D+00
   s     1 1.00
  0.905900D+00  0.100000D+01
   s     1 1.00
  0.364300D+00  0.100000D+01
   p     5 1.00
  0.187100D+02  0.140310D-01
  0.413300D+01  0.868660D-01
  0.120000D+01  0.290216D+00
  0.382700D+00  0.501008D+00
  0.120900D+00  0.343406D+00
   p     1 1.00
  0.382700D+00  0.100000D+01
   p     1 1.00
  0.120900D+00  0.100000D+01
   d     1 1.00
  0.109700D+01  0.100000D+01
   d     1 1.00
  0.318000D+00  0.100000D+01
   f     1 1.00
  0.761000D+00  0.100000D+01
  
  3  0
   s    10 1.00
  0.823600D+04  0.531000D-03
  0.123500D+04  0.410800D-02
  0.280800D+03  0.210870D-01
  0.792700D+02  0.818530D-01
  0.255900D+02  0.234817D+00
  0.899700D+01  0.434401D+00
  0.331900D+01  0.346129D+00
  0.905900D+00  0.393780D-01
  0.364300D+00 -0.898300D-02
  0.128500D+00  0.238500D-02
   s    10 1.00
  0.823600D+04 -0.113000D-03
  0.123500D+04 -0.878000D-03
  0.280800D+03 -0.454000D-02
  0.792700D+02 -0.181330D-01
  0.255900D+02 -0.557600D-01
  0.899700D+01 -0.126895D+00
  0.331900D+01 -0.170352D+00
  0.905900D+00  0.140382D+00
  0.364300D+00  0.598684D+00
  0.128500D+00  0.395389D+00
   s     1 1.00
  0.905900D+00  0.100000D+01
   s     1 1.00
  0.364300D+00  0.100000D+01
   p     5 1.00
  0.187100D+02  0.140310D-01
  0.413300D+01  0.868660D-01
  0.120000D+01  0.290216D+00
  0.382700D+00  0.501008D+00
  0.120900D+00  0.343406D+00
   p     1 1.00
  0.382700D+00  0.100000D+01
   p     1 1.00
  0.120900D+00  0.100000D+01
   d     1 1.00
  0.109700D+01  0.100000D+01
   d     1 1.00
  0.318000D+00  0.100000D+01
   f     1 1.00
  0.761000D+00  0.100000D+01
  
  4  0
   s    10 1.00
  0.823600D+04  0.531000D-03
  0.123500D+04  0.410800D-02
  0.280800D+03  0.210870D-01
  0.792700D+02  0.818530D-01
  0.255900D+02  0.234817D+00
  0.899700D+01  0.434401D+00
  0.331900D+01  0.346129D+00
  0.905900D+00  0.393780D-01
  0.364300D+00 -0.898300D-02
  0.128500D+00  0.238500D-02
   s    10 1.00
  0.823600D+04 -0.113000D-03
  0.123500D+04 -0.878000D-03
  0.280800D+03 -0.454000D-02
  0.792700D+02 -0.181330D-01
  0.255900D+02 -0.557600D-01
  0.899700D+01 -0.126895D+00
  0.331900D+01 -0.170352D+00
  0.905900D+00  0.140382D+00
  0.364300D+00  0.598684D+00
  0.128500D+00  0.395389D+00
   s     1 1.00
  0.905900D+00  0.100000D+01
   s     1 1.00
  0.364300D+00  0.100000D+01
   p     5 1.00
  0.187100D+02  0.140310D-01
  0.413300D+01  0.868660D-01
  0.120000D+01  0.290216D+00
  0.382700D+00  0.501008D+00
  0.120900D+00  0.343406D+00
   p     1 1.00
  0.382700D+00  0.100000D+01
   p     1 1.00
  0.120900D+00  0.100000D+01
   d     1 1.00
  0.109700D+01  0.100000D+01
   d     1 1.00
  0.318000D+00  0.100000D+01
   f     1 1.00
  0.761000D+00  0.100000D+01
  
  5  0
   s    10 1.00
  0.823600D+04  0.531000D-03
  0.123500D+04  0.410800D-02
  0.280800D+03  0.210870D-01
  0.792700D+02  0.818530D-01
  0.255900D+02  0.234817D+00
  0.899700D+01  0.434401D+00
  0.331900D+01  0.346129D+00
  0.905900D+00  0.393780D-01
  0.364300D+00 -0.898300D-02
  0.128500D+00  0.238500D-02
   s    10 1.00
  0.823600D+04 -0.113000D-03
  0.123500D+04 -0.878000D-03
  0.280800D+03 -0.454000D-02
  0.792700D+02 -0.181330D-01
  0.255900D+02 -0.557600D-01
  0.899700D+01 -0.126895D+00
  0.331900D+01 -0.170352D+00
  0.905900D+00  0.140382D+00
  0.364300D+00  0.598684D+00
  0.128500D+00  0.395389D+00
   s     1 1.00
  0.905900D+00  0.100000D+01
   s     1 1.00
  0.364300D+00  0.100000D+01
   p     5 1.00
  0.187100D+02  0.140310D-01
  0.413300D+01  0.868660D-01
  0.120000D+01  0.290216D+00
  0.382700D+00  0.501008D+00
  0.120900D+00  0.343406D+00
   p     1 1.00
  0.382700D+00  0.100000D+01
   p     1 1.00
  0.120900D+00  0.100000D+01
   d     1 1.00
  0.109700D+01  0.100000D+01
   d     1 1.00
  0.318000D+00  0.100000D+01
   f     1 1.00
  0.761000D+00  0.100000D+01
  
  6  0
   s    10 1.00
  0.823600D+04  0.531000D-03
  0.123500D+04  0.410800D-02
  0.280800D+03  0.210870D-01
  0.792700D+02  0.818530D-01
  0.255900D+02  0.234817D+00
  0.899700D+01  0.434401D+00
  0.331900D+01  0.346129D+00
  0.905900D+00  0.393780D-01
  0.364300D+00 -0.898300D-02
  0.128500D+00  0.238500D-02
   s    10 1.00
  0.823600D+04 -0.113000D-03
  0.123500D+04 -0.878000D-03
  0.280800D+03 -0.454000D-02
  0.792700D+02 -0.181330D-01
  0.255900D+02 -0.557600D-01
  0.899700D+01 -0.126895D+00
  0.331900D+01 -0.170352D+00
  0.905900D+00  0.140382D+00
  0.364300D+00  0.598684D+00
  0.128500D+00  0.395389D+00
   s     1 1.00
  0.905900D+00  0.100000D+01
   s     1 1.00
  0.364300D+00  0.100000D+01
   p     5 1.00
  0.187100D+02  0.140310D-01
  0.413300D+01  0.868660D-01
  0.120000D+01  0.290216D+00
  0.382700D+00  0.501008D+00
  0.120900D+00  0.343406D+00
   p     1 1.00
  0.382700D+00  0.100000D+01
   p     1 1.00
  0.120900D+00  0.100000D+01
   d     1 1.00
  0.109700D+01  0.100000D+01
   d     1 1.00
  0.318000D+00  0.100000D+01
   f     1 1.00
  0.761000D+00  0.100000D+01
  
  7  0
   s    10 1.00
  0.823600D+04  0.531000D-03
  0.123500D+04  0.410800D-02
  0.280800D+03  0.210870D-01
  0.792700D+02  0.818530D-01
  0.255900D+02  0.234817D+00
  0.899700D+01  0.434401D+00
  0.331900D+01  0.346129D+00
  0.905900D+00  0.393780D-01
  0.364300D+00 -0.898300D-02
  0.128500D+00  0.238500D-02
   s    10 1.00
  0.823600D+04 -0.113000D-03
  0.123500D+04 -0.878000D-03
  0.280800D+03 -0.454000D-02
  0.792700D+02 -0.181330D-01
  0.255900D+02 -0.557600D-01
  0.899700D+01 -0.126895D+00
  0.331900D+01 -0.170352D+00
  0.905900D+00  0.140382D+00
  0.364300D+00  0.598684D+00
  0.128500D+00  0.395389D+00
   s     1 1.00
  0.905900D+00  0.100000D+01
   s     1 1.00
  0.364300D+00  0.100000D+01
   p     5 1.00
  0.187100D+02  0.140310D-01
  0.413300D+01  0.868660D-01
  0.120000D+01  0.290216D+00
  0.382700D+00  0.501008D+00
  0.120900D+00  0.343406D+00
   p     1 1.00
  0.382700D+00  0.100000D+01
   p     1 1.00
  0.120900D+00  0.100000D+01
   d     1 1.00
  0.109700D+01  0.100000D+01
   d     1 1.00
  0.318000D+00  0.100000D+01
   f     1 1.00
  0.761000D+00  0.100000D+01
  
  8  0
   s     4 1.00
  0.130100D+02  0.196850D-01
  0.196200D+01  0.137977D+00
  0.444600D+00  0.478148D+00
  0.122000D+00  0.501240D+00
   s     1 1.00
  0.122000D+00  0.100000D+01
   p     1 1.00
  0.727000D+00  0.100000D+01
  
  9  0
   s     4 1.00
  0.130100D+02  0.196850D-01
  0.196200D+01  0.137977D+00
  0.444600D+00  0.478148D+00
  0.122000D+00  0.501240D+00
   s     1 1.00
  0.122000D+00  0.100000D+01
   p     1 1.00
  0.727000D+00  0.100000D+01
  
 10  0
   s     4 1.00
  0.130100D+02  0.196850D-01
  0.196200D+01  0.137977D+00
  0.444600D+00  0.478148D+00
  0.122000D+00  0.501240D+00
   s     1 1.00
  0.122000D+00  0.100000D+01
   p     1 1.00
  0.727000D+00  0.100000D+01
  
 11  0
   s     4 1.00
  0.130100D+02  0.196850D-01
  0.196200D+01  0.137977D+00
  0.444600D+00  0.478148D+00
  0.122000D+00  0.501240D+00
   s     1 1.00
  0.122000D+00  0.100000D+01
   p     1 1.00
  0.727000D+00  0.100000D+01
  
 12  0
   s     4 1.00
  0.130100D+02  0.196850D-01
  0.196200D+01  0.137977D+00
  0.444600D+00  0.478148D+00
  0.122000D+00  0.501240D+00
   s     1 1.00
  0.122000D+00  0.100000D+01
   p     1 1.00
  0.727000D+00  0.100000D+01
  
 13  0
   s     4 1.00
  0.130100D+02  0.196850D-01
  0.196200D+01  0.137977D+00
  0.444600D+00  0.478148D+00
  0.122000D+00  0.501240D+00
   s     1 1.00
  0.122000D+00  0.100000D+01
   p     1 1.00
  0.727000D+00  0.100000D+01
  
 14  0
   s     4 1.00
  0.130100D+02  0.196850D-01
  0.196200D+01  0.137977D+00
  0.444600D+00  0.478148D+00
  0.122000D+00  0.501240D+00
   s     1 1.00
  0.122000D+00  0.100000D+01
   p     1 1.00
  0.727000D+00  0.100000D+01
  
[MO]
 Sym= __1_A'_
 Ene=   1.00000000000000     
 Spin= Alpha
 Occup=    1.00000000000000     
                     1  8.649030217037354E-005
                     2  0.998381805090825     
                     3 -4.061073805793937E-003
                     4  1.853229505933898E-003
                     5  6.447742598688503E-003
                     6  2.711819660231448E-003
                     7  5.515322890370582E-003
                     8  0.000000000000000E+000
                     9 -7.226134692874318E-004
                    10 -7.146368578684001E-004
                    11  0.000000000000000E+000
                    12 -2.433707020814980E-003
                    13 -1.961435883328972E-003
                    14  0.000000000000000E+000
                    15 -2.805793530418505E-005
                    16  0.000000000000000E+000
                    17  0.000000000000000E+000
                    18 -1.480511534626671E-004
                    19 -5.955533420126649E-005
                    20  1.158302698427866E-004
                    21  0.000000000000000E+000
                    22  0.000000000000000E+000
                    23 -1.623246844802248E-004
                    24  4.681297612178767E-004
                    25  0.000000000000000E+000
                    26 -2.857758073194051E-006
                    27 -4.182158668740171E-005
                    28  0.000000000000000E+000
                    29  0.000000000000000E+000
                    30  3.336863096134883E-005
                    31 -9.849311213549432E-005
                    32 -2.805031429454900E-004
                    33  4.734246128197421E-005
                    34  3.070018695343749E-004
                    35 -1.034365512881362E-004
                    36 -8.836131757466293E-005
                    37 -1.843427935214473E-003
                    38  0.000000000000000E+000
                    39  3.427163558689097E-004
                    40  6.869291386781812E-005
                    41  0.000000000000000E+000
                    42 -1.962085077736232E-003
                    43  4.734018631829777E-003
                    44  0.000000000000000E+000
                    45  1.345454103660553E-005
                    46  0.000000000000000E+000
                    47  0.000000000000000E+000
                    48 -9.511303226842596E-005
                    49  1.116634370432151E-005
                    50 -1.905160679229764E-004
                    51  0.000000000000000E+000
                    52  0.000000000000000E+000
                    53 -9.763095761541369E-006
                    54  7.464018085673020E-004
                    55  0.000000000000000E+000
                    56 -5.039846624405932E-006
                    57 -7.947902772548845E-005
                    58  0.000000000000000E+000
                    59  0.000000000000000E+000
                    60  1.942890725860135E-005
                    61 -1.341219210892084E-004
                    62 -5.190817508929859E-004
                    63 -1.921725431977672E-003
                    64 -9.715105844148241E-005
                    65  2.161519939348883E-003
                    66 -2.956537690523995E-004
                    67 -4.866699738449089E-005
                    68  0.000000000000000E+000
                    69  3.686642371131723E-004
                    70  8.570763409098467E-004
                    71  0.000000000000000E+000
                    72 -1.782218453111663E-003
                    73  6.331733242809726E-004
                    74  0.000000000000000E+000
                    75 -4.760146327105601E-005
                    76  0.000000000000000E+000
                    77  0.000000000000000E+000
                    78 -4.616450465707760E-005
                    79 -2.436097306728417E-005
                    80 -1.329682229884830E-004
                    81  0.000000000000000E+000
                    82  0.000000000000000E+000
                    83  1.587582615965585E-005
                    84 -2.414658212574998E-005
                    85  0.000000000000000E+000
                    86  9.325365011388671E-006
                    87 -4.571311010789697E-005
                    88  0.000000000000000E+000
                    89  0.000000000000000E+000
                    90 -2.894933682831443E-005
                    91 -1.562216726619972E-004
                    92 -1.755600162855033E-004
                    93 -5.245171824365420E-004
                    94  1.472289193875833E-004
                    95 -4.205750876372238E-005
                    96  5.950197052499601E-005
                    97 -1.112012738327906E-004
                    98  0.000000000000000E+000
                    99  3.355784702435951E-004
                   100  3.623880475535258E-004
                   101  0.000000000000000E+000
                   102  6.035988156348642E-004
                   103 -1.646056578154154E-003
                   104  0.000000000000000E+000
                   105 -1.461853861956634E-005
                   106  0.000000000000000E+000
                   107  0.000000000000000E+000
                   108 -3.472584051621558E-005
                   109 -1.133152045110017E-005
                   110  7.285012448511033E-005
                   111  0.000000000000000E+000
                   112  0.000000000000000E+000
                   113 -1.494603550309364E-004
                   114  1.138162160769337E-004
                   115  0.000000000000000E+000
                   116 -1.760195291036826E-005
                   117 -2.168533007466871E-005
                   118  0.000000000000000E+000
                   119  0.000000000000000E+000
                   120 -7.939339081596856E-006
                   121 -4.474595220113011E-005
                   122 -2.405043691632754E-004
                   123 -6.703422022456831E-004
                   124  1.714748809203926E-004
                   125  2.821032297650067E-004
                   126 -3.921488946354278E-005
                   127 -2.046509852494406E-004
                   128  0.000000000000000E+000
                   129  2.341839447604925E-004
                   130  6.342628039767841E-004
                   131  0.000000000000000E+000
                   132  4.358840796292349E-004
                   133  1.861330722010024E-003
                   134  0.000000000000000E+000
                   135  1.539031825429157E-005
                   136  0.000000000000000E+000
                   137  0.000000000000000E+000
                   138  4.893401038802058E-005
                   139 -5.101257495886902E-006
                   140  2.010110321346293E-004
                   141  0.000000000000000E+000
                   142  0.000000000000000E+000
                   143  3.884774805224944E-004
                   144  1.979555030276165E-004
                   145  0.000000000000000E+000
                   146 -1.233817904114287E-005
                   147 -6.251133546025837E-005
                   148  0.000000000000000E+000
                   149  0.000000000000000E+000
                   150 -9.436520579571256E-006
                   151 -5.553733370330703E-005
                   152 -1.340932691967308E-004
                   153 -4.214331989220246E-004
                   154  5.609931372029945E-005
                   155  2.033134169951193E-004
                   156  8.262230139056231E-006
                   157 -6.843484504986120E-006
                   158  0.000000000000000E+000
                   159 -1.225932994435256E-005
                   160  4.743280384752331E-005
                   161  0.000000000000000E+000
                   162  7.214438802549028E-004
                   163 -3.340712299677710E-004
                   164  0.000000000000000E+000
                   165  1.944611542450936E-006
                   166  0.000000000000000E+000
                   167  0.000000000000000E+000
                   168  5.260675865829168E-006
                   169  1.316278318180509E-005
                   170  1.076087692665439E-004
                   171  0.000000000000000E+000
                   172  0.000000000000000E+000
                   173  4.819883571414746E-005
                   174  3.877591068664783E-005
                   175  0.000000000000000E+000
                   176  4.431148993867412E-006
                   177 -1.422406246005297E-005
                   178  0.000000000000000E+000
                   179  0.000000000000000E+000
                   180 -2.520484214771627E-005
                   181 -3.081223294482416E-005
                   182 -1.361962157703021E-004
                   183 -4.060055096793441E-004
                   184  3.088172035419765E-005
                   185  2.156811381914167E-004
                   186 -4.391428968735549E-005
                   187 -5.475616964177298E-005
                   188  0.000000000000000E+000
                   189  2.487169301126858E-004
                   190  1.133589508294246E-004
                   191  0.000000000000000E+000
                   192  1.248187556331088E-003
                   193 -3.038790928545015E-004
                   194  0.000000000000000E+000
                   195  6.146253698502036E-007
                   196  0.000000000000000E+000
                   197  0.000000000000000E+000
                   198 -2.559509510290572E-006
                   199  3.899254307603947E-006
                   200 -6.914833812078061E-006
                   201  0.000000000000000E+000
                   202  0.000000000000000E+000
                   203 -6.535848387704932E-005
                   204 -1.893282966673517E-004
                   205  0.000000000000000E+000
                   206 -8.985704214753942E-006
                   207 -3.750512534387645E-006
                   208  0.000000000000000E+000
                   209  0.000000000000000E+000
                   210  7.677149394845418E-006
                   211 -3.748120216670866E-006
                   212 -2.310573254536924E-005
                   213  1.205537044444324E-004
                   214  1.123187464022398E-005
                   215  2.627765405267758E-005
                   216  0.000000000000000E+000
                   217 -1.229948440520290E-003
                   218 -3.985961826318954E-004
                   219 -2.013769651557886E-004
                   220  3.736827375731879E-005
                   221  0.000000000000000E+000
                   222 -1.549482442984417E-004
                   223 -6.571924838828583E-004
                   224  2.124391154211120E-005
                   225 -5.869849840037478E-005
                   226  0.000000000000000E+000
                   227  8.213366672331137E-005
                   228 -6.172467959835034E-004
                   229 -4.261168002717771E-005
                   230 -1.614849217197182E-005
                   231  0.000000000000000E+000
                   232  5.157943987210514E-005
                   233 -4.424692474120550E-004
                   234  1.452286807101135E-005
                   235 -4.070267940871521E-006
                   236  0.000000000000000E+000
                   237  3.944354400952950E-005
                   238 -3.579159678044866E-004
                   239 -1.022685119036901E-005
                   240 -3.674767882808776E-006
                   241  0.000000000000000E+000
                   242 -6.779321219763868E-005
                   243  8.268743507363438E-005
                   244  6.514930815771815E-008
                   245  2.855367813667276E-005
                   246  0.000000000000000E+000
 Sym= __2_A'_
 Ene=   2.00000000000000     
 Spin= Alpha
 Occup=    1.00000000000000     
                     1  4.872708011722803E-005
                     2  3.340437477011194E-004
                     3 -2.778004532650445E-003
                     4 -1.229985431934711E-004
                     5 -1.320693697463524E-003
                     6  2.740009254826049E-004
                     7 -2.676476282306095E-003
                     8  0.000000000000000E+000
                     9  3.495728544376445E-005
                    10  1.107552016526007E-004
                    11  0.000000000000000E+000
                    12  5.616052281478617E-005
                    13  3.148412128426110E-004
                    14  0.000000000000000E+000
                    15 -2.806521022544724E-005
                    16  0.000000000000000E+000
                    17  0.000000000000000E+000
                    18  3.974842040998870E-005
                    19 -1.954046787310091E-005
                    20  1.101263525817377E-004
                    21  0.000000000000000E+000
                    22  0.000000000000000E+000
                    23 -1.271655062991981E-004
                    24  1.522133620169875E-004
                    25  0.000000000000000E+000
                    26  1.802447222822778E-005
                    27 -9.552857037567426E-005
                    28  0.000000000000000E+000
                    29  0.000000000000000E+000
                    30  6.640018263487822E-005
                    31 -1.478356701556606E-004
                    32  -1.00090140265303     
                    33 -9.072921431827613E-003
                    34 -2.762459284631643E-003
                    35  8.060496324385564E-003
                    36  1.795530602912765E-004
                    37  3.089253687190937E-003
                    38  0.000000000000000E+000
                    39  9.248235674939385E-005
                    40 -1.815901581730885E-004
                    41  0.000000000000000E+000
                    42  1.487828694969263E-004
                    43 -3.965862884908290E-003
                    44  0.000000000000000E+000
                    45  5.294285269187095E-004
                    46  0.000000000000000E+000
                    47  0.000000000000000E+000
                    48  1.944963283361300E-004
                    49 -3.304185416979227E-005
                    50 -5.499402550349138E-004
                    51  0.000000000000000E+000
                    52  0.000000000000000E+000
                    53  6.609610382450030E-004
                    54  3.879964003446305E-004
                    55  0.000000000000000E+000
                    56 -1.125564609602338E-005
                    57 -9.933496149166593E-005
                    58  0.000000000000000E+000
                    59  0.000000000000000E+000
                    60  2.578476445638433E-005
                    61 -3.823733124154094E-004
                    62 -1.231587233571466E-002
                    63  2.009782573189585E-003
                    64  2.404626827722527E-004
                    65 -2.707534510256236E-003
                    66 -4.526697853116005E-005
                    67 -8.438214739630015E-005
                    68  0.000000000000000E+000
                    69 -5.350568692327857E-004
                    70 -1.494760101901711E-004
                    71  0.000000000000000E+000
                    72  2.093847391381492E-003
                    73 -2.746077786511966E-004
                    74  0.000000000000000E+000
                    75 -3.350908586354709E-005
                    76  0.000000000000000E+000
                    77  0.000000000000000E+000
                    78  3.294369461557224E-006
                    79 -3.078595930520140E-006
                    80  4.295353121580869E-004
                    81  0.000000000000000E+000
                    82  0.000000000000000E+000
                    83  6.523604958529531E-004
                    84  2.613500714948301E-004
                    85  0.000000000000000E+000
                    86 -2.815196796687191E-005
                    87  5.854915282259145E-005
                    88  0.000000000000000E+000
                    89  0.000000000000000E+000
                    90 -4.210013718598723E-005
                    91 -1.486566654041646E-004
                    92 -1.512493006908375E-002
                    93  2.067279270337396E-003
                    94  2.991221058862848E-004
                    95 -3.164911442331317E-003
                    96 -1.347659248146411E-004
                    97 -1.301876966020293E-004
                    98  0.000000000000000E+000
                    99  9.154341443244502E-004
                   100 -2.534591799313786E-005
                   101  0.000000000000000E+000
                   102 -1.702473206894269E-003
                   103  1.797113532413716E-007
                   104  0.000000000000000E+000
                   105 -2.384687397425608E-005
                   106  0.000000000000000E+000
                   107  0.000000000000000E+000
                   108  5.756042754811128E-006
                   109 -4.719857405869505E-006
                   110  4.211411535283084E-004
                   111  0.000000000000000E+000
                   112  0.000000000000000E+000
                   113  3.943259743744198E-004
                   114 -2.431574219811824E-004
                   115  0.000000000000000E+000
                   116  3.088711487451022E-005
                   117  7.265201099114588E-005
                   118  0.000000000000000E+000
                   119  0.000000000000000E+000
                   120  3.123063194712247E-006
                   121 -1.331880762512205E-004
                   122  8.691505652575145E-005
                   123  6.773440540833276E-004
                   124 -2.302169926969502E-004
                   125  1.314725184864358E-004
                   126 -2.437767385467355E-006
                   127  3.708082872656892E-004
                   128  0.000000000000000E+000
                   129  8.005560164658793E-005
                   130 -6.165179679492598E-004
                   131  0.000000000000000E+000
                   132 -3.765491783958677E-004
                   133 -9.050375362179766E-004
                   134  0.000000000000000E+000
                   135 -1.855538549489853E-005
                   136  0.000000000000000E+000
                   137  0.000000000000000E+000
                   138 -4.062901217903872E-006
                   139 -4.314891577217024E-005
                   140 -1.299269986526053E-004
                   141  0.000000000000000E+000
                   142  0.000000000000000E+000
                   143 -2.535108724764214E-004
                   144  1.092484008520332E-004
                   145  0.000000000000000E+000
                   146 -9.112486358329117E-006
                   147  3.700686183700274E-005
                   148  0.000000000000000E+000
                   149  0.000000000000000E+000
                   150  4.356999424988835E-005
                   151 -3.677097218423602E-005
                   152 -7.916311131784177E-005
                   153  6.508172160314254E-004
                   154 -2.305529544753477E-004
                   155  5.057649317160190E-005
                   156  3.479885759037650E-005
                   157  3.988097632609239E-004
                   158  0.000000000000000E+000
                   159 -1.308256810489321E-004
                   160 -5.516642708925315E-004