[Molden Format]
[Atoms] AU
  N     1    7    -0.0517765700   -4.3089844900    0.0000000100        
  C     2    6     0.0647538100   -1.7783246500   -0.0000000200        
  C     3    6    -2.2678766300   -0.3983327800   -0.0000000200        
  C     4    6     2.3593468100   -0.3388541700   -0.0000000400        
  C     5    6    -2.2678819000    2.1847686800   -0.0000000100        
  C     6    6     2.3086640900    2.2443344000    0.0000000100        
  C     7    6     0.0059438200    3.5355861800    0.0000000100        
  H     8    1    -3.6006927000   -6.8181930200    0.0000000700        
  H     9    1     1.7509000100   -5.0388157400    0.0000000100        
  H    10    1    -3.9964914400   -1.4515209000   -0.0000000400        
  H    11    1     4.1294359000   -1.3321065800   -0.0000000400        
  H    12    1    -4.0272855100    3.1961068700   -0.0000000300        
  H    13    1     4.0451721000    3.2943620000    0.0000000400        
  H    14    1    -0.0194439900    5.5632985900    0.0000000400        
[5D]
[7F]
[GTO]
  1  0
   s    12 1.00
  0.114200D+05  0.172695D-04
  0.171200D+04  0.134411D-03
  0.389300D+03  0.694561D-03
  0.110000D+03  0.278531D-02
  0.355700D+02  0.863457D-02
  0.125400D+02  0.199805D-01
  0.464400D+01  0.262908D-01
  0.129300D+01 -0.243845D-01
  0.511800D+00 -0.924934D-01
  0.178700D+00 -0.339683D+00
  0.246240D-01  0.345111D+00
  0.112530D-01  0.752750D+00
   s    10 1.00
  0.114200D+05  0.523000D-03
  0.171200D+04  0.404500D-02
  0.389300D+03  0.207750D-01
  0.110000D+03  0.807269D-01
  0.355700D+02  0.233074D+00
  0.125400D+02  0.433501D+00
  0.464400D+01  0.347472D+00
  0.129300D+01  0.412620D-01
  0.511800D+00 -0.850799D-02
  0.178700D+00  0.238400D-02
   s    10 1.00
  0.114200D+05 -0.115000D-03
  0.171200D+04 -0.895000D-03
  0.389300D+03 -0.462400D-02
  0.110000D+03 -0.185280D-01
  0.355700D+02 -0.573390D-01
  0.125400D+02 -0.132076D+00
  0.464400D+01 -0.172510D+00
  0.129300D+01  0.151814D+00
  0.511800D+00  0.599944D+00
  0.178700D+00  0.387462D+00
   s     1 1.00
  0.129300D+01  0.100000D+01
   s     1 1.00
  0.178700D+00  0.100000D+01
   p     5 1.00
  0.266300D+02  0.146700D-01
  0.594800D+01  0.917640D-01
  0.174200D+01  0.298683D+00
  0.555000D+00  0.498487D+00
  0.172500D+00  0.337023D+00
   p     1 1.00
  0.174200D+01  0.100000D+01
   p     1 1.00
  0.555000D+00  0.100000D+01
   d     1 1.00
  0.165400D+01  0.100000D+01
   d     1 1.00
  0.469000D+00  0.100000D+01
   f     1 1.00
  0.109300D+01  0.100000D+01
  
  2  0
   s    10 1.00
  0.823600D+04  0.531000D-03
  0.123500D+04  0.410800D-02
  0.280800D+03  0.210870D-01
  0.792700D+02  0.818530D-01
  0.255900D+02  0.234817D+00
  0.899700D+01  0.434401D+00
  0.331900D+01  0.346129D+00
  0.905900D+00  0.393780D-01
  0.364300D+00 -0.898300D-02
  0.128500D+00  0.238500D-02
   s    10 1.00
  0.823600D+04 -0.113000D-03
  0.123500D+04 -0.878000D-03
  0.280800D+03 -0.454000D-02
  0.792700D+02 -0.181330D-01
  0.255900D+02 -0.557600D-01
  0.899700D+01 -0.126895D+00
  0.331900D+01 -0.170352D+00
  0.905900D+00  0.140382D+00
  0.364300D+00  0.598684D+00
  0.128500D+00  0.395389D+00
   s     1 1.00
  0.905900D+00  0.100000D+01
   s     1 1.00
  0.364300D+00  0.100000D+01
   p     5 1.00
  0.187100D+02  0.140310D-01
  0.413300D+01  0.868660D-01
  0.120000D+01  0.290216D+00
  0.382700D+00  0.501008D+00
  0.120900D+00  0.343406D+00
   p     1 1.00
  0.382700D+00  0.100000D+01
   p     1 1.00
  0.120900D+00  0.100000D+01
   d     1 1.00
  0.109700D+01  0.100000D+01
   d     1 1.00
  0.318000D+00  0.100000D+01
   f     1 1.00
  0.761000D+00  0.100000D+01
  
  3  0
   s    10 1.00
  0.823600D+04  0.531000D-03
  0.123500D+04  0.410800D-02
  0.280800D+03  0.210870D-01
  0.792700D+02  0.818530D-01
  0.255900D+02  0.234817D+00
  0.899700D+01  0.434401D+00
  0.331900D+01  0.346129D+00
  0.905900D+00  0.393780D-01
  0.364300D+00 -0.898300D-02
  0.128500D+00  0.238500D-02
   s    10 1.00
  0.823600D+04 -0.113000D-03
  0.123500D+04 -0.878000D-03
  0.280800D+03 -0.454000D-02
  0.792700D+02 -0.181330D-01
  0.255900D+02 -0.557600D-01
  0.899700D+01 -0.126895D+00
  0.331900D+01 -0.170352D+00
  0.905900D+00  0.140382D+00
  0.364300D+00  0.598684D+00
  0.128500D+00  0.395389D+00
   s     1 1.00
  0.905900D+00  0.100000D+01
   s     1 1.00
  0.364300D+00  0.100000D+01
   p     5 1.00
  0.187100D+02  0.140310D-01
  0.413300D+01  0.868660D-01
  0.120000D+01  0.290216D+00
  0.382700D+00  0.501008D+00
  0.120900D+00  0.343406D+00
   p     1 1.00
  0.382700D+00  0.100000D+01
   p     1 1.00
  0.120900D+00  0.100000D+01
   d     1 1.00
  0.109700D+01  0.100000D+01
   d     1 1.00
  0.318000D+00  0.100000D+01
   f     1 1.00
  0.761000D+00  0.100000D+01
  
  4  0
   s    10 1.00
  0.823600D+04  0.531000D-03
  0.123500D+04  0.410800D-02
  0.280800D+03  0.210870D-01
  0.792700D+02  0.818530D-01
  0.255900D+02  0.234817D+00
  0.899700D+01  0.434401D+00
  0.331900D+01  0.346129D+00
  0.905900D+00  0.393780D-01
  0.364300D+00 -0.898300D-02
  0.128500D+00  0.238500D-02
   s    10 1.00
  0.823600D+04 -0.113000D-03
  0.123500D+04 -0.878000D-03
  0.280800D+03 -0.454000D-02
  0.792700D+02 -0.181330D-01
  0.255900D+02 -0.557600D-01
  0.899700D+01 -0.126895D+00
  0.331900D+01 -0.170352D+00
  0.905900D+00  0.140382D+00
  0.364300D+00  0.598684D+00
  0.128500D+00  0.395389D+00
   s     1 1.00
  0.905900D+00  0.100000D+01
   s     1 1.00
  0.364300D+00  0.100000D+01
   p     5 1.00
  0.187100D+02  0.140310D-01
  0.413300D+01  0.868660D-01
  0.120000D+01  0.290216D+00
  0.382700D+00  0.501008D+00
  0.120900D+00  0.343406D+00
   p     1 1.00
  0.382700D+00  0.100000D+01
   p     1 1.00
  0.120900D+00  0.100000D+01
   d     1 1.00
  0.109700D+01  0.100000D+01
   d     1 1.00
  0.318000D+00  0.100000D+01
   f     1 1.00
  0.761000D+00  0.100000D+01
  
  5  0
   s    10 1.00
  0.823600D+04  0.531000D-03
  0.123500D+04  0.410800D-02
  0.280800D+03  0.210870D-01
  0.792700D+02  0.818530D-01
  0.255900D+02  0.234817D+00
  0.899700D+01  0.434401D+00
  0.331900D+01  0.346129D+00
  0.905900D+00  0.393780D-01
  0.364300D+00 -0.898300D-02
  0.128500D+00  0.238500D-02
   s    10 1.00
  0.823600D+04 -0.113000D-03
  0.123500D+04 -0.878000D-03
  0.280800D+03 -0.454000D-02
  0.792700D+02 -0.181330D-01
  0.255900D+02 -0.557600D-01
  0.899700D+01 -0.126895D+00
  0.331900D+01 -0.170352D+00
  0.905900D+00  0.140382D+00
  0.364300D+00  0.598684D+00
  0.128500D+00  0.395389D+00
   s     1 1.00
  0.905900D+00  0.100000D+01
   s     1 1.00
  0.364300D+00  0.100000D+01
   p     5 1.00
  0.187100D+02  0.140310D-01
  0.413300D+01  0.868660D-01
  0.120000D+01  0.290216D+00
  0.382700D+00  0.501008D+00
  0.120900D+00  0.343406D+00
   p     1 1.00
  0.382700D+00  0.100000D+01
   p     1 1.00
  0.120900D+00  0.100000D+01
   d     1 1.00
  0.109700D+01  0.100000D+01
   d     1 1.00
  0.318000D+00  0.100000D+01
   f     1 1.00
  0.761000D+00  0.100000D+01
  
  6  0
   s    10 1.00
  0.823600D+04  0.531000D-03
  0.123500D+04  0.410800D-02
  0.280800D+03  0.210870D-01
  0.792700D+02  0.818530D-01
  0.255900D+02  0.234817D+00
  0.899700D+01  0.434401D+00
  0.331900D+01  0.346129D+00
  0.905900D+00  0.393780D-01
  0.364300D+00 -0.898300D-02
  0.128500D+00  0.238500D-02
   s    10 1.00
  0.823600D+04 -0.113000D-03
  0.123500D+04 -0.878000D-03
  0.280800D+03 -0.454000D-02
  0.792700D+02 -0.181330D-01
  0.255900D+02 -0.557600D-01
  0.899700D+01 -0.126895D+00
  0.331900D+01 -0.170352D+00
  0.905900D+00  0.140382D+00
  0.364300D+00  0.598684D+00
  0.128500D+00  0.395389D+00
   s     1 1.00
  0.905900D+00  0.100000D+01
   s     1 1.00
  0.364300D+00  0.100000D+01
   p     5 1.00
  0.187100D+02  0.140310D-01
  0.413300D+01  0.868660D-01
  0.120000D+01  0.290216D+00
  0.382700D+00  0.501008D+00
  0.120900D+00  0.343406D+00
   p     1 1.00
  0.382700D+00  0.100000D+01
   p     1 1.00
  0.120900D+00  0.100000D+01
   d     1 1.00
  0.109700D+01  0.100000D+01
   d     1 1.00
  0.318000D+00  0.100000D+01
   f     1 1.00
  0.761000D+00  0.100000D+01
  
  7  0
   s    10 1.00
  0.823600D+04  0.531000D-03
  0.123500D+04  0.410800D-02
  0.280800D+03  0.210870D-01
  0.792700D+02  0.818530D-01
  0.255900D+02  0.234817D+00
  0.899700D+01  0.434401D+00
  0.331900D+01  0.346129D+00
  0.905900D+00  0.393780D-01
  0.364300D+00 -0.898300D-02
  0.128500D+00  0.238500D-02
   s    10 1.00
  0.823600D+04 -0.113000D-03
  0.123500D+04 -0.878000D-03
  0.280800D+03 -0.454000D-02
  0.792700D+02 -0.181330D-01
  0.255900D+02 -0.557600D-01
  0.899700D+01 -0.126895D+00
  0.331900D+01 -0.170352D+00
  0.905900D+00  0.140382D+00
  0.364300D+00  0.598684D+00
  0.128500D+00  0.395389D+00
   s     1 1.00
  0.905900D+00  0.100000D+01
   s     1 1.00
  0.364300D+00  0.100000D+01
   p     5 1.00
  0.187100D+02  0.140310D-01
  0.413300D+01  0.868660D-01
  0.120000D+01  0.290216D+00
  0.382700D+00  0.501008D+00
  0.120900D+00  0.343406D+00
   p     1 1.00
  0.382700D+00  0.100000D+01
   p     1 1.00
  0.120900D+00  0.100000D+01
   d     1 1.00
  0.109700D+01  0.100000D+01
   d     1 1.00
  0.318000D+00  0.100000D+01
   f     1 1.00
  0.761000D+00  0.100000D+01
  
  8  0
   s     4 1.00
  0.130100D+02  0.196850D-01
  0.196200D+01  0.137977D+00
  0.444600D+00  0.478148D+00
  0.122000D+00  0.501240D+00
   s     1 1.00
  0.122000D+00  0.100000D+01
   p     1 1.00
  0.727000D+00  0.100000D+01
  
  9  0
   s     4 1.00
  0.130100D+02  0.196850D-01
  0.196200D+01  0.137977D+00
  0.444600D+00  0.478148D+00
  0.122000D+00  0.501240D+00
   s     1 1.00
  0.122000D+00  0.100000D+01
   p     1 1.00
  0.727000D+00  0.100000D+01
  
 10  0
   s     4 1.00
  0.130100D+02  0.196850D-01
  0.196200D+01  0.137977D+00
  0.444600D+00  0.478148D+00
  0.122000D+00  0.501240D+00
   s     1 1.00
  0.122000D+00  0.100000D+01
   p     1 1.00
  0.727000D+00  0.100000D+01
  
 11  0
   s     4 1.00
  0.130100D+02  0.196850D-01
  0.196200D+01  0.137977D+00
  0.444600D+00  0.478148D+00
  0.122000D+00  0.501240D+00
   s     1 1.00
  0.122000D+00  0.100000D+01
   p     1 1.00
  0.727000D+00  0.100000D+01
  
 12  0
   s     4 1.00
  0.130100D+02  0.196850D-01
  0.196200D+01  0.137977D+00
  0.444600D+00  0.478148D+00
  0.122000D+00  0.501240D+00
   s     1 1.00
  0.122000D+00  0.100000D+01
   p     1 1.00
  0.727000D+00  0.100000D+01
  
 13  0
   s     4 1.00
  0.130100D+02  0.196850D-01
  0.196200D+01  0.137977D+00
  0.444600D+00  0.478148D+00
  0.122000D+00  0.501240D+00
   s     1 1.00
  0.122000D+00  0.100000D+01
   p     1 1.00
  0.727000D+00  0.100000D+01
  
 14  0
   s     4 1.00
  0.130100D+02  0.196850D-01
  0.196200D+01  0.137977D+00
  0.444600D+00  0.478148D+00
  0.122000D+00  0.501240D+00
   s     1 1.00
  0.122000D+00  0.100000D+01
   p     1 1.00
  0.727000D+00  0.100000D+01
  
[MO]
 Sym= __1_A'_
 Ene=  0.000000000000000E+000
 Spin= Alpha
 Occup=    2.00000000000000     
                     1  8.649030217315310E-005
                     2  0.998381805090822     
                     3 -4.061073806026585E-003
                     4  1.853229505939100E-003
                     5  6.447742598844615E-003
                     6  2.711819661251311E-003
                     7  5.515322890717132E-003
                     8  0.000000000000000E+000
                     9 -7.226134692855555E-004
                    10 -7.146368578909938E-004
                    11  0.000000000000000E+000
                    12 -2.433707020829347E-003
                    13 -1.961435883291737E-003
                    14  0.000000000000000E+000
                    15 -2.805793530625476E-005
                    16  0.000000000000000E+000
                    17  0.000000000000000E+000
                    18 -1.480511534571587E-004
                    19 -5.955533414695474E-005
                    20  1.158302698300381E-004
                    21  0.000000000000000E+000
                    22  0.000000000000000E+000
                    23 -1.623246844671809E-004
                    24  4.681297614226481E-004
                    25  0.000000000000000E+000
                    26 -2.857758087518053E-006
                    27 -4.182158668864185E-005
                    28  0.000000000000000E+000
                    29  0.000000000000000E+000
                    30  3.336863100145529E-005
                    31 -9.849311212960169E-005
                    32 -2.805031407877259E-004
                    33  4.734245947831641E-005
                    34  3.070018695620195E-004
                    35 -1.034365512365626E-004
                    36 -8.836131027844573E-005
                    37 -1.843427936508731E-003
                    38  0.000000000000000E+000
                    39  3.427163554890945E-004
                    40  6.869291396981067E-005
                    41  0.000000000000000E+000
                    42 -1.962085079771898E-003
                    43  4.734018631826924E-003
                    44  0.000000000000000E+000
                    45  1.345454107018700E-005
                    46  0.000000000000000E+000
                    47  0.000000000000000E+000
                    48 -9.511303231409870E-005
                    49  1.116634389184410E-005
                    50 -1.905160678862813E-004
                    51  0.000000000000000E+000
                    52  0.000000000000000E+000
                    53 -9.763095732539561E-006
                    54  7.464018089423431E-004
                    55  0.000000000000000E+000
                    56 -5.039846695139943E-006
                    57 -7.947902771650284E-005
                    58  0.000000000000000E+000
                    59  0.000000000000000E+000
                    60  1.942890725940712E-005
                    61 -1.341219211242024E-004
                    62 -5.190817508930116E-004
                    63 -1.921725435204039E-003
                    64 -9.715105838170968E-005
                    65  2.161519939492091E-003
                    66 -2.956537735461377E-004
                    67 -4.866699321696801E-005
                    68  0.000000000000000E+000
                    69  3.686642374053951E-004
                    70  8.570763406028871E-004
                    71  0.000000000000000E+000
                    72 -1.782218452397384E-003
                    73  6.331733234292717E-004
                    74  0.000000000000000E+000
                    75 -4.760146321524608E-005
                    76  0.000000000000000E+000
                    77  0.000000000000000E+000
                    78 -4.616450476024974E-005
                    79 -2.436097290679580E-005
                    80 -1.329682229034894E-004
                    81  0.000000000000000E+000
                    82  0.000000000000000E+000
                    83  1.587582616937017E-005
                    84 -2.414658191207595E-005
                    85  0.000000000000000E+000
                    86  9.325365052079533E-006
                    87 -4.571311014509445E-005
                    88  0.000000000000000E+000
                    89  0.000000000000000E+000
                    90 -2.894933684476447E-005
                    91 -1.562216726067925E-004
                    92 -1.755600165074330E-004
                    93 -5.245171797607952E-004
                    94  1.472289193454441E-004
                    95 -4.205750903633141E-005
                    96  5.950196816608889E-005
                    97 -1.112012764784185E-004
                    98  0.000000000000000E+000
                    99  3.355784704042657E-004
                   100  3.623880477570070E-004
                   101  0.000000000000000E+000
                   102  6.035988155519666E-004
                   103 -1.646056577856977E-003
                   104  0.000000000000000E+000
                   105 -1.461853865557613E-005
                   106  0.000000000000000E+000
                   107  0.000000000000000E+000
                   108 -3.472584050056574E-005
                   109 -1.133152035120902E-005
                   110  7.285012443460126E-005
                   111  0.000000000000000E+000
                   112  0.000000000000000E+000
                   113 -1.494603551142580E-004
                   114  1.138162162113978E-004
                   115  0.000000000000000E+000
                   116 -1.760195288490637E-005
                   117 -2.168533004849278E-005
                   118  0.000000000000000E+000
                   119  0.000000000000000E+000
                   120 -7.939339113126795E-006
                   121 -4.474595223399616E-005
                   122 -2.405043691405867E-004
                   123 -6.703422007752118E-004
                   124  1.714748808788404E-004
                   125  2.821032297376601E-004
                   126 -3.921488899050517E-005
                   127 -2.046509871446220E-004
                   128  0.000000000000000E+000
                   129  2.341839446742058E-004
                   130  6.342628040607543E-004
                   131  0.000000000000000E+000
                   132  4.358840798221703E-004
                   133  1.861330722215139E-003
                   134  0.000000000000000E+000
                   135  1.539031823082605E-005
                   136  0.000000000000000E+000
                   137  0.000000000000000E+000
                   138  4.893401033177042E-005
                   139 -5.101257419527272E-006
                   140  2.010110320930116E-004
                   141  0.000000000000000E+000
                   142  0.000000000000000E+000
                   143  3.884774804969174E-004
                   144  1.979555031276115E-004
                   145  0.000000000000000E+000
                   146 -1.233817904154618E-005
                   147 -6.251133544616756E-005
                   148  0.000000000000000E+000
                   149  0.000000000000000E+000
                   150 -9.436520606836255E-006
                   151 -5.553733367213438E-005
                   152 -1.340932692520177E-004
                   153 -4.214331994334422E-004
                   154  5.609931373826987E-005
                   155  2.033134168795456E-004
                   156  8.262230086389489E-006
                   157 -6.843483723150885E-006
                   158  0.000000000000000E+000
                   159 -1.225932994139265E-005
                   160  4.743280382299301E-005
                   161  0.000000000000000E+000
                   162  7.214438805076622E-004
                   163 -3.340712303213184E-004
                   164  0.000000000000000E+000
                   165  1.944611554073104E-006
                   166  0.000000000000000E+000
                   167  0.000000000000000E+000
                   168  5.260675896770862E-006
                   169  1.316278321403637E-005
                   170  1.076087692821499E-004
                   171  0.000000000000000E+000
                   172  0.000000000000000E+000
                   173  4.819883572075768E-005
                   174  3.877591074599780E-005
                   175  0.000000000000000E+000
                   176  4.431148994221722E-006
                   177 -1.422406246404480E-005
                   178  0.000000000000000E+000
                   179  0.000000000000000E+000
                   180 -2.520484215484420E-005
                   181 -3.081223296028589E-005
                   182 -1.361962157569289E-004
                   183 -4.060055093984204E-004
                   184  3.088172034525562E-005
                   185  2.156811381401892E-004
                   186 -4.391428985318691E-005
                   187 -5.475616994399813E-005
                   188  0.000000000000000E+000
                   189  2.487169301451397E-004
                   190  1.133589508594873E-004
                   191  0.000000000000000E+000
                   192  1.248187556449877E-003
                   193 -3.038790927720217E-004
                   194  0.000000000000000E+000
                   195  6.146253670027879E-007
                   196  0.000000000000000E+000
                   197  0.000000000000000E+000
                   198 -2.559509514616690E-006
                   199  3.899254322520338E-006
                   200 -6.914833812811222E-006
                   201  0.000000000000000E+000
                   202  0.000000000000000E+000
                   203 -6.535848386674378E-005
                   204 -1.893282966397569E-004
                   205  0.000000000000000E+000
                   206 -8.985704216822051E-006
                   207 -3.750512532819362E-006
                   208  0.000000000000000E+000
                   209  0.000000000000000E+000
                   210  7.677149389542816E-006
                   211 -3.748120220052773E-006
                   212 -2.310573250719068E-005
                   213  1.205537045115631E-004
                   214  1.123187464442473E-005
                   215  2.627765405836039E-005
                   216  0.000000000000000E+000
                   217 -1.229948440321605E-003
                   218 -3.985961831498354E-004
                   219 -2.013769651864618E-004
                   220  3.736827381016720E-005
                   221  0.000000000000000E+000
                   222 -1.549482437317863E-004
                   223 -6.571924836666015E-004
                   224  2.124391149630534E-005
                   225 -5.869849833267842E-005
                   226  0.000000000000000E+000
                   227  8.213366665542509E-005
                   228 -6.172467961529152E-004
                   229 -4.261168008725600E-005
                   230 -1.614849219723457E-005
                   231  0.000000000000000E+000
                   232  5.157943873172746E-005
                   233 -4.424692472117966E-004
                   234  1.452286802219479E-005
                   235 -4.070267946583303E-006
                   236  0.000000000000000E+000
                   237  3.944354435660489E-005
                   238 -3.579159677042592E-004
                   239 -1.022685120716159E-005
                   240 -3.674767873555404E-006
                   241  0.000000000000000E+000
                   242 -6.779321231275744E-005
                   243  8.268743516768790E-005
                   244  6.514930922535386E-008
                   245  2.855367814281496E-005
                   246  0.000000000000000E+000
 Sym= __2_A'_
 Ene=  0.000000000000000E+000
 Spin= Alpha
 Occup=    2.00000000000000     
                     1  4.872708006206995E-005
                     2  3.340437497242415E-004
                     3 -2.778004530514012E-003
                     4 -1.229985432377375E-004
                     5 -1.320693698503084E-003
                     6  2.740009262424682E-004
                     7 -2.676476281064218E-003
                     8  0.000000000000000E+000
                     9  3.495728550178860E-005
                    10  1.107552017624123E-004
                    11  0.000000000000000E+000
                    12  5.616052287079557E-005
                    13  3.148412129402443E-004
                    14  0.000000000000000E+000
                    15 -2.806521027931907E-005
                    16  0.000000000000000E+000
                    17  0.000000000000000E+000
                    18  3.974842038115288E-005
                    19 -1.954046786164034E-005
                    20  1.101263525627740E-004
                    21  0.000000000000000E+000
                    22  0.000000000000000E+000
                    23 -1.271655066203494E-004
                    24  1.522133622287723E-004
                    25  0.000000000000000E+000
                    26  1.802447222687089E-005
                    27 -9.552857038981794E-005
                    28  0.000000000000000E+000
                    29  0.000000000000000E+000
                    30  6.640018266276556E-005
                    31 -1.478356702243903E-004
                    32  -1.00090140267251     
                    33 -9.072921418230410E-003
                    34 -2.762459285372209E-003
                    35  8.060496327336518E-003
                    36  1.795530625089058E-004
                    37  3.089253691435445E-003
                    38  0.000000000000000E+000
                    39  9.248235695523571E-005
                    40 -1.815901572254930E-004
                    41  0.000000000000000E+000
                    42  1.487828691427080E-004
                    43 -3.965862884786669E-003
                    44  0.000000000000000E+000
                    45  5.294285267285856E-004
                    46  0.000000000000000E+000
                    47  0.000000000000000E+000
                    48  1.944963285552272E-004
                    49 -3.304185411464772E-005
                    50 -5.499402561679185E-004
                    51  0.000000000000000E+000
                    52  0.000000000000000E+000
                    53  6.609610395272006E-004
                    54  3.879964006526680E-004
                    55  0.000000000000000E+000
                    56 -1.125564610840404E-005
                    57 -9.933496151749313E-005
                    58  0.000000000000000E+000
                    59  0.000000000000000E+000
                    60  2.578476445914512E-005
                    61 -3.823733123246784E-004
                    62 -1.231587166773629E-002
                    63  2.009782583868804E-003
                    64  2.404626849865854E-004
                    65 -2.707534516169996E-003
                    66 -4.526697735805958E-005
                    67 -8.438215490543035E-005
                    68  0.000000000000000E+000
                    69 -5.350568697361357E-004
                    70 -1.494760088016011E-004
                    71  0.000000000000000E+000
                    72  2.093847389404698E-003
                    73 -2.746077760301186E-004
                    74  0.000000000000000E+000
                    75 -3.350908624013930E-005
                    76  0.000000000000000E+000
                    77  0.000000000000000E+000
                    78  3.294369609964318E-006
                    79 -3.078595984542888E-006
                    80  4.295353124679833E-004
                    81  0.000000000000000E+000
                    82  0.000000000000000E+000
                    83  6.523604962375827E-004
                    84  2.613500719217826E-004
                    85  0.000000000000000E+000
                    86 -2.815196792297264E-005
                    87  5.854915286380423E-005
                    88  0.000000000000000E+000
                    89  0.000000000000000E+000
                    90 -4.210013720219147E-005
                    91 -1.486566657017363E-004
                    92 -1.512492945251475E-002
                    93  2.067279276614373E-003
                    94  2.991221079893930E-004
                    95 -3.164911447913999E-003
                    96 -1.347659318911479E-004
                    97 -1.301877047209899E-004
                    98  0.000000000000000E+000
                    99  9.154341457179702E-004
                   100 -2.534591670696321E-005
                   101  0.000000000000000E+000
                   102 -1.702473204839210E-003
                   103  1.797140254561640E-007
                   104  0.000000000000000E+000
                   105 -2.384687424457617E-005
                   106  0.000000000000000E+000
                   107  0.000000000000000E+000
                   108  5.756042891082026E-006
                   109 -4.719857115802544E-006
                   110  4.211411538014126E-004
                   111  0.000000000000000E+000
                   112  0.000000000000000E+000
                   113  3.943259748314304E-004
                   114 -2.431574226853681E-004
                   115  0.000000000000000E+000
                   116  3.088711484993411E-005
                   117  7.265201105053181E-005
                   118  0.000000000000000E+000
                   119  0.000000000000000E+000
                   120  3.123063174194906E-006
                   121 -1.331880764682862E-004
                   122  8.691506145014595E-005
                   123  6.773440493199667E-004
                   124 -2.302169927813267E-004
                   125  1.314725211814841E-004
                   126 -2.437766702938443E-006
                   127  3.708082904642398E-004
                   128  0.000000000000000E+000
                   129  8.005560184980123E-005
                   130 -6.165179681536769E-004
                   131  0.000000000000000E+000
                   132 -3.765491785172075E-004
                   133 -9.050375343207503E-004
                   134  0.000000000000000E+000
                   135 -1.855538540998832E-005
                   136  0.000000000000000E+000
                   137  0.000000000000000E+000
                   138 -4.062901115875542E-006
                   139 -4.314891577897188E-005
                   140 -1.299269988681566E-004
                   141  0.000000000000000E+000
                   142  0.000000000000000E+000
                   143 -2.535108722053918E-004
                   144  1.092484012694768E-004
                   145  0.000000000000000E+000
                   146 -9.112486375511923E-006
                   147  3.700686173053640E-005
                   148  0.000000000000000E+000
                   149  0.000000000000000E+000
                   150  4.356999427051140E-005
                   151 -3.677097230089554E-005
                   152 -7.916306923700389E-005
                   153  6.508172117981847E-004
                   154 -2.305529544768443E-004
                   155  5.057649564270183E-005
                   156  3.479885947902612E-005
                   157  3.988097685616564E-004
                   158  0.000000000000000E+000
                   159 -1.308256814006219E-004
                   160 -5.516642714457641E-004