[Molden Format]
[Atoms] AU
  N     1    7     0.0000000000    0.0000000000   -4.3813004600        
  C     2    6     0.0000000000    0.0000000000   -1.7855963500        
  C     3    6     0.0000000000   -2.2719783800   -0.4342937800        
  C     4    6     0.0000000000    2.2719783800   -0.4342937800        
  C     5    6     0.0000000000   -2.2622891800    2.1884667600        
  C     6    6     0.0000000000    2.2622891800    2.1884667600        
  C     7    6     0.0000000000    0.0000000000    3.5288214200        
  H     8    1     0.0000000000   -1.6209094600   -5.3464051600        
  H     9    1     0.0000000000    1.6209094600   -5.3464051600        
  H    10    1     0.0000000000   -4.0404809200   -1.4495706800        
  H    11    1     0.0000000000    4.0404809200   -1.4495706800        
  H    12    1     0.0000000000   -4.0384201800    3.1872129000        
  H    13    1     0.0000000000    4.0384201800    3.1872129000        
  H    14    1     0.0000000000    0.0000000000    5.5632925300        
[5D]
[7F]
[GTO]
  1  0
   s    12 1.00
  0.114200D+05  0.172695D-04
  0.171200D+04  0.134411D-03
  0.389300D+03  0.694561D-03
  0.110000D+03  0.278531D-02
  0.355700D+02  0.863457D-02
  0.125400D+02  0.199805D-01
  0.464400D+01  0.262908D-01
  0.129300D+01 -0.243845D-01
  0.511800D+00 -0.924934D-01
  0.178700D+00 -0.339683D+00
  0.246240D-01  0.345111D+00
  0.112530D-01  0.752750D+00
   s    10 1.00
  0.114200D+05  0.523000D-03
  0.171200D+04  0.404500D-02
  0.389300D+03  0.207750D-01
  0.110000D+03  0.807269D-01
  0.355700D+02  0.233074D+00
  0.125400D+02  0.433501D+00
  0.464400D+01  0.347472D+00
  0.129300D+01  0.412620D-01
  0.511800D+00 -0.850799D-02
  0.178700D+00  0.238400D-02
   s    10 1.00
  0.114200D+05 -0.115000D-03
  0.171200D+04 -0.895000D-03
  0.389300D+03 -0.462400D-02
  0.110000D+03 -0.185280D-01
  0.355700D+02 -0.573390D-01
  0.125400D+02 -0.132076D+00
  0.464400D+01 -0.172510D+00
  0.129300D+01  0.151814D+00
  0.511800D+00  0.599944D+00
  0.178700D+00  0.387462D+00
   s     1 1.00
  0.129300D+01  0.100000D+01
   s     1 1.00
  0.178700D+00  0.100000D+01
   p     5 1.00
  0.266300D+02  0.146700D-01
  0.594800D+01  0.917640D-01
  0.174200D+01  0.298683D+00
  0.555000D+00  0.498487D+00
  0.172500D+00  0.337023D+00
   p     1 1.00
  0.174200D+01  0.100000D+01
   p     1 1.00
  0.555000D+00  0.100000D+01
   d     1 1.00
  0.165400D+01  0.100000D+01
   d     1 1.00
  0.469000D+00  0.100000D+01
   f     1 1.00
  0.109300D+01  0.100000D+01
  
  2  0
   s    10 1.00
  0.823600D+04  0.531000D-03
  0.123500D+04  0.410800D-02
  0.280800D+03  0.210870D-01
  0.792700D+02  0.818530D-01
  0.255900D+02  0.234817D+00
  0.899700D+01  0.434401D+00
  0.331900D+01  0.346129D+00
  0.905900D+00  0.393780D-01
  0.364300D+00 -0.898300D-02
  0.128500D+00  0.238500D-02
   s    10 1.00
  0.823600D+04 -0.113000D-03
  0.123500D+04 -0.878000D-03
  0.280800D+03 -0.454000D-02
  0.792700D+02 -0.181330D-01
  0.255900D+02 -0.557600D-01
  0.899700D+01 -0.126895D+00
  0.331900D+01 -0.170352D+00
  0.905900D+00  0.140382D+00
  0.364300D+00  0.598684D+00
  0.128500D+00  0.395389D+00
   s     1 1.00
  0.905900D+00  0.100000D+01
   s     1 1.00
  0.364300D+00  0.100000D+01
   p     5 1.00
  0.187100D+02  0.140310D-01
  0.413300D+01  0.868660D-01
  0.120000D+01  0.290216D+00
  0.382700D+00  0.501008D+00
  0.120900D+00  0.343406D+00
   p     1 1.00
  0.382700D+00  0.100000D+01
   p     1 1.00
  0.120900D+00  0.100000D+01
   d     1 1.00
  0.109700D+01  0.100000D+01
   d     1 1.00
  0.318000D+00  0.100000D+01
   f     1 1.00
  0.761000D+00  0.100000D+01
  
  3  0
   s    10 1.00
  0.823600D+04  0.531000D-03
  0.123500D+04  0.410800D-02
  0.280800D+03  0.210870D-01
  0.792700D+02  0.818530D-01
  0.255900D+02  0.234817D+00
  0.899700D+01  0.434401D+00
  0.331900D+01  0.346129D+00
  0.905900D+00  0.393780D-01
  0.364300D+00 -0.898300D-02
  0.128500D+00  0.238500D-02
   s    10 1.00
  0.823600D+04 -0.113000D-03
  0.123500D+04 -0.878000D-03
  0.280800D+03 -0.454000D-02
  0.792700D+02 -0.181330D-01
  0.255900D+02 -0.557600D-01
  0.899700D+01 -0.126895D+00
  0.331900D+01 -0.170352D+00
  0.905900D+00  0.140382D+00
  0.364300D+00  0.598684D+00
  0.128500D+00  0.395389D+00
   s     1 1.00
  0.905900D+00  0.100000D+01
   s     1 1.00
  0.364300D+00  0.100000D+01
   p     5 1.00
  0.187100D+02  0.140310D-01
  0.413300D+01  0.868660D-01
  0.120000D+01  0.290216D+00
  0.382700D+00  0.501008D+00
  0.120900D+00  0.343406D+00
   p     1 1.00
  0.382700D+00  0.100000D+01
   p     1 1.00
  0.120900D+00  0.100000D+01
   d     1 1.00
  0.109700D+01  0.100000D+01
   d     1 1.00
  0.318000D+00  0.100000D+01
   f     1 1.00
  0.761000D+00  0.100000D+01
  
  4  0
   s    10 1.00
  0.823600D+04  0.531000D-03
  0.123500D+04  0.410800D-02
  0.280800D+03  0.210870D-01
  0.792700D+02  0.818530D-01
  0.255900D+02  0.234817D+00
  0.899700D+01  0.434401D+00
  0.331900D+01  0.346129D+00
  0.905900D+00  0.393780D-01
  0.364300D+00 -0.898300D-02
  0.128500D+00  0.238500D-02
   s    10 1.00
  0.823600D+04 -0.113000D-03
  0.123500D+04 -0.878000D-03
  0.280800D+03 -0.454000D-02
  0.792700D+02 -0.181330D-01
  0.255900D+02 -0.557600D-01
  0.899700D+01 -0.126895D+00
  0.331900D+01 -0.170352D+00
  0.905900D+00  0.140382D+00
  0.364300D+00  0.598684D+00
  0.128500D+00  0.395389D+00
   s     1 1.00
  0.905900D+00  0.100000D+01
   s     1 1.00
  0.364300D+00  0.100000D+01
   p     5 1.00
  0.187100D+02  0.140310D-01
  0.413300D+01  0.868660D-01
  0.120000D+01  0.290216D+00
  0.382700D+00  0.501008D+00
  0.120900D+00  0.343406D+00
   p     1 1.00
  0.382700D+00  0.100000D+01
   p     1 1.00
  0.120900D+00  0.100000D+01
   d     1 1.00
  0.109700D+01  0.100000D+01
   d     1 1.00
  0.318000D+00  0.100000D+01
   f     1 1.00
  0.761000D+00  0.100000D+01
  
  5  0
   s    10 1.00
  0.823600D+04  0.531000D-03
  0.123500D+04  0.410800D-02
  0.280800D+03  0.210870D-01
  0.792700D+02  0.818530D-01
  0.255900D+02  0.234817D+00
  0.899700D+01  0.434401D+00
  0.331900D+01  0.346129D+00
  0.905900D+00  0.393780D-01
  0.364300D+00 -0.898300D-02
  0.128500D+00  0.238500D-02
   s    10 1.00
  0.823600D+04 -0.113000D-03
  0.123500D+04 -0.878000D-03
  0.280800D+03 -0.454000D-02
  0.792700D+02 -0.181330D-01
  0.255900D+02 -0.557600D-01
  0.899700D+01 -0.126895D+00
  0.331900D+01 -0.170352D+00
  0.905900D+00  0.140382D+00
  0.364300D+00  0.598684D+00
  0.128500D+00  0.395389D+00
   s     1 1.00
  0.905900D+00  0.100000D+01
   s     1 1.00
  0.364300D+00  0.100000D+01
   p     5 1.00
  0.187100D+02  0.140310D-01
  0.413300D+01  0.868660D-01
  0.120000D+01  0.290216D+00
  0.382700D+00  0.501008D+00
  0.120900D+00  0.343406D+00
   p     1 1.00
  0.382700D+00  0.100000D+01
   p     1 1.00
  0.120900D+00  0.100000D+01
   d     1 1.00
  0.109700D+01  0.100000D+01
   d     1 1.00
  0.318000D+00  0.100000D+01
   f     1 1.00
  0.761000D+00  0.100000D+01
  
  6  0
   s    10 1.00
  0.823600D+04  0.531000D-03
  0.123500D+04  0.410800D-02
  0.280800D+03  0.210870D-01
  0.792700D+02  0.818530D-01
  0.255900D+02  0.234817D+00
  0.899700D+01  0.434401D+00
  0.331900D+01  0.346129D+00
  0.905900D+00  0.393780D-01
  0.364300D+00 -0.898300D-02
  0.128500D+00  0.238500D-02
   s    10 1.00
  0.823600D+04 -0.113000D-03
  0.123500D+04 -0.878000D-03
  0.280800D+03 -0.454000D-02
  0.792700D+02 -0.181330D-01
  0.255900D+02 -0.557600D-01
  0.899700D+01 -0.126895D+00
  0.331900D+01 -0.170352D+00
  0.905900D+00  0.140382D+00
  0.364300D+00  0.598684D+00
  0.128500D+00  0.395389D+00
   s     1 1.00
  0.905900D+00  0.100000D+01
   s     1 1.00
  0.364300D+00  0.100000D+01
   p     5 1.00
  0.187100D+02  0.140310D-01
  0.413300D+01  0.868660D-01
  0.120000D+01  0.290216D+00
  0.382700D+00  0.501008D+00
  0.120900D+00  0.343406D+00
   p     1 1.00
  0.382700D+00  0.100000D+01
   p     1 1.00
  0.120900D+00  0.100000D+01
   d     1 1.00
  0.109700D+01  0.100000D+01
   d     1 1.00
  0.318000D+00  0.100000D+01
   f     1 1.00
  0.761000D+00  0.100000D+01
  
  7  0
   s    10 1.00
  0.823600D+04  0.531000D-03
  0.123500D+04  0.410800D-02
  0.280800D+03  0.210870D-01
  0.792700D+02  0.818530D-01
  0.255900D+02  0.234817D+00
  0.899700D+01  0.434401D+00
  0.331900D+01  0.346129D+00
  0.905900D+00  0.393780D-01
  0.364300D+00 -0.898300D-02
  0.128500D+00  0.238500D-02
   s    10 1.00
  0.823600D+04 -0.113000D-03
  0.123500D+04 -0.878000D-03
  0.280800D+03 -0.454000D-02
  0.792700D+02 -0.181330D-01
  0.255900D+02 -0.557600D-01
  0.899700D+01 -0.126895D+00
  0.331900D+01 -0.170352D+00
  0.905900D+00  0.140382D+00
  0.364300D+00  0.598684D+00
  0.128500D+00  0.395389D+00
   s     1 1.00
  0.905900D+00  0.100000D+01
   s     1 1.00
  0.364300D+00  0.100000D+01
   p     5 1.00
  0.187100D+02  0.140310D-01
  0.413300D+01  0.868660D-01
  0.120000D+01  0.290216D+00
  0.382700D+00  0.501008D+00
  0.120900D+00  0.343406D+00
   p     1 1.00
  0.382700D+00  0.100000D+01
   p     1 1.00
  0.120900D+00  0.100000D+01
   d     1 1.00
  0.109700D+01  0.100000D+01
   d     1 1.00
  0.318000D+00  0.100000D+01
   f     1 1.00
  0.761000D+00  0.100000D+01
  
  8  0
   s     4 1.00
  0.130100D+02  0.196850D-01
  0.196200D+01  0.137977D+00
  0.444600D+00  0.478148D+00
  0.122000D+00  0.501240D+00
   s     1 1.00
  0.122000D+00  0.100000D+01
   p     1 1.00
  0.727000D+00  0.100000D+01
  
  9  0
   s     4 1.00
  0.130100D+02  0.196850D-01
  0.196200D+01  0.137977D+00
  0.444600D+00  0.478148D+00
  0.122000D+00  0.501240D+00
   s     1 1.00
  0.122000D+00  0.100000D+01
   p     1 1.00
  0.727000D+00  0.100000D+01
  
 10  0
   s     4 1.00
  0.130100D+02  0.196850D-01
  0.196200D+01  0.137977D+00
  0.444600D+00  0.478148D+00
  0.122000D+00  0.501240D+00
   s     1 1.00
  0.122000D+00  0.100000D+01
   p     1 1.00
  0.727000D+00  0.100000D+01
  
 11  0
   s     4 1.00
  0.130100D+02  0.196850D-01
  0.196200D+01  0.137977D+00
  0.444600D+00  0.478148D+00
  0.122000D+00  0.501240D+00
   s     1 1.00
  0.122000D+00  0.100000D+01
   p     1 1.00
  0.727000D+00  0.100000D+01
  
 12  0
   s     4 1.00
  0.130100D+02  0.196850D-01
  0.196200D+01  0.137977D+00
  0.444600D+00  0.478148D+00
  0.122000D+00  0.501240D+00
   s     1 1.00
  0.122000D+00  0.100000D+01
   p     1 1.00
  0.727000D+00  0.100000D+01
  
 13  0
   s     4 1.00
  0.130100D+02  0.196850D-01
  0.196200D+01  0.137977D+00
  0.444600D+00  0.478148D+00
  0.122000D+00  0.501240D+00
   s     1 1.00
  0.122000D+00  0.100000D+01
   p     1 1.00
  0.727000D+00  0.100000D+01
  
 14  0
   s     4 1.00
  0.130100D+02  0.196850D-01
  0.196200D+01  0.137977D+00
  0.444600D+00  0.478148D+00
  0.122000D+00  0.501240D+00
   s     1 1.00
  0.122000D+00  0.100000D+01
   p     1 1.00
  0.727000D+00  0.100000D+01
  
[MO]
 Sym= __1_A1_
 Ene=  0.000000000000000E+000
 Spin= Alpha
 Occup=    2.00000000000000     
                     1  2.215833959978922E-005
                     2  0.998200510495959     
                     3  6.786454291907540E-004
                     4  2.185039258014706E-003
                     5  3.138021207869216E-003
                     6  0.000000000000000E+000
                     7  0.000000000000000E+000
                     8  3.439966210094297E-003
                     9  0.000000000000000E+000
                    10  0.000000000000000E+000
                    11 -6.249638580972365E-005
                    12  0.000000000000000E+000
                    13  0.000000000000000E+000
                    14 -4.476416614740646E-004
                    15  1.402386569606889E-004
                    16  0.000000000000000E+000
                    17  0.000000000000000E+000
                    18 -7.541872295386670E-005
                    19  0.000000000000000E+000
                    20 -1.206348256035552E-004
                    21  0.000000000000000E+000
                    22  0.000000000000000E+000
                    23  3.858098853679176E-004
                    24  0.000000000000000E+000
                    25 -1.086762125990892E-004
                    26  0.000000000000000E+000
                    27  0.000000000000000E+000
                    28  8.249755260573382E-005
                    29  0.000000000000000E+000
                    30  0.000000000000000E+000
                    31  0.000000000000000E+000
                    32 -1.547960519574624E-004
                    33  1.440840230134079E-003
                    34  2.255341441601385E-005
                    35  3.753222949470641E-005
                    36  0.000000000000000E+000
                    37  0.000000000000000E+000
                    38 -3.532221330730821E-003
                    39  0.000000000000000E+000
                    40  0.000000000000000E+000
                    41 -5.187532875876990E-004
                    42  0.000000000000000E+000
                    43  0.000000000000000E+000
                    44  3.486625642179951E-003
                    45  2.303481927394172E-004
                    46  0.000000000000000E+000
                    47  0.000000000000000E+000
                    48  8.711068898320574E-005
                    49  0.000000000000000E+000
                    50  3.382090685390656E-004
                    51  0.000000000000000E+000
                    52  0.000000000000000E+000
                    53 -1.846753112491628E-004
                    54  0.000000000000000E+000
                    55 -8.023240853382652E-005
                    56  0.000000000000000E+000
                    57  0.000000000000000E+000
                    58  7.140857454190138E-005
                    59  0.000000000000000E+000
                    60  0.000000000000000E+000
                    61  0.000000000000000E+000
                    62 -1.859772885885352E-004
                    63 -1.037416345650383E-003
                    64 -5.355149672094789E-006
                    65  6.716816548166343E-004
                    66  0.000000000000000E+000
                    67 -4.133077415943091E-004
                    68  3.208963461503999E-004
                    69  0.000000000000000E+000
                    70  6.169846272273889E-005
                    71  4.277947839666077E-004
                    72  0.000000000000000E+000
                    73 -5.465570153017507E-004
                    74 -2.944414304004486E-004
                    75  5.531995094638867E-005
                    76  0.000000000000000E+000
                    77 -1.066362396019834E-005
                    78  7.645165192160205E-006
                    79  0.000000000000000E+000
                    80  8.473111703441874E-006
                    81  0.000000000000000E+000
                    82 -3.291603564229839E-005
                    83 -3.994253272847594E-005
                    84  0.000000000000000E+000
                    85 -9.773533721403881E-005
                    86  0.000000000000000E+000
                    87 -3.009569773996876E-005
                    88  3.048793111401544E-005
                    89  0.000000000000000E+000
                    90  0.000000000000000E+000
                    91  6.528754898159230E-006
                    92 -1.859772885885352E-004
                    93 -1.037416345650383E-003
                    94 -5.355149672094789E-006
                    95  6.716816548166343E-004
                    96  0.000000000000000E+000
                    97  4.133077415943091E-004
                    98  3.208963461503999E-004
                    99  0.000000000000000E+000
                   100 -6.169846272273889E-005
                   101  4.277947839666077E-004
                   102  0.000000000000000E+000
                   103  5.465570153017507E-004
                   104 -2.944414304004486E-004
                   105  5.531995094638867E-005
                   106  0.000000000000000E+000
                   107  1.066362396019834E-005
                   108  7.645165192160205E-006
                   109  0.000000000000000E+000
                   110  8.473111703441874E-006
                   111  0.000000000000000E+000
                   112  3.291603564229839E-005
                   113 -3.994253272847594E-005
                   114  0.000000000000000E+000
                   115 -9.773533721403881E-005
                   116  0.000000000000000E+000
                   117  3.009569773996876E-005
                   118  3.048793111401544E-005
                   119  0.000000000000000E+000
                   120  0.000000000000000E+000
                   121 -6.528754898159230E-006
                   122 -1.084520648934923E-004
                   123 -1.466737765303435E-004
                   124  8.912492428840720E-005
                   125  1.209635553904932E-004
                   126  0.000000000000000E+000
                   127 -1.109933781197541E-006
                   128 -3.503592527667173E-004
                   129  0.000000000000000E+000
                   130  1.005931218585504E-004
                   131  2.869472621157890E-004
                   132  0.000000000000000E+000
                   133 -1.911588644972899E-004
                   134  5.385665386029452E-004
                   135 -2.307918659478273E-005
                   136  0.000000000000000E+000
                   137 -5.460282387824988E-006
                   138 -4.573198644353052E-006
                   139  0.000000000000000E+000
                   140 -1.776702243289583E-004
                   141  0.000000000000000E+000
                   142  9.203669521755799E-005
                   143  2.895018442721614E-005
                   144  0.000000000000000E+000
                   145 -4.464461169246526E-005
                   146  0.000000000000000E+000
                   147  9.570725428238216E-006
                   148 -6.960138469964710E-006
                   149  0.000000000000000E+000
                   150  0.000000000000000E+000
                   151 -3.517969878911812E-006
                   152 -1.084520648934923E-004
                   153 -1.466737765303435E-004
                   154  8.912492428840720E-005
                   155  1.209635553904932E-004
                   156  0.000000000000000E+000
                   157  1.109933781197541E-006
                   158 -3.503592527667173E-004
                   159  0.000000000000000E+000
                   160 -1.005931218585504E-004
                   161  2.869472621157890E-004
                   162  0.000000000000000E+000
                   163  1.911588644972899E-004
                   164  5.385665386029452E-004
                   165 -2.307918659478273E-005
                   166  0.000000000000000E+000
                   167  5.460282387824988E-006
                   168 -4.573198644353052E-006
                   169  0.000000000000000E+000
                   170 -1.776702243289583E-004
                   171  0.000000000000000E+000
                   172 -9.203669521755799E-005
                   173  2.895018442721614E-005
                   174  0.000000000000000E+000
                   175 -4.464461169246526E-005
                   176  0.000000000000000E+000
                   177 -9.570725428238216E-006
                   178 -6.960138469964710E-006
                   179  0.000000000000000E+000
                   180  0.000000000000000E+000
                   181  3.517969878911812E-006
                   182 -6.919105031328851E-005
                   183 -1.915468824148489E-004
                   184  2.500045428324702E-005
                   185  7.514233328731586E-005
                   186  0.000000000000000E+000
                   187  0.000000000000000E+000
                   188 -3.271713316309748E-005
                   189  0.000000000000000E+000
                   190  0.000000000000000E+000
                   191  4.468151566439845E-005
                   192  0.000000000000000E+000
                   193  0.000000000000000E+000
                   194 -6.650679704303844E-005
                   195  1.208442497493087E-005
                   196  0.000000000000000E+000
                   197  0.000000000000000E+000
                   198  5.049820552987270E-006
                   199  0.000000000000000E+000
                   200  4.497450300403714E-005
                   201  0.000000000000000E+000
                   202  0.000000000000000E+000
                   203  5.208671533155208E-005
                   204  0.000000000000000E+000
                   205 -2.828828051704897E-006
                   206  0.000000000000000E+000
                   207  0.000000000000000E+000
                   208 -4.603504329718898E-006
                   209  0.000000000000000E+000
                   210  0.000000000000000E+000
                   211  0.000000000000000E+000
                   212  1.131073419976146E-003
                   213 -1.125073342692347E-003
                   214  0.000000000000000E+000
                   215  1.970009954725860E-004
                   216  1.742727644577485E-004
                   217  1.131073419976146E-003
                   218 -1.125073342692347E-003
                   219  0.000000000000000E+000
                   220 -1.970009954725860E-004
                   221  1.742727644577485E-004
                   222 -2.617341637930530E-004
                   223 -2.582521491422187E-004
                   224  0.000000000000000E+000
                   225  1.834238980159268E-006
                   226 -3.643846392917340E-005
                   227 -2.617341637930530E-004
                   228 -2.582521491422187E-004
                   229  0.000000000000000E+000
                   230 -1.834238980159268E-006
                   231 -3.643846392917340E-005
                   232 -5.009108963372514E-005
                   233 -3.420329376760359E-004
                   234  0.000000000000000E+000
                   235  6.415070269710425E-006
                   236 -3.439400771414102E-006
                   237 -5.009108963372514E-005
                   238 -3.420329376760359E-004
                   239  0.000000000000000E+000
                   240 -6.415070269710425E-006
                   241 -3.439400771414102E-006
                   242  2.098023809978533E-005
                   243 -3.992264629022661E-005
                   244  0.000000000000000E+000
                   245  0.000000000000000E+000
                   246  1.195328453921600E-005
 Sym= __2_A1_
 Ene=  0.000000000000000E+000
 Spin= Alpha
 Occup=    2.00000000000000     
                     1 -4.642982552815581E-005
                     2 -1.254090128759316E-004
                     3  2.153559131302529E-003
                     4  1.327943262472962E-005
                     5  1.223403207666853E-003
                     6  0.000000000000000E+000
                     7  0.000000000000000E+000
                     8  2.684881004136172E-003
                     9  0.000000000000000E+000
                    10  0.000000000000000E+000
                    11 -1.020687773194483E-004
                    12  0.000000000000000E+000
                    13  0.000000000000000E+000
                    14 -2.621493979467192E-004
                    15  6.664441470711956E-005
                    16  0.000000000000000E+000
                    17  0.000000000000000E+000
                    18  6.263694966906084E-005
                    19  0.000000000000000E+000
                    20 -2.309697551890566E-004
                    21  0.000000000000000E+000
                    22  0.000000000000000E+000
                    23 -3.314926464352818E-004
                    24  0.000000000000000E+000
                    25  2.042376799263729E-004
                    26  0.000000000000000E+000
                    27  0.000000000000000E+000
                    28 -1.355873765022235E-005
                    29  0.000000000000000E+000
                    30  0.000000000000000E+000
                    31  0.000000000000000E+000
                    32   1.00098924017186     
                    33  9.112265864995953E-003
                    34  2.787258040251075E-003
                    35 -7.882892491321996E-003
                    36  0.000000000000000E+000
                    37  0.000000000000000E+000
                    38 -3.967259968825489E-003
                    39  0.000000000000000E+000
                    40  0.000000000000000E+000
                    41  1.576363661868333E-003
                    42  0.000000000000000E+000
                    43  0.000000000000000E+000
                    44  4.159373874021711E-003
                    45  3.475215718511871E-004
                    46  0.000000000000000E+000
                    47  0.000000000000000E+000
                    48 -4.785452913220300E-004
                    49  0.000000000000000E+000
                    50  4.806782119951626E-004
                    51  0.000000000000000E+000
                    52  0.000000000000000E+000
                    53  9.720030619516478E-004
                    54  0.000000000000000E+000
                    55  3.330661670327881E-004
                    56  0.000000000000000E+000
                    57  0.000000000000000E+000
                    58 -2.428433427373432E-004
                    59  0.000000000000000E+000
                    60  0.000000000000000E+000
                    61  0.000000000000000E+000
                    62  8.856870815819880E-003
                    63 -2.084061927497433E-003
                    64 -2.832104218022302E-004
                    65  3.143136280093240E-003
                    66  0.000000000000000E+000
                    67  1.776603965129653E-004
                    68 -9.734985819534639E-005
                    69  0.000000000000000E+000
                    70  4.716346569599395E-004
                    71  2.953903548311368E-005
                    72  0.000000000000000E+000
                    73 -1.962311198694015E-003
                    74  1.999582703100807E-004
                    75 -2.122434949256733E-005
                    76  0.000000000000000E+000
                    77  3.378259830899231E-005
                    78  4.068545138069276E-005
                    79  0.000000000000000E+000
                    80  8.854892966594390E-004
                    81  0.000000000000000E+000
                    82 -4.353260104161663E-004
                    83  1.649168203799458E-005
                    84  0.000000000000000E+000
                    85  5.881900626376147E-005
                    86  0.000000000000000E+000
                    87  3.214138720497544E-005
                    88 -1.128638081308153E-004
                    89  0.000000000000000E+000
                    90  0.000000000000000E+000
                    91  5.240559155925269E-005
                    92  8.856870815819880E-003
                    93 -2.084061927497433E-003
                    94 -2.832104218022302E-004
                    95  3.143136280093240E-003
                    96  0.000000000000000E+000
                    97 -1.776603965129653E-004
                    98 -9.734985819534639E-005
                    99  0.000000000000000E+000
                   100 -4.716346569599395E-004
                   101  2.953903548311368E-005
                   102  0.000000000000000E+000
                   103  1.962311198694015E-003
                   104  1.999582703100807E-004
                   105 -2.122434949256733E-005
                   106  0.000000000000000E+000
                   107 -3.378259830899231E-005
                   108  4.068545138069276E-005
                   109  0.000000000000000E+000
                   110  8.854892966594390E-004
                   111  0.000000000000000E+000
                   112  4.353260104161663E-004
                   113  1.649168203799458E-005
                   114  0.000000000000000E+000
                   115  5.881900626376147E-005
                   116  0.000000000000000E+000
                   117 -3.214138720497544E-005
                   118 -1.128638081308153E-004
                   119  0.000000000000000E+000
                   120  0.000000000000000E+000
                   121 -5.240559155925269E-005
                   122 -2.274145279695107E-004
                   123 -7.692587770576177E-004
                   124  2.478408552306159E-004
                   125 -2.420446519117714E-004
                   126  0.000000000000000E+000
                   127 -3.693082603184395E-005
                   128 -2.127534087511718E-004
                   129  0.000000000000000E+000
                   130  2.779688250422053E-005
                   131  5.847350230692160E-004
                   132  0.000000000000000E+000
                   133  3.512773198345805E-004
                   134  6.447672706836959E-004
                   135 -2.410598537826877E-005
                   136  0.000000000000000E+000
                   137  4.414383975601694E-005
                   138  1.625736265798981E-005
                   139  0.000000000000000E+000
                   140 -3.253951664028045E-004
                   141  0.000000000000000E+000
                   142 -2.472596748940187E-004
                   143 -4.113809928007920E-005
                   144  0.000000000000000E+000
                   145 -5.539913470579899E-006
                   146  0.000000000000000E+000
                   147 -2.782859039230535E-005
                   148 -2.919022353316698E-005
                   149  0.000000000000000E+000
                   150  0.000000000000000E+000
                   151 -5.447921999432449E-006
                   152 -2.274145279695107E-004
                   153 -7.692587770576177E-004
                   154  2.478408552306159E-004
                   155 -2.420446519117714E-004
                   156  0.000000000000000E+000
                   157  3.693082603184395E-005
                   158 -2.127534087511718E-004
                   159  0.000000000000000E+000
                   160 -2.779688250422053E-005