[Molden Format]
[Atoms] AU
  N     1    7     0.0789219700   -4.4489392200    0.0000000000        
  C     2    6     0.1093399100   -1.9515087000    0.0000000000        
  C     3    6    -2.2250026100   -0.5653969800    0.0000000000        
  C     4    6     2.3198755900   -0.3741176900    0.0000000000        
  C     5    6    -2.2868331600    2.1273671600    0.0000000000        
  C     6    6     2.1630199200    2.3254019900    0.0000000000        
  C     7    6    -0.1134814000    3.5870239300    0.0000000000        
  H     8    1    -2.2568571300   -5.7698741600    0.0000000000        
  H     9    1     1.7962606100   -5.3432967400    0.0000000000        
  H    10    1    -3.9598081300   -1.5998708600    0.0000000000        
  H    11    1     4.1520055200   -1.2359909300    0.0000000000        
  H    12    1    -4.1081529900    3.0227853000    0.0000000000        
  H    13    1     3.9035467900    3.3685935300    0.0000000000        
  H    14    1    -0.2021616500    5.6078780200    0.0000000000        
[5D]
[7F]
[GTO]
  1  0
   s    12 1.00
  0.114200D+05  0.172695D-04
  0.171200D+04  0.134411D-03
  0.389300D+03  0.694561D-03
  0.110000D+03  0.278531D-02
  0.355700D+02  0.863457D-02
  0.125400D+02  0.199805D-01
  0.464400D+01  0.262908D-01
  0.129300D+01 -0.243845D-01
  0.511800D+00 -0.924934D-01
  0.178700D+00 -0.339683D+00
  0.246240D-01  0.345111D+00
  0.112530D-01  0.752750D+00
   s    10 1.00
  0.114200D+05  0.523000D-03
  0.171200D+04  0.404500D-02
  0.389300D+03  0.207750D-01
  0.110000D+03  0.807269D-01
  0.355700D+02  0.233074D+00
  0.125400D+02  0.433501D+00
  0.464400D+01  0.347472D+00
  0.129300D+01  0.412620D-01
  0.511800D+00 -0.850799D-02
  0.178700D+00  0.238400D-02
   s    10 1.00
  0.114200D+05 -0.115000D-03
  0.171200D+04 -0.895000D-03
  0.389300D+03 -0.462400D-02
  0.110000D+03 -0.185280D-01
  0.355700D+02 -0.573390D-01
  0.125400D+02 -0.132076D+00
  0.464400D+01 -0.172510D+00
  0.129300D+01  0.151814D+00
  0.511800D+00  0.599944D+00
  0.178700D+00  0.387462D+00
   s     1 1.00
  0.129300D+01  0.100000D+01
   s     1 1.00
  0.178700D+00  0.100000D+01
   p     5 1.00
  0.266300D+02  0.146700D-01
  0.594800D+01  0.917640D-01
  0.174200D+01  0.298683D+00
  0.555000D+00  0.498487D+00
  0.172500D+00  0.337023D+00
   p     1 1.00
  0.174200D+01  0.100000D+01
   p     1 1.00
  0.555000D+00  0.100000D+01
   d     1 1.00
  0.165400D+01  0.100000D+01
   d     1 1.00
  0.469000D+00  0.100000D+01
   f     1 1.00
  0.109300D+01  0.100000D+01
  
  2  0
   s    10 1.00
  0.823600D+04  0.531000D-03
  0.123500D+04  0.410800D-02
  0.280800D+03  0.210870D-01
  0.792700D+02  0.818530D-01
  0.255900D+02  0.234817D+00
  0.899700D+01  0.434401D+00
  0.331900D+01  0.346129D+00
  0.905900D+00  0.393780D-01
  0.364300D+00 -0.898300D-02
  0.128500D+00  0.238500D-02
   s    10 1.00
  0.823600D+04 -0.113000D-03
  0.123500D+04 -0.878000D-03
  0.280800D+03 -0.454000D-02
  0.792700D+02 -0.181330D-01
  0.255900D+02 -0.557600D-01
  0.899700D+01 -0.126895D+00
  0.331900D+01 -0.170352D+00
  0.905900D+00  0.140382D+00
  0.364300D+00  0.598684D+00
  0.128500D+00  0.395389D+00
   s     1 1.00
  0.905900D+00  0.100000D+01
   s     1 1.00
  0.364300D+00  0.100000D+01
   p     5 1.00
  0.187100D+02  0.140310D-01
  0.413300D+01  0.868660D-01
  0.120000D+01  0.290216D+00
  0.382700D+00  0.501008D+00
  0.120900D+00  0.343406D+00
   p     1 1.00
  0.382700D+00  0.100000D+01
   p     1 1.00
  0.120900D+00  0.100000D+01
   d     1 1.00
  0.109700D+01  0.100000D+01
   d     1 1.00
  0.318000D+00  0.100000D+01
   f     1 1.00
  0.761000D+00  0.100000D+01
  
  3  0
   s    10 1.00
  0.823600D+04  0.531000D-03
  0.123500D+04  0.410800D-02
  0.280800D+03  0.210870D-01
  0.792700D+02  0.818530D-01
  0.255900D+02  0.234817D+00
  0.899700D+01  0.434401D+00
  0.331900D+01  0.346129D+00
  0.905900D+00  0.393780D-01
  0.364300D+00 -0.898300D-02
  0.128500D+00  0.238500D-02
   s    10 1.00
  0.823600D+04 -0.113000D-03
  0.123500D+04 -0.878000D-03
  0.280800D+03 -0.454000D-02
  0.792700D+02 -0.181330D-01
  0.255900D+02 -0.557600D-01
  0.899700D+01 -0.126895D+00
  0.331900D+01 -0.170352D+00
  0.905900D+00  0.140382D+00
  0.364300D+00  0.598684D+00
  0.128500D+00  0.395389D+00
   s     1 1.00
  0.905900D+00  0.100000D+01
   s     1 1.00
  0.364300D+00  0.100000D+01
   p     5 1.00
  0.187100D+02  0.140310D-01
  0.413300D+01  0.868660D-01
  0.120000D+01  0.290216D+00
  0.382700D+00  0.501008D+00
  0.120900D+00  0.343406D+00
   p     1 1.00
  0.382700D+00  0.100000D+01
   p     1 1.00
  0.120900D+00  0.100000D+01
   d     1 1.00
  0.109700D+01  0.100000D+01
   d     1 1.00
  0.318000D+00  0.100000D+01
   f     1 1.00
  0.761000D+00  0.100000D+01
  
  4  0
   s    10 1.00
  0.823600D+04  0.531000D-03
  0.123500D+04  0.410800D-02
  0.280800D+03  0.210870D-01
  0.792700D+02  0.818530D-01
  0.255900D+02  0.234817D+00
  0.899700D+01  0.434401D+00
  0.331900D+01  0.346129D+00
  0.905900D+00  0.393780D-01
  0.364300D+00 -0.898300D-02
  0.128500D+00  0.238500D-02
   s    10 1.00
  0.823600D+04 -0.113000D-03
  0.123500D+04 -0.878000D-03
  0.280800D+03 -0.454000D-02
  0.792700D+02 -0.181330D-01
  0.255900D+02 -0.557600D-01
  0.899700D+01 -0.126895D+00
  0.331900D+01 -0.170352D+00
  0.905900D+00  0.140382D+00
  0.364300D+00  0.598684D+00
  0.128500D+00  0.395389D+00
   s     1 1.00
  0.905900D+00  0.100000D+01
   s     1 1.00
  0.364300D+00  0.100000D+01
   p     5 1.00
  0.187100D+02  0.140310D-01
  0.413300D+01  0.868660D-01
  0.120000D+01  0.290216D+00
  0.382700D+00  0.501008D+00
  0.120900D+00  0.343406D+00
   p     1 1.00
  0.382700D+00  0.100000D+01
   p     1 1.00
  0.120900D+00  0.100000D+01
   d     1 1.00
  0.109700D+01  0.100000D+01
   d     1 1.00
  0.318000D+00  0.100000D+01
   f     1 1.00
  0.761000D+00  0.100000D+01
  
  5  0
   s    10 1.00
  0.823600D+04  0.531000D-03
  0.123500D+04  0.410800D-02
  0.280800D+03  0.210870D-01
  0.792700D+02  0.818530D-01
  0.255900D+02  0.234817D+00
  0.899700D+01  0.434401D+00
  0.331900D+01  0.346129D+00
  0.905900D+00  0.393780D-01
  0.364300D+00 -0.898300D-02
  0.128500D+00  0.238500D-02
   s    10 1.00
  0.823600D+04 -0.113000D-03
  0.123500D+04 -0.878000D-03
  0.280800D+03 -0.454000D-02
  0.792700D+02 -0.181330D-01
  0.255900D+02 -0.557600D-01
  0.899700D+01 -0.126895D+00
  0.331900D+01 -0.170352D+00
  0.905900D+00  0.140382D+00
  0.364300D+00  0.598684D+00
  0.128500D+00  0.395389D+00
   s     1 1.00
  0.905900D+00  0.100000D+01
   s     1 1.00
  0.364300D+00  0.100000D+01
   p     5 1.00
  0.187100D+02  0.140310D-01
  0.413300D+01  0.868660D-01
  0.120000D+01  0.290216D+00
  0.382700D+00  0.501008D+00
  0.120900D+00  0.343406D+00
   p     1 1.00
  0.382700D+00  0.100000D+01
   p     1 1.00
  0.120900D+00  0.100000D+01
   d     1 1.00
  0.109700D+01  0.100000D+01
   d     1 1.00
  0.318000D+00  0.100000D+01
   f     1 1.00
  0.761000D+00  0.100000D+01
  
  6  0
   s    10 1.00
  0.823600D+04  0.531000D-03
  0.123500D+04  0.410800D-02
  0.280800D+03  0.210870D-01
  0.792700D+02  0.818530D-01
  0.255900D+02  0.234817D+00
  0.899700D+01  0.434401D+00
  0.331900D+01  0.346129D+00
  0.905900D+00  0.393780D-01
  0.364300D+00 -0.898300D-02
  0.128500D+00  0.238500D-02
   s    10 1.00
  0.823600D+04 -0.113000D-03
  0.123500D+04 -0.878000D-03
  0.280800D+03 -0.454000D-02
  0.792700D+02 -0.181330D-01
  0.255900D+02 -0.557600D-01
  0.899700D+01 -0.126895D+00
  0.331900D+01 -0.170352D+00
  0.905900D+00  0.140382D+00
  0.364300D+00  0.598684D+00
  0.128500D+00  0.395389D+00
   s     1 1.00
  0.905900D+00  0.100000D+01
   s     1 1.00
  0.364300D+00  0.100000D+01
   p     5 1.00
  0.187100D+02  0.140310D-01
  0.413300D+01  0.868660D-01
  0.120000D+01  0.290216D+00
  0.382700D+00  0.501008D+00
  0.120900D+00  0.343406D+00
   p     1 1.00
  0.382700D+00  0.100000D+01
   p     1 1.00
  0.120900D+00  0.100000D+01
   d     1 1.00
  0.109700D+01  0.100000D+01
   d     1 1.00
  0.318000D+00  0.100000D+01
   f     1 1.00
  0.761000D+00  0.100000D+01
  
  7  0
   s    10 1.00
  0.823600D+04  0.531000D-03
  0.123500D+04  0.410800D-02
  0.280800D+03  0.210870D-01
  0.792700D+02  0.818530D-01
  0.255900D+02  0.234817D+00
  0.899700D+01  0.434401D+00
  0.331900D+01  0.346129D+00
  0.905900D+00  0.393780D-01
  0.364300D+00 -0.898300D-02
  0.128500D+00  0.238500D-02
   s    10 1.00
  0.823600D+04 -0.113000D-03
  0.123500D+04 -0.878000D-03
  0.280800D+03 -0.454000D-02
  0.792700D+02 -0.181330D-01
  0.255900D+02 -0.557600D-01
  0.899700D+01 -0.126895D+00
  0.331900D+01 -0.170352D+00
  0.905900D+00  0.140382D+00
  0.364300D+00  0.598684D+00
  0.128500D+00  0.395389D+00
   s     1 1.00
  0.905900D+00  0.100000D+01
   s     1 1.00
  0.364300D+00  0.100000D+01
   p     5 1.00
  0.187100D+02  0.140310D-01
  0.413300D+01  0.868660D-01
  0.120000D+01  0.290216D+00
  0.382700D+00  0.501008D+00
  0.120900D+00  0.343406D+00
   p     1 1.00
  0.382700D+00  0.100000D+01
   p     1 1.00
  0.120900D+00  0.100000D+01
   d     1 1.00
  0.109700D+01  0.100000D+01
   d     1 1.00
  0.318000D+00  0.100000D+01
   f     1 1.00
  0.761000D+00  0.100000D+01
  
  8  0
   s     4 1.00
  0.130100D+02  0.196850D-01
  0.196200D+01  0.137977D+00
  0.444600D+00  0.478148D+00
  0.122000D+00  0.501240D+00
   s     1 1.00
  0.122000D+00  0.100000D+01
   p     1 1.00
  0.727000D+00  0.100000D+01
  
  9  0
   s     4 1.00
  0.130100D+02  0.196850D-01
  0.196200D+01  0.137977D+00
  0.444600D+00  0.478148D+00
  0.122000D+00  0.501240D+00
   s     1 1.00
  0.122000D+00  0.100000D+01
   p     1 1.00
  0.727000D+00  0.100000D+01
  
 10  0
   s     4 1.00
  0.130100D+02  0.196850D-01
  0.196200D+01  0.137977D+00
  0.444600D+00  0.478148D+00
  0.122000D+00  0.501240D+00
   s     1 1.00
  0.122000D+00  0.100000D+01
   p     1 1.00
  0.727000D+00  0.100000D+01
  
 11  0
   s     4 1.00
  0.130100D+02  0.196850D-01
  0.196200D+01  0.137977D+00
  0.444600D+00  0.478148D+00
  0.122000D+00  0.501240D+00
   s     1 1.00
  0.122000D+00  0.100000D+01
   p     1 1.00
  0.727000D+00  0.100000D+01
  
 12  0
   s     4 1.00
  0.130100D+02  0.196850D-01
  0.196200D+01  0.137977D+00
  0.444600D+00  0.478148D+00
  0.122000D+00  0.501240D+00
   s     1 1.00
  0.122000D+00  0.100000D+01
   p     1 1.00
  0.727000D+00  0.100000D+01
  
 13  0
   s     4 1.00
  0.130100D+02  0.196850D-01
  0.196200D+01  0.137977D+00
  0.444600D+00  0.478148D+00
  0.122000D+00  0.501240D+00
   s     1 1.00
  0.122000D+00  0.100000D+01
   p     1 1.00
  0.727000D+00  0.100000D+01
  
 14  0
   s     4 1.00
  0.130100D+02  0.196850D-01
  0.196200D+01  0.137977D+00
  0.444600D+00  0.478148D+00
  0.122000D+00  0.501240D+00
   s     1 1.00
  0.122000D+00  0.100000D+01
   p     1 1.00
  0.727000D+00  0.100000D+01
  
[MO]
 Sym= __1_a__
 Ene=  0.000000000000000E+000
 Spin= Alpha
 Occup=    2.00000000000000     
                     1  4.453625470179840E-005
                     2  0.998390111042524     
                     3  2.695333126111900E-003
                     4  1.755858835768890E-003
                     5  4.318810234241540E-003
                     6  3.078243372159650E-003
                     7  6.449553548460110E-003
                     8  1.413369086067250E-011
                     9 -5.306726993591690E-004
                    10 -5.530304652475640E-004
                    11 -9.233017548368261E-013
                    12 -1.919337366037270E-003
                    13 -1.394256118594790E-003
                    14 -1.120268942791490E-011
                    15 -1.432471227358001E-004
                    16 -2.319056053973620E-014
                    17 -4.044730128854540E-013
                    18 -1.863732439636102E-004
                    19 -6.595128196855500E-005
                    20  2.083839030788186E-004
                    21 -3.129225544496640E-013
                    22  1.825310032288760E-012
                    23 -4.177955112411580E-004
                    24  3.596459465299130E-004
                    25  2.998910528897811E-013
                    26 -1.859049153380932E-005
                    27 -7.572657479891035E-005
                    28  2.699434899845960E-013
                    29  6.678844732071500E-013
                    30  1.264800966338061E-005
                    31 -1.434062588940479E-004
                    32 -3.523147822258570E-004
                    33  1.775856733508230E-003
                    34  3.218971348919390E-004
                    35 -5.322677021544730E-004
                    36 -1.055854505661460E-004
                    37 -5.187398980595550E-003
                    38  7.488485650937649E-012
                    39  3.418976767342670E-004
                    40  5.039321591287450E-004
                    41  2.516294174487980E-012
                    42 -1.746339432926110E-003
                    43  5.196086485232280E-003
                    44 -4.678522784395120E-012
                    45 -9.041524700265955E-006
                    46 -6.261145139796500E-013
                    47  8.334927003949080E-013
                    48 -2.180401165275160E-004
                    49 -3.131212849659730E-005
                    50 -2.633308815964986E-004
                    51  1.981444447363970E-012
                    52  6.019691622854181E-013
                    53 -5.334914250119060E-005
                    54  5.844445610899140E-004
                    55  1.230197681289732E-012
                    56 -1.025730474005950E-005
                    57 -5.446894007611227E-005
                    58  1.209925404380808E-013
                    59  2.189113216901700E-012
                    60  4.021628312991903E-005
                    61 -1.457176745259718E-004
                    62 -4.303176781263540E-004
                    63 -2.032780746449650E-003
                    64 -5.544802951781010E-005
                    65  1.655031756214190E-003
                    66 -6.441588781794741E-004
                    67  4.584690370208300E-004
                    68  1.699932532376900E-012
                    69  2.856202839622740E-004
                    70  6.148554296221900E-004
                    71  2.912776317672840E-012
                    72 -1.721047838879930E-003
                    73  7.499675747368020E-004
                    74  8.082698859963840E-013
                    75 -2.945540799543909E-005
                    76  6.504098868807440E-013
                    77  8.337051022903640E-013
                    78 -5.731719175253160E-005
                    79 -2.535285529160310E-005
                    80 -1.088552769455289E-004
                    81 -2.565954511261060E-013
                    82 -2.069194622155730E-013
                    83  4.359232017969540E-006
                    84  8.696976449663060E-006
                    85  1.265699939632545E-012
                    86  1.752000977937282E-005
                    87 -4.279039372351439E-005
                    88 -2.636637534012340E-012
                    89  4.189426569093600E-013
                    90 -2.615036366737331E-005
                    91 -1.387757161123788E-004
                    92 -2.132426274495410E-004
                    93 -1.415422339187290E-003
                    94  1.662834697301750E-004
                    95  5.020360890815680E-005
                    96  5.909216827543220E-004
                    97  7.499626865084040E-004
                    98  2.214497936858020E-012
                    99  2.780528738697070E-004
                   100  3.609142003735900E-004
                   101 -7.513645773110130E-013
                   102  6.897814892381330E-004
                   103 -1.257220235140440E-003
                   104  3.735825040856990E-012
                   105  4.451898814990879E-007
                   106  1.528363711984160E-012
                   107  2.636529246121800E-013
                   108 -7.505915056819860E-005
                   109 -2.305474156020180E-005
                   110  5.714032882511832E-005
                   111 -5.076834320014450E-014
                   112  1.735961617285720E-012
                   113 -1.340783601041434E-004
                   114 -2.795516499282640E-005
                   115  4.431551967815851E-013
                   116 -2.637137000539706E-005
                   117 -2.604796102625108E-005
                   118  7.764165964354920E-013
                   119 -9.214410857184560E-014
                   120 -3.390866373454586E-005
                   121 -3.705241640740446E-005
                   122 -2.380964601495290E-004
                   123 -4.806089524571510E-004
                   124  1.336155141843960E-004
                   125  4.131547907159060E-004
                   126 -1.655641491853900E-006
                   127 -5.591427858532170E-004
                   128  7.765052555295450E-012
                   129  1.654856584976380E-004
                   130  4.776697540716820E-004
                   131 -4.471746430275680E-012
                   132  4.275980172172080E-004
                   133  1.738757608692460E-003
                   134 -1.276037429931510E-012
                   135  6.927281919167008E-006
                   136  1.354119412821910E-012
                   137  1.355067312704280E-012
                   138  2.225895828170300E-005
                   139  4.000542054336450E-006
                   140  1.470119735038861E-004
                   141 -2.201280732438430E-012
                   142  1.419013292856620E-012
                   143  2.868964314334220E-004
                   144  1.754083355001330E-004
                   145 -1.383158359453116E-012
                   146 -6.189808499231539E-006
                   147 -5.204700870299869E-005
                   148  4.460036256635820E-013
                   149 -2.678192430364620E-013
                   150 -1.083403729881349E-005
                   151 -3.702566384542442E-005
                   152 -1.714889728296900E-004
                   153 -2.416463231976200E-004
                   154  6.238814812589860E-005
                   155  2.738390651937340E-004
                   156  6.084329052663660E-006
                   157 -5.281800551708410E-004
                   158  5.527364531365740E-013
                   159  2.138937112739990E-005
                   160  6.146488429028520E-005
                   161  4.215736908607300E-013
                   162  5.532003418883580E-004
                   163 -1.585843247171660E-004
                   164 -3.698295785175670E-012
                   165  5.276418404740735E-007
                   166  1.921858201364510E-012
                   167 -2.231333915557510E-012
                   168 -4.906349289095640E-006
                   169 -7.895057207415680E-007
                   170  8.289320505655001E-005
                   171 -1.586877311244850E-012
                   172  2.637889616291640E-012
                   173  4.268376649685480E-005
                   174 -5.716280170377190E-006
                   175  7.136155240668814E-013
                   176  4.184338092673893E-007
                   177 -1.323341725492959E-005
                   178 -1.063283488969052E-013
                   179 -4.908324644951870E-014
                   180 -9.508738025430460E-006
                   181 -1.929196734280575E-005
                   182 -1.678170726106140E-004
                   183 -5.354190575809940E-004
                   184  3.646727951262560E-005
                   185  2.635420815575900E-004
                   186 -3.947939483564180E-005
                   187 -9.477390003891850E-006
                   188  4.395026480279960E-012
                   189  1.938965215690460E-004
                   190  9.044597536791999E-005
                   191 -5.509432305463210E-013
                   192  1.061594214225140E-003
                   193 -1.820635056092290E-004
                   194  5.445898880926450E-013
                   195  3.195504928510030E-006
                   196 -1.171461403974360E-012
                   197  1.023212526294160E-013
                   198 -1.125919156113818E-005
                   199 -2.079457380438170E-007
                   200 -2.343976401497500E-005
                   201  5.441499054785530E-013
                   202 -1.880670272633640E-012
                   203 -7.084781116865480E-005
                   204 -1.650065608286490E-004
                   205  4.245657018985611E-013
                   206 -8.525571551421411E-006
                   207 -4.731145715130122E-006
                   208 -4.038563041107660E-013
                   209  1.594686495020470E-013
                   210  5.271992541799742E-006
                   211 -8.707668061117304E-006
                   212  9.613533842238000E-005
                   213 -1.001281317104740E-004
                   214  2.097115544963390E-004
                   215  1.853268658702880E-004
                   216 -7.961371699204100E-013
                   217  1.714631119241340E-003
                   218 -1.547055137466160E-003
                   219 -3.952916408429640E-004
                   220  2.414205563835850E-004
                   221  1.020897770576540E-012
                   222 -3.936308968596530E-004
                   223 -6.626005550477190E-004
                   224 -9.311653759127950E-006
                   225 -6.317076898681340E-005
                   226 -9.132000209762811E-013
                   227 -3.157024403114090E-004
                   228 -4.647906414584580E-004
                   229 -6.930596234205370E-006
                   230 -3.007254119175220E-005
                   231 -1.223200840447510E-012
                   232 -1.086065799118170E-004
                   233 -3.625563913731040E-004
                   234 -3.060429917591410E-006
                   235 -2.258018121987110E-006
                   236 -1.916142096701070E-012
                   237 -1.630523107140700E-004
                   238 -3.438056346899160E-004
                   239  5.238283811554990E-006
                   240 -2.470744715596520E-006
                   241  1.538475292614460E-012
                   242  2.017223956356370E-005
                   243  3.856109482477030E-005
                   244  6.126878197057240E-007
                   245  2.814761005361350E-005
                   246  1.037094932575670E-013
 Sym= __2_a__
 Ene=  0.000000000000000E+000
 Spin= Alpha
 Occup=    2.00000000000000     
                     1 -5.368309443729070E-005
                     2 -2.669992497613850E-004
                     3  2.759387945758230E-003
                     4  1.282796289439820E-004
                     5  1.336256487382170E-003
                     6 -3.537457488682730E-004
                     7  3.203479375312340E-003
                     8 -5.145841094848660E-012
                     9 -5.753337449408490E-008
                    10 -1.016256240032810E-004
                    11 -2.295194707025610E-016
                    12  3.121864114018710E-005
                    13 -4.657114443363050E-004
                    14  5.174851325211170E-013
                    15  4.065410462257277E-005
                    16  1.258601160951360E-012
                    17 -4.132656005891390E-013
                    18 -5.580708174694220E-005
                    19  1.187010653343930E-005
                    20 -1.176479286711743E-004
                    21 -6.813465642213490E-013
                    22  1.204622936270270E-012
                    23  2.496625880414520E-004
                    24 -9.309100708828270E-005
                    25 -3.694134863568343E-013
                    26 -1.420005885558917E-005
                    27  1.111999946513982E-004
                    28 -2.861732401852780E-013
                    29 -7.967202469476450E-013
                    30 -3.964007763268419E-005
                    31  1.432727508823517E-004
                    32   1.00090700279258     
                    33  9.287446300513940E-003
                    34  2.686912387801620E-003
                    35 -7.667754637139660E-003
                    36  6.185553504468669E-005
                    37 -3.682329291974880E-003
                    38 -4.357554223999300E-012
                    39 -1.967660248533420E-004
                    40  3.201378264955080E-004
                    41  2.096435622651060E-012
                    42 -2.393462491205350E-004
                    43  4.202379355648240E-003
                    44  1.380181197603920E-012
                    45 -5.848537367267851E-004
                    46  6.415990173039940E-013
                    47 -1.567950756480850E-014
                    48 -2.957093638308840E-004
                    49  2.768620937818230E-005
                    50  4.784346278565368E-004
                    51  4.717094084186820E-013
                    52  7.504269241991880E-013
                    53 -2.785708447068140E-004
                    54 -3.739152534162580E-004
                    55 -5.595231430177535E-013
                    56  9.751062536329310E-006
                    57  1.068929622113333E-004
                    58  3.430187209558020E-013
                    59 -1.133290748195580E-012
                    60  6.562689426287251E-006
                    61  4.432179649207769E-004
                    62  9.888621371008020E-003
                    63 -2.171374213046050E-003
                    64 -1.602606331962280E-004
                    65  2.481833481758870E-003
                    66 -1.214742640667320E-005
                    67  1.582850747608340E-006
                    68 -4.732683207926830E-012
                    69  5.443809806872290E-004
                    70  2.334849243120030E-004
                    71  3.532743934856850E-012
                    72 -1.994776976951510E-003
                    73  4.522002227013970E-004
                    74  5.644158748603600E-013
                    75  4.723341616084970E-005
                    76 -8.241702617396240E-013
                    77  2.399718605535050E-013
                    78 -7.210587233697300E-006
                    79  4.745139774605720E-007
                    80 -3.892339324368881E-004
                    81 -7.844409815515970E-014
                    82  3.554326985116500E-013
                    83 -4.753187855831640E-004
                    84 -7.873048742215940E-005
                    85  9.070701220159489E-013
                    86  2.589124025488238E-005
                    87 -5.966107594177201E-005
                    88 -1.070974175366456E-012
                    89  2.951871802116810E-014
                    90  1.835051820953945E-005
                    91  1.566105456763921E-004
                    92  1.145879142676820E-002
                    93 -2.211896702478050E-003
                    94 -2.302531696689380E-004
                    95  2.947357040804410E-003
                    96  8.631444927556920E-005
                    97  7.951472103234050E-006
                    98  1.231661028356590E-012
                    99 -9.293741856812490E-004
                   100  2.597485546533760E-005
                   101 -2.135771639733520E-012
                   102  1.653401482530960E-003
                   103  2.933126085962700E-004
                   104  2.562986741053240E-013
                   105  3.529707997862206E-005
                   106 -1.023596581760680E-012
                   107 -4.962346108093330E-013
                   108 -3.373138404317460E-006
                   109  1.270487274812650E-005
                   110 -4.004922847656113E-004
                   111  9.495666976771461E-013
                   112  7.173469119678820E-013
                   113 -2.525194875747300E-004
                   114  9.123912687883640E-005
                   115  1.237801419377294E-013
                   116 -2.059062959037941E-005
                   117 -6.980070719519391E-005
                   118 -9.636152783537620E-014
                   119  3.870048476344700E-013
                   120  4.490305951647333E-005
                   121  1.339640799923963E-004
                   122 -2.383343431790660E-004
                   123 -7.604699511623960E-004
                   124  2.265827803563450E-004
                   125  7.009454050917160E-005
                   126  4.121118913494640E-005
                   127 -3.609966977239190E-004
                   128  1.452135216637850E-012
                   129 -1.637739955876230E-004
                   130  5.170787651586960E-004
                   131 -2.628537712146130E-012
                   132  2.752745813196490E-004
                   133  9.761211446824040E-004
                   134 -1.413278839442820E-013
                   135  1.228036091488082E-005
                   136 -2.334307012454810E-014
                   137  4.867119668552840E-013
                   138  1.822167847075580E-006
                   139  2.136084101448420E-005
                   140  1.340644490822186E-004
                   141 -1.299813700444860E-013
                   142  3.525257484778640E-013
                   143  2.185861158978260E-004
                   144  1.895286811648520E-005
                   145 -5.391016957124945E-013
                   146  1.545897861858159E-005
                   147 -4.344175147764719E-005
                   148  1.031019555567892E-012
                   149 -3.405001327269580E-013
                   150 -4.248751224304965E-005
                   151  3.797818547001959E-005
                   152 -1.727197231568980E-004
                   153 -7.404254486332620E-004
                   154  2.243220879257660E-004
                   155  1.370548132453950E-004
                   156 -3.016319395387840E-005
                   157 -3.633816551768330E-004
                   158 -1.605273555281930E-012
                   159  1.634536312195380E-004
                   160  4.473586350931620E-004