[Molden Format]
[Atoms] AU
  N     1    7     0.0789219700   -4.4489392200    0.0000000000        
  C     2    6     0.1093399100   -1.9515087000    0.0000000000        
  C     3    6    -2.2250026100   -0.5653969800    0.0000000000        
  C     4    6     2.3198755900   -0.3741176900    0.0000000000        
  C     5    6    -2.2868331600    2.1273671600    0.0000000000        
  C     6    6     2.1630199200    2.3254019900    0.0000000000        
  C     7    6    -0.1134814000    3.5870239300    0.0000000000        
  H     8    1    -2.2568571300   -5.7698741600    0.0000000000        
  H     9    1     1.7962606100   -5.3432967400    0.0000000000        
  H    10    1    -3.9598081300   -1.5998708600    0.0000000000        
  H    11    1     4.1520055200   -1.2359909300    0.0000000000        
  H    12    1    -4.1081529900    3.0227853000    0.0000000000        
  H    13    1     3.9035467900    3.3685935300    0.0000000000        
  H    14    1    -0.2021616500    5.6078780200    0.0000000000        
[5D]
[7F]
[GTO]
  1  0
   s    12 1.00
  0.114200D+05  0.172695D-04
  0.171200D+04  0.134411D-03
  0.389300D+03  0.694561D-03
  0.110000D+03  0.278531D-02
  0.355700D+02  0.863457D-02
  0.125400D+02  0.199805D-01
  0.464400D+01  0.262908D-01
  0.129300D+01 -0.243845D-01
  0.511800D+00 -0.924934D-01
  0.178700D+00 -0.339683D+00
  0.246240D-01  0.345111D+00
  0.112530D-01  0.752750D+00
   s    10 1.00
  0.114200D+05  0.523000D-03
  0.171200D+04  0.404500D-02
  0.389300D+03  0.207750D-01
  0.110000D+03  0.807269D-01
  0.355700D+02  0.233074D+00
  0.125400D+02  0.433501D+00
  0.464400D+01  0.347472D+00
  0.129300D+01  0.412620D-01
  0.511800D+00 -0.850799D-02
  0.178700D+00  0.238400D-02
   s    10 1.00
  0.114200D+05 -0.115000D-03
  0.171200D+04 -0.895000D-03
  0.389300D+03 -0.462400D-02
  0.110000D+03 -0.185280D-01
  0.355700D+02 -0.573390D-01
  0.125400D+02 -0.132076D+00
  0.464400D+01 -0.172510D+00
  0.129300D+01  0.151814D+00
  0.511800D+00  0.599944D+00
  0.178700D+00  0.387462D+00
   s     1 1.00
  0.129300D+01  0.100000D+01
   s     1 1.00
  0.178700D+00  0.100000D+01
   p     5 1.00
  0.266300D+02  0.146700D-01
  0.594800D+01  0.917640D-01
  0.174200D+01  0.298683D+00
  0.555000D+00  0.498487D+00
  0.172500D+00  0.337023D+00
   p     1 1.00
  0.174200D+01  0.100000D+01
   p     1 1.00
  0.555000D+00  0.100000D+01
   d     1 1.00
  0.165400D+01  0.100000D+01
   d     1 1.00
  0.469000D+00  0.100000D+01
   f     1 1.00
  0.109300D+01  0.100000D+01
  
  2  0
   s    10 1.00
  0.823600D+04  0.531000D-03
  0.123500D+04  0.410800D-02
  0.280800D+03  0.210870D-01
  0.792700D+02  0.818530D-01
  0.255900D+02  0.234817D+00
  0.899700D+01  0.434401D+00
  0.331900D+01  0.346129D+00
  0.905900D+00  0.393780D-01
  0.364300D+00 -0.898300D-02
  0.128500D+00  0.238500D-02
   s    10 1.00
  0.823600D+04 -0.113000D-03
  0.123500D+04 -0.878000D-03
  0.280800D+03 -0.454000D-02
  0.792700D+02 -0.181330D-01
  0.255900D+02 -0.557600D-01
  0.899700D+01 -0.126895D+00
  0.331900D+01 -0.170352D+00
  0.905900D+00  0.140382D+00
  0.364300D+00  0.598684D+00
  0.128500D+00  0.395389D+00
   s     1 1.00
  0.905900D+00  0.100000D+01
   s     1 1.00
  0.364300D+00  0.100000D+01
   p     5 1.00
  0.187100D+02  0.140310D-01
  0.413300D+01  0.868660D-01
  0.120000D+01  0.290216D+00
  0.382700D+00  0.501008D+00
  0.120900D+00  0.343406D+00
   p     1 1.00
  0.382700D+00  0.100000D+01
   p     1 1.00
  0.120900D+00  0.100000D+01
   d     1 1.00
  0.109700D+01  0.100000D+01
   d     1 1.00
  0.318000D+00  0.100000D+01
   f     1 1.00
  0.761000D+00  0.100000D+01
  
  3  0
   s    10 1.00
  0.823600D+04  0.531000D-03
  0.123500D+04  0.410800D-02
  0.280800D+03  0.210870D-01
  0.792700D+02  0.818530D-01
  0.255900D+02  0.234817D+00
  0.899700D+01  0.434401D+00
  0.331900D+01  0.346129D+00
  0.905900D+00  0.393780D-01
  0.364300D+00 -0.898300D-02
  0.128500D+00  0.238500D-02
   s    10 1.00
  0.823600D+04 -0.113000D-03
  0.123500D+04 -0.878000D-03
  0.280800D+03 -0.454000D-02
  0.792700D+02 -0.181330D-01
  0.255900D+02 -0.557600D-01
  0.899700D+01 -0.126895D+00
  0.331900D+01 -0.170352D+00
  0.905900D+00  0.140382D+00
  0.364300D+00  0.598684D+00
  0.128500D+00  0.395389D+00
   s     1 1.00
  0.905900D+00  0.100000D+01
   s     1 1.00
  0.364300D+00  0.100000D+01
   p     5 1.00
  0.187100D+02  0.140310D-01
  0.413300D+01  0.868660D-01
  0.120000D+01  0.290216D+00
  0.382700D+00  0.501008D+00
  0.120900D+00  0.343406D+00
   p     1 1.00
  0.382700D+00  0.100000D+01
   p     1 1.00
  0.120900D+00  0.100000D+01
   d     1 1.00
  0.109700D+01  0.100000D+01
   d     1 1.00
  0.318000D+00  0.100000D+01
   f     1 1.00
  0.761000D+00  0.100000D+01
  
  4  0
   s    10 1.00
  0.823600D+04  0.531000D-03
  0.123500D+04  0.410800D-02
  0.280800D+03  0.210870D-01
  0.792700D+02  0.818530D-01
  0.255900D+02  0.234817D+00
  0.899700D+01  0.434401D+00
  0.331900D+01  0.346129D+00
  0.905900D+00  0.393780D-01
  0.364300D+00 -0.898300D-02
  0.128500D+00  0.238500D-02
   s    10 1.00
  0.823600D+04 -0.113000D-03
  0.123500D+04 -0.878000D-03
  0.280800D+03 -0.454000D-02
  0.792700D+02 -0.181330D-01
  0.255900D+02 -0.557600D-01
  0.899700D+01 -0.126895D+00
  0.331900D+01 -0.170352D+00
  0.905900D+00  0.140382D+00
  0.364300D+00  0.598684D+00
  0.128500D+00  0.395389D+00
   s     1 1.00
  0.905900D+00  0.100000D+01
   s     1 1.00
  0.364300D+00  0.100000D+01
   p     5 1.00
  0.187100D+02  0.140310D-01
  0.413300D+01  0.868660D-01
  0.120000D+01  0.290216D+00
  0.382700D+00  0.501008D+00
  0.120900D+00  0.343406D+00
   p     1 1.00
  0.382700D+00  0.100000D+01
   p     1 1.00
  0.120900D+00  0.100000D+01
   d     1 1.00
  0.109700D+01  0.100000D+01
   d     1 1.00
  0.318000D+00  0.100000D+01
   f     1 1.00
  0.761000D+00  0.100000D+01
  
  5  0
   s    10 1.00
  0.823600D+04  0.531000D-03
  0.123500D+04  0.410800D-02
  0.280800D+03  0.210870D-01
  0.792700D+02  0.818530D-01
  0.255900D+02  0.234817D+00
  0.899700D+01  0.434401D+00
  0.331900D+01  0.346129D+00
  0.905900D+00  0.393780D-01
  0.364300D+00 -0.898300D-02
  0.128500D+00  0.238500D-02
   s    10 1.00
  0.823600D+04 -0.113000D-03
  0.123500D+04 -0.878000D-03
  0.280800D+03 -0.454000D-02
  0.792700D+02 -0.181330D-01
  0.255900D+02 -0.557600D-01
  0.899700D+01 -0.126895D+00
  0.331900D+01 -0.170352D+00
  0.905900D+00  0.140382D+00
  0.364300D+00  0.598684D+00
  0.128500D+00  0.395389D+00
   s     1 1.00
  0.905900D+00  0.100000D+01
   s     1 1.00
  0.364300D+00  0.100000D+01
   p     5 1.00
  0.187100D+02  0.140310D-01
  0.413300D+01  0.868660D-01
  0.120000D+01  0.290216D+00
  0.382700D+00  0.501008D+00
  0.120900D+00  0.343406D+00
   p     1 1.00
  0.382700D+00  0.100000D+01
   p     1 1.00
  0.120900D+00  0.100000D+01
   d     1 1.00
  0.109700D+01  0.100000D+01
   d     1 1.00
  0.318000D+00  0.100000D+01
   f     1 1.00
  0.761000D+00  0.100000D+01
  
  6  0
   s    10 1.00
  0.823600D+04  0.531000D-03
  0.123500D+04  0.410800D-02
  0.280800D+03  0.210870D-01
  0.792700D+02  0.818530D-01
  0.255900D+02  0.234817D+00
  0.899700D+01  0.434401D+00
  0.331900D+01  0.346129D+00
  0.905900D+00  0.393780D-01
  0.364300D+00 -0.898300D-02
  0.128500D+00  0.238500D-02
   s    10 1.00
  0.823600D+04 -0.113000D-03
  0.123500D+04 -0.878000D-03
  0.280800D+03 -0.454000D-02
  0.792700D+02 -0.181330D-01
  0.255900D+02 -0.557600D-01
  0.899700D+01 -0.126895D+00
  0.331900D+01 -0.170352D+00
  0.905900D+00  0.140382D+00
  0.364300D+00  0.598684D+00
  0.128500D+00  0.395389D+00
   s     1 1.00
  0.905900D+00  0.100000D+01
   s     1 1.00
  0.364300D+00  0.100000D+01
   p     5 1.00
  0.187100D+02  0.140310D-01
  0.413300D+01  0.868660D-01
  0.120000D+01  0.290216D+00
  0.382700D+00  0.501008D+00
  0.120900D+00  0.343406D+00
   p     1 1.00
  0.382700D+00  0.100000D+01
   p     1 1.00
  0.120900D+00  0.100000D+01
   d     1 1.00
  0.109700D+01  0.100000D+01
   d     1 1.00
  0.318000D+00  0.100000D+01
   f     1 1.00
  0.761000D+00  0.100000D+01
  
  7  0
   s    10 1.00
  0.823600D+04  0.531000D-03
  0.123500D+04  0.410800D-02
  0.280800D+03  0.210870D-01
  0.792700D+02  0.818530D-01
  0.255900D+02  0.234817D+00
  0.899700D+01  0.434401D+00
  0.331900D+01  0.346129D+00
  0.905900D+00  0.393780D-01
  0.364300D+00 -0.898300D-02
  0.128500D+00  0.238500D-02
   s    10 1.00
  0.823600D+04 -0.113000D-03
  0.123500D+04 -0.878000D-03
  0.280800D+03 -0.454000D-02
  0.792700D+02 -0.181330D-01
  0.255900D+02 -0.557600D-01
  0.899700D+01 -0.126895D+00
  0.331900D+01 -0.170352D+00
  0.905900D+00  0.140382D+00
  0.364300D+00  0.598684D+00
  0.128500D+00  0.395389D+00
   s     1 1.00
  0.905900D+00  0.100000D+01
   s     1 1.00
  0.364300D+00  0.100000D+01
   p     5 1.00
  0.187100D+02  0.140310D-01
  0.413300D+01  0.868660D-01
  0.120000D+01  0.290216D+00
  0.382700D+00  0.501008D+00
  0.120900D+00  0.343406D+00
   p     1 1.00
  0.382700D+00  0.100000D+01
   p     1 1.00
  0.120900D+00  0.100000D+01
   d     1 1.00
  0.109700D+01  0.100000D+01
   d     1 1.00
  0.318000D+00  0.100000D+01
   f     1 1.00
  0.761000D+00  0.100000D+01
  
  8  0
   s     4 1.00
  0.130100D+02  0.196850D-01
  0.196200D+01  0.137977D+00
  0.444600D+00  0.478148D+00
  0.122000D+00  0.501240D+00
   s     1 1.00
  0.122000D+00  0.100000D+01
   p     1 1.00
  0.727000D+00  0.100000D+01
  
  9  0
   s     4 1.00
  0.130100D+02  0.196850D-01
  0.196200D+01  0.137977D+00
  0.444600D+00  0.478148D+00
  0.122000D+00  0.501240D+00
   s     1 1.00
  0.122000D+00  0.100000D+01
   p     1 1.00
  0.727000D+00  0.100000D+01
  
 10  0
   s     4 1.00
  0.130100D+02  0.196850D-01
  0.196200D+01  0.137977D+00
  0.444600D+00  0.478148D+00
  0.122000D+00  0.501240D+00
   s     1 1.00
  0.122000D+00  0.100000D+01
   p     1 1.00
  0.727000D+00  0.100000D+01
  
 11  0
   s     4 1.00
  0.130100D+02  0.196850D-01
  0.196200D+01  0.137977D+00
  0.444600D+00  0.478148D+00
  0.122000D+00  0.501240D+00
   s     1 1.00
  0.122000D+00  0.100000D+01
   p     1 1.00
  0.727000D+00  0.100000D+01
  
 12  0
   s     4 1.00
  0.130100D+02  0.196850D-01
  0.196200D+01  0.137977D+00
  0.444600D+00  0.478148D+00
  0.122000D+00  0.501240D+00
   s     1 1.00
  0.122000D+00  0.100000D+01
   p     1 1.00
  0.727000D+00  0.100000D+01
  
 13  0
   s     4 1.00
  0.130100D+02  0.196850D-01
  0.196200D+01  0.137977D+00
  0.444600D+00  0.478148D+00
  0.122000D+00  0.501240D+00
   s     1 1.00
  0.122000D+00  0.100000D+01
   p     1 1.00
  0.727000D+00  0.100000D+01
  
 14  0
   s     4 1.00
  0.130100D+02  0.196850D-01
  0.196200D+01  0.137977D+00
  0.444600D+00  0.478148D+00
  0.122000D+00  0.501240D+00
   s     1 1.00
  0.122000D+00  0.100000D+01
   p     1 1.00
  0.727000D+00  0.100000D+01
  
[MO]
 Sym= __1_A__
 Ene=  0.000000000000000E+000
 Spin= Alpha
 Occup=    2.00000000000000     
                     1  4.453625469035545E-005
                     2  0.998390111042560     
                     3  2.695333126097121E-003
                     4  1.755858835771210E-003
                     5  4.318810234024157E-003
                     6  3.078243371420823E-003
                     7  6.449553548190468E-003
                     8  1.413369085765487E-011
                     9 -5.306726993560651E-004
                    10 -5.530304652165953E-004
                    11 -9.233017548371712E-013
                    12 -1.919337366020508E-003
                    13 -1.394256118633127E-003
                    14 -1.120268942791041E-011
                    15 -1.432471227319100E-004
                    16 -2.319056056832841E-014
                    17 -4.044730129436479E-013
                    18 -1.863732439605494E-004
                    19 -6.595128204037950E-005
                    20  2.083839031113919E-004
                    21 -3.129225545053967E-013
                    22  1.825310032156155E-012
                    23 -4.177955112086370E-004
                    24  3.596459462671558E-004
                    25  2.998910528454812E-013
                    26 -1.859049151998094E-005
                    27 -7.572657479207788E-005
                    28  2.699434899995946E-013
                    29  6.678844732022455E-013
                    30  1.264800961503110E-005
                    31 -1.434062588944175E-004
                    32 -3.523147822341561E-004
                    33  1.775856732512690E-003
                    34  3.218971349137822E-004
                    35 -5.322677020120544E-004
                    36 -1.055854598418506E-004
                    37 -5.187398980381612E-003
                    38  7.488485647187170E-012
                    39  3.418976772869375E-004
                    40  5.039321590046111E-004
                    41  2.516294174487759E-012
                    42 -1.746339430241120E-003
                    43  5.196086484930135E-003
                    44 -4.678522783999573E-012
                    45 -9.041524696564860E-006
                    46 -6.261145139992205E-013
                    47  8.334927004355642E-013
                    48 -2.180401165598588E-004
                    49 -3.131212875580557E-005
                    50 -2.633308815500746E-004
                    51  1.981444447289906E-012
                    52  6.019691623780526E-013
                    53 -5.334914268531970E-005
                    54  5.844445605933771E-004
                    55  1.230197681230345E-012
                    56 -1.025730465644638E-005
                    57 -5.446894007291549E-005
                    58  1.209925404551230E-013
                    59  2.189113216862279E-012
                    60  4.021628311479816E-005
                    61 -1.457176745461348E-004
                    62 -4.303176783011257E-004
                    63 -2.032780740816597E-003
                    64 -5.544802963481515E-005
                    65  1.655031756038266E-003
                    66 -6.441588732848994E-004
                    67  4.584690359002269E-004
                    68  1.699932531851045E-012
                    69  2.856202836823676E-004
                    70  6.148554296762544E-004
                    71  2.912776317708144E-012
                    72 -1.721047839444743E-003
                    73  7.499675748281720E-004
                    74  8.082698859725265E-013
                    75 -2.945540809071971E-005
                    76  6.504098868410620E-013
                    77  8.337051023361576E-013
                    78 -5.731719175751382E-005
                    79 -2.535285545324723E-005
                    80 -1.088552770989771E-004
                    81 -2.565954512507449E-013
                    82 -2.069194621664887E-013
                    83  4.359231872747906E-006
                    84  8.696976192126831E-006
                    85  1.265699939618855E-012
                    86  1.752000973066201E-005
                    87 -4.279039370784741E-005
                    88 -2.636637534030336E-012
                    89  4.189426569119403E-013
                    90 -2.615036363665199E-005
                    91 -1.387757162157908E-004
                    92 -2.132426270639125E-004
                    93 -1.415422343088860E-003
                    94  1.662834697541442E-004
                    95  5.020360941458511E-005
                    96  5.909216852539871E-004
                    97  7.499626936716745E-004
                    98  2.214497934076958E-012
                    99  2.780528737739936E-004
                   100  3.609141998004085E-004
                   101 -7.513645773013504E-013
                   102  6.897814891387041E-004
                   103 -1.257220236323650E-003
                   104  3.735825040768454E-012
                   105  4.451899298055293E-007
                   106  1.528363712040642E-012
                   107  2.636529246100831E-013
                   108 -7.505915067869461E-005
                   109 -2.305474172103653E-005
                   110  5.714032886885718E-005
                   111 -5.076834307670862E-014
                   112  1.735961617319477E-012
                   113 -1.340783600189487E-004
                   114 -2.795516526803548E-005
                   115  4.431551967542522E-013
                   116 -2.637137003913755E-005
                   117 -2.604796108830209E-005
                   118  7.764165964471266E-013
                   119 -9.214410859595172E-014
                   120 -3.390866368974162E-005
                   121 -3.705241637564955E-005
                   122 -2.380964604671650E-004
                   123 -4.806089527478494E-004
                   124  1.336155142064724E-004
                   125  4.131547906740077E-004
                   126 -1.655640643026725E-006
                   127 -5.591427875587674E-004
                   128  7.765052555998151E-012
                   129  1.654856584612899E-004
                   130  4.776697542865816E-004
                   131 -4.471746430280587E-012
                   132  4.275980168632228E-004
                   133  1.738757609038161E-003
                   134 -1.276037429810508E-012
                   135  6.927281916384388E-006
                   136  1.354119412818795E-012
                   137  1.355067312724946E-012
                   138  2.225895823331606E-005
                   139  4.000542013995450E-006
                   140  1.470119734880418E-004
                   141 -2.201280732406106E-012
                   142  1.419013292918642E-012
                   143  2.868964314336686E-004
                   144  1.754083352986393E-004
                   145 -1.383158359434898E-012
                   146 -6.189808504948149E-006
                   147 -5.204700869119686E-005
                   148  4.460036256941690E-013
                   149 -2.678192430165516E-013
                   150 -1.083403728034827E-005
                   151 -3.702566385045589E-005
                   152 -1.714889729434943E-004
                   153 -2.416463212959997E-004
                   154  6.238814804919360E-005
                   155  2.738390653915453E-004
                   156  6.084328653415863E-006
                   157 -5.281800591519809E-004
                   158  5.527364523312431E-013
                   159  2.138937120332250E-005
                   160  6.146488442932164E-005
                   161  4.215736908667690E-013
                   162  5.532003417579732E-004
                   163 -1.585843241181277E-004
                   164 -3.698295785125956E-012
                   165  5.276417996136495E-007
                   166  1.921858201341610E-012
                   167 -2.231333915498551E-012
                   168 -4.906349399885570E-006
                   169 -7.895057739639596E-007
                   170  8.289320498224946E-005
                   171 -1.586877311246345E-012
                   172  2.637889616369190E-012
                   173  4.268376640186668E-005
                   174 -5.716280212267299E-006
                   175  7.136155240392334E-013
                   176  4.184338117831381E-007
                   177 -1.323341722347863E-005
                   178 -1.063283489166846E-013
                   179 -4.908324645911421E-014
                   180 -9.508738007358917E-006
                   181 -1.929196729417356E-005
                   182 -1.678170726483130E-004
                   183 -5.354190581331594E-004
                   184  3.646727952990918E-005
                   185  2.635420816868084E-004
                   186 -3.947939483467914E-005
                   187 -9.477389725509369E-006
                   188  4.395026480951582E-012
                   189  1.938965215242314E-004
                   190  9.044597531533439E-005
                   191 -5.509432305414896E-013
                   192  1.061594214209520E-003
                   193 -1.820635052025859E-004
                   194  5.445898883215092E-013
                   195  3.195504930329140E-006
                   196 -1.171461403963821E-012
                   197  1.023212526347836E-013
                   198 -1.125919163986313E-005
                   199 -2.079457519982464E-007
                   200 -2.343976398771679E-005
                   201  5.441499054380495E-013
                   202 -1.880670272611826E-012
                   203 -7.084781122488631E-005
                   204 -1.650065608717599E-004
                   205  4.245657019148852E-013
                   206 -8.525571550541652E-006
                   207 -4.731145713661960E-006
                   208 -4.038563041127392E-013
                   209  1.594686494928812E-013
                   210  5.271992549360693E-006
                   211 -8.707668048026084E-006
                   212  9.613533799410817E-005
                   213 -1.001281319952925E-004
                   214  2.097115545152146E-004
                   215  1.853268658786562E-004
                   216 -7.961371699421337E-013
                   217  1.714631119332763E-003
                   218 -1.547055137108637E-003
                   219 -3.952916408130150E-004
                   220  2.414205563401706E-004
                   221  1.020897770513799E-012
                   222 -3.936308982757578E-004
                   223 -6.626005551689673E-004
                   224 -9.311653755966051E-006
                   225 -6.317076903913492E-005
                   226 -9.132000209851432E-013
                   227 -3.157024422457874E-004
                   228 -4.647906405555506E-004
                   229 -6.930596033385305E-006
                   230 -3.007254116164069E-005
                   231 -1.223200840505940E-012
                   232 -1.086065811677999E-004
                   233 -3.625563908864533E-004
                   234 -3.060429994957306E-006
                   235 -2.258018093025785E-006
                   236 -1.916142096686900E-012
                   237 -1.630523124864893E-004
                   238 -3.438056344610804E-004
                   239  5.238283906335246E-006
                   240 -2.470744722399001E-006
                   241  1.538475292610944E-012
                   242  2.017224016959597E-005
                   243  3.856109462729412E-005
                   244  6.126878184183771E-007
                   245  2.814761003831962E-005
                   246  1.037094932758873E-013
 Sym= __2_A__
 Ene=  0.000000000000000E+000
 Spin= Alpha
 Occup=    2.00000000000000     
                     1 -5.368309441647242E-005
                     2 -2.669992497562902E-004
                     3  2.759387945509548E-003
                     4  1.282796289414239E-004
                     5  1.336256487636748E-003
                     6 -3.537457493782918E-004
                     7  3.203479375121168E-003
                     8 -5.145841096172124E-012
                     9 -5.753332204190580E-008
                    10 -1.016256240208157E-004
                    11 -2.295198721566146E-016
                    12  3.121864101218546E-005
                    13 -4.657114443287530E-004
                    14  5.174851317374693E-013
                    15  4.065410463083035E-005
                    16  1.258601160868639E-012
                    17 -4.132656005080338E-013
                    18 -5.580708174318816E-005
                    19  1.187010650324617E-005
                    20 -1.176479286622778E-004
                    21 -6.813465645601343E-013
                    22  1.204622935889690E-012
                    23  2.496625880973942E-004
                    24 -9.309100738443220E-005
                    25 -3.694134862485170E-013
                    26 -1.420005884902760E-005
                    27  1.111999946535342E-004
                    28 -2.861732397980282E-013
                    29 -7.967202473236129E-013
                    30 -3.964007768719899E-005
                    31  1.432727508965544E-004
                    32   1.00090700279736     
                    33  9.287446297755016E-003
                    34  2.686912388038254E-003
                    35 -7.667754638199410E-003
                    36  6.185553026255718E-005
                    37 -3.682329292896338E-003
                    38 -4.357554226495704E-012
                    39 -1.967660241047083E-004
                    40  3.201378262487927E-004
                    41  2.096435622696355E-012
                    42 -2.393462482590676E-004
                    43  4.202379355694130E-003
                    44  1.380181196413842E-012
                    45 -5.848537366959048E-004
                    46  6.415990175066099E-013
                    47 -1.567950776085519E-014
                    48 -2.957093639037702E-004
                    49  2.768620927942679E-005
                    50  4.784346281924470E-004
                    51  4.717094074115868E-013
                    52  7.504269234228241E-013
                    53 -2.785708451282230E-004
                    54 -3.739152539633509E-004
                    55 -5.595231431700516E-013
                    56  9.751062618800121E-006
                    57  1.068929622121890E-004
                    58  3.430187209535422E-013
                    59 -1.133290748908219E-012
                    60  6.562689421734146E-006
                    61  4.432179649121713E-004
                    62  9.888620832550491E-003
                    63 -2.171374215212653E-003
                    64 -1.602606348267940E-004
                    65  2.481833486158255E-003
                    66 -1.214742457394165E-005
                    67  1.582851766458692E-006
                    68 -4.732683206940188E-012
                    69  5.443809809491909E-004
                    70  2.334849243723139E-004
                    71  3.532743934275637E-012
                    72 -1.994776977252116E-003
                    73  4.522002221943183E-004
                    74  5.644158757396085E-013
                    75  4.723341632591709E-005
                    76 -8.241702618211178E-013
                    77  2.399718607077097E-013
                    78 -7.210587273126568E-006
                    79  4.745139415148073E-007
                    80 -3.892339327700453E-004
                    81 -7.844409821527298E-014
                    82  3.554326988866295E-013
                    83 -4.753187859794890E-004
                    84 -7.873048798708574E-005
                    85  9.070701221397213E-013
                    86  2.589124018029276E-005
                    87 -5.966107597265082E-005
                    88 -1.070974175663738E-012
                    89  2.951871812854558E-014
                    90  1.835051823680781E-005
                    91  1.566105457556532E-004
                    92  1.145879152595182E-002
                    93 -2.211896704045621E-003
                    94 -2.302531694977679E-004
                    95  2.947357040433146E-003
                    96  8.631445101423419E-005
                    97  7.951478021136111E-006
                    98  1.231661026095245E-012
                    99 -9.293741858840979E-004
                   100  2.597485476031621E-005
                   101 -2.135771639131796E-012
                   102  1.653401481927614E-003
                   103  2.933126072371897E-004
                   104  2.562986749070415E-013
                   105  3.529707996546370E-005
                   106 -1.023596581752863E-012
                   107 -4.962346108278026E-013
                   108 -3.373138505022546E-006
                   109  1.270487263688017E-005
                   110 -4.004922847128389E-004
                   111  9.495666970113501E-013
                   112  7.173469113899706E-013
                   113 -2.525194875215378E-004
                   114  9.123912670953886E-005
                   115  1.237801421758167E-013
                   116 -2.059062962096437E-005
                   117 -6.980070723448369E-005
                   118 -9.636152724567911E-014
                   119  3.870048478448468E-013
                   120  4.490305955081812E-005
                   121  1.339640800049028E-004
                   122 -2.383343688822589E-004
                   123 -7.604699503937892E-004
                   124  2.265827804745390E-004
                   125  7.009453919650535E-005
                   126  4.121118980198730E-005
                   127 -3.609966995420323E-004
                   128  1.452135217174397E-012
                   129 -1.637739957646484E-004
                   130  5.170787657027376E-004
                   131 -2.628537711812875E-012
                   132  2.752745813293451E-004
                   133  9.761211443087859E-004
                   134 -1.413278841591813E-013
                   135  1.228036090354450E-005
                   136 -2.334307022321813E-014
                   137  4.867119670942179E-013
                   138  1.822167801879396E-006
                   139  2.136084101529270E-005
                   140  1.340644492679092E-004
                   141 -1.299813695927491E-013
                   142  3.525257489975821E-013
                   143  2.185861159470210E-004
                   144  1.895286768817614E-005
                   145 -5.391016953812164E-013
                   146  1.545897863090174E-005
                   147 -4.344175141583657E-005
                   148  1.031019556143134E-012
                   149 -3.405001322860724E-013
                   150 -4.248751223446599E-005
                   151  3.797818553841823E-005
                   152 -1.727197268486207E-004
                   153 -7.404254464928824E-004
                   154  2.243220878010211E-004
                   155  1.370548132158794E-004
                   156 -3.016319419165691E-005
                   157 -3.633816587400072E-004
                   158 -1.605273557101152E-012
                   159  1.634536312419624E-004
                   160  4.473586351296767E-004