[Molden Format]
[Atoms] AU
  N     1    7     0.0000000000   -4.2907334100    0.0000000000        
  C     2    6     0.0000000000   -1.7772236300    0.0000000000        
  C     3    6    -2.3389203600   -0.4111016300    0.0000000000        
  C     4    6     2.3389203600   -0.4111016300    0.0000000000        
  C     5    6    -2.2998668500    2.1639215300    0.0000000000        
  C     6    6     2.2998668500    2.1639215300    0.0000000000        
  C     7    6     0.0000000000    3.4755251800    0.0000000000        
  H     8    1    -3.3774312700   -6.3743250400    0.0000000000        
  H     9    1     1.6528040300   -5.3103747800    0.0000000000        
  H    10    1    -4.0745407300   -1.4447408500    0.0000000000        
  H    11    1     4.0745407300   -1.4447408500    0.0000000000        
  H    12    1    -4.0420632100    3.1963889500    0.0000000000        
  H    13    1     4.0420632100    3.1963889500    0.0000000000        
  H    14    1     0.0000000000    5.5020335600    0.0000000000        
[5D]
[7F]
[GTO]
  1  0
   s    12 1.00
  0.114200D+05  0.172695D-04
  0.171200D+04  0.134411D-03
  0.389300D+03  0.694561D-03
  0.110000D+03  0.278531D-02
  0.355700D+02  0.863457D-02
  0.125400D+02  0.199805D-01
  0.464400D+01  0.262908D-01
  0.129300D+01 -0.243845D-01
  0.511800D+00 -0.924934D-01
  0.178700D+00 -0.339683D+00
  0.246240D-01  0.345111D+00
  0.112530D-01  0.752750D+00
   s    10 1.00
  0.114200D+05  0.523000D-03
  0.171200D+04  0.404500D-02
  0.389300D+03  0.207750D-01
  0.110000D+03  0.807269D-01
  0.355700D+02  0.233074D+00
  0.125400D+02  0.433501D+00
  0.464400D+01  0.347472D+00
  0.129300D+01  0.412620D-01
  0.511800D+00 -0.850799D-02
  0.178700D+00  0.238400D-02
   s    10 1.00
  0.114200D+05 -0.115000D-03
  0.171200D+04 -0.895000D-03
  0.389300D+03 -0.462400D-02
  0.110000D+03 -0.185280D-01
  0.355700D+02 -0.573390D-01
  0.125400D+02 -0.132076D+00
  0.464400D+01 -0.172510D+00
  0.129300D+01  0.151814D+00
  0.511800D+00  0.599944D+00
  0.178700D+00  0.387462D+00
   s     1 1.00
  0.129300D+01  0.100000D+01
   s     1 1.00
  0.178700D+00  0.100000D+01
   p     5 1.00
  0.266300D+02  0.146700D-01
  0.594800D+01  0.917640D-01
  0.174200D+01  0.298683D+00
  0.555000D+00  0.498487D+00
  0.172500D+00  0.337023D+00
   p     1 1.00
  0.174200D+01  0.100000D+01
   p     1 1.00
  0.555000D+00  0.100000D+01
   d     1 1.00
  0.165400D+01  0.100000D+01
   d     1 1.00
  0.469000D+00  0.100000D+01
   f     1 1.00
  0.109300D+01  0.100000D+01
  
  2  0
   s    10 1.00
  0.823600D+04  0.531000D-03
  0.123500D+04  0.410800D-02
  0.280800D+03  0.210870D-01
  0.792700D+02  0.818530D-01
  0.255900D+02  0.234817D+00
  0.899700D+01  0.434401D+00
  0.331900D+01  0.346129D+00
  0.905900D+00  0.393780D-01
  0.364300D+00 -0.898300D-02
  0.128500D+00  0.238500D-02
   s    10 1.00
  0.823600D+04 -0.113000D-03
  0.123500D+04 -0.878000D-03
  0.280800D+03 -0.454000D-02
  0.792700D+02 -0.181330D-01
  0.255900D+02 -0.557600D-01
  0.899700D+01 -0.126895D+00
  0.331900D+01 -0.170352D+00
  0.905900D+00  0.140382D+00
  0.364300D+00  0.598684D+00
  0.128500D+00  0.395389D+00
   s     1 1.00
  0.905900D+00  0.100000D+01
   s     1 1.00
  0.364300D+00  0.100000D+01
   p     5 1.00
  0.187100D+02  0.140310D-01
  0.413300D+01  0.868660D-01
  0.120000D+01  0.290216D+00
  0.382700D+00  0.501008D+00
  0.120900D+00  0.343406D+00
   p     1 1.00
  0.382700D+00  0.100000D+01
   p     1 1.00
  0.120900D+00  0.100000D+01
   d     1 1.00
  0.109700D+01  0.100000D+01
   d     1 1.00
  0.318000D+00  0.100000D+01
   f     1 1.00
  0.761000D+00  0.100000D+01
  
  3  0
   s    10 1.00
  0.823600D+04  0.531000D-03
  0.123500D+04  0.410800D-02
  0.280800D+03  0.210870D-01
  0.792700D+02  0.818530D-01
  0.255900D+02  0.234817D+00
  0.899700D+01  0.434401D+00
  0.331900D+01  0.346129D+00
  0.905900D+00  0.393780D-01
  0.364300D+00 -0.898300D-02
  0.128500D+00  0.238500D-02
   s    10 1.00
  0.823600D+04 -0.113000D-03
  0.123500D+04 -0.878000D-03
  0.280800D+03 -0.454000D-02
  0.792700D+02 -0.181330D-01
  0.255900D+02 -0.557600D-01
  0.899700D+01 -0.126895D+00
  0.331900D+01 -0.170352D+00
  0.905900D+00  0.140382D+00
  0.364300D+00  0.598684D+00
  0.128500D+00  0.395389D+00
   s     1 1.00
  0.905900D+00  0.100000D+01
   s     1 1.00
  0.364300D+00  0.100000D+01
   p     5 1.00
  0.187100D+02  0.140310D-01
  0.413300D+01  0.868660D-01
  0.120000D+01  0.290216D+00
  0.382700D+00  0.501008D+00
  0.120900D+00  0.343406D+00
   p     1 1.00
  0.382700D+00  0.100000D+01
   p     1 1.00
  0.120900D+00  0.100000D+01
   d     1 1.00
  0.109700D+01  0.100000D+01
   d     1 1.00
  0.318000D+00  0.100000D+01
   f     1 1.00
  0.761000D+00  0.100000D+01
  
  4  0
   s    10 1.00
  0.823600D+04  0.531000D-03
  0.123500D+04  0.410800D-02
  0.280800D+03  0.210870D-01
  0.792700D+02  0.818530D-01
  0.255900D+02  0.234817D+00
  0.899700D+01  0.434401D+00
  0.331900D+01  0.346129D+00
  0.905900D+00  0.393780D-01
  0.364300D+00 -0.898300D-02
  0.128500D+00  0.238500D-02
   s    10 1.00
  0.823600D+04 -0.113000D-03
  0.123500D+04 -0.878000D-03
  0.280800D+03 -0.454000D-02
  0.792700D+02 -0.181330D-01
  0.255900D+02 -0.557600D-01
  0.899700D+01 -0.126895D+00
  0.331900D+01 -0.170352D+00
  0.905900D+00  0.140382D+00
  0.364300D+00  0.598684D+00
  0.128500D+00  0.395389D+00
   s     1 1.00
  0.905900D+00  0.100000D+01
   s     1 1.00
  0.364300D+00  0.100000D+01
   p     5 1.00
  0.187100D+02  0.140310D-01
  0.413300D+01  0.868660D-01
  0.120000D+01  0.290216D+00
  0.382700D+00  0.501008D+00
  0.120900D+00  0.343406D+00
   p     1 1.00
  0.382700D+00  0.100000D+01
   p     1 1.00
  0.120900D+00  0.100000D+01
   d     1 1.00
  0.109700D+01  0.100000D+01
   d     1 1.00
  0.318000D+00  0.100000D+01
   f     1 1.00
  0.761000D+00  0.100000D+01
  
  5  0
   s    10 1.00
  0.823600D+04  0.531000D-03
  0.123500D+04  0.410800D-02
  0.280800D+03  0.210870D-01
  0.792700D+02  0.818530D-01
  0.255900D+02  0.234817D+00
  0.899700D+01  0.434401D+00
  0.331900D+01  0.346129D+00
  0.905900D+00  0.393780D-01
  0.364300D+00 -0.898300D-02
  0.128500D+00  0.238500D-02
   s    10 1.00
  0.823600D+04 -0.113000D-03
  0.123500D+04 -0.878000D-03
  0.280800D+03 -0.454000D-02
  0.792700D+02 -0.181330D-01
  0.255900D+02 -0.557600D-01
  0.899700D+01 -0.126895D+00
  0.331900D+01 -0.170352D+00
  0.905900D+00  0.140382D+00
  0.364300D+00  0.598684D+00
  0.128500D+00  0.395389D+00
   s     1 1.00
  0.905900D+00  0.100000D+01
   s     1 1.00
  0.364300D+00  0.100000D+01
   p     5 1.00
  0.187100D+02  0.140310D-01
  0.413300D+01  0.868660D-01
  0.120000D+01  0.290216D+00
  0.382700D+00  0.501008D+00
  0.120900D+00  0.343406D+00
   p     1 1.00
  0.382700D+00  0.100000D+01
   p     1 1.00
  0.120900D+00  0.100000D+01
   d     1 1.00
  0.109700D+01  0.100000D+01
   d     1 1.00
  0.318000D+00  0.100000D+01
   f     1 1.00
  0.761000D+00  0.100000D+01
  
  6  0
   s    10 1.00
  0.823600D+04  0.531000D-03
  0.123500D+04  0.410800D-02
  0.280800D+03  0.210870D-01
  0.792700D+02  0.818530D-01
  0.255900D+02  0.234817D+00
  0.899700D+01  0.434401D+00
  0.331900D+01  0.346129D+00
  0.905900D+00  0.393780D-01
  0.364300D+00 -0.898300D-02
  0.128500D+00  0.238500D-02
   s    10 1.00
  0.823600D+04 -0.113000D-03
  0.123500D+04 -0.878000D-03
  0.280800D+03 -0.454000D-02
  0.792700D+02 -0.181330D-01
  0.255900D+02 -0.557600D-01
  0.899700D+01 -0.126895D+00
  0.331900D+01 -0.170352D+00
  0.905900D+00  0.140382D+00
  0.364300D+00  0.598684D+00
  0.128500D+00  0.395389D+00
   s     1 1.00
  0.905900D+00  0.100000D+01
   s     1 1.00
  0.364300D+00  0.100000D+01
   p     5 1.00
  0.187100D+02  0.140310D-01
  0.413300D+01  0.868660D-01
  0.120000D+01  0.290216D+00
  0.382700D+00  0.501008D+00
  0.120900D+00  0.343406D+00
   p     1 1.00
  0.382700D+00  0.100000D+01
   p     1 1.00
  0.120900D+00  0.100000D+01
   d     1 1.00
  0.109700D+01  0.100000D+01
   d     1 1.00
  0.318000D+00  0.100000D+01
   f     1 1.00
  0.761000D+00  0.100000D+01
  
  7  0
   s    10 1.00
  0.823600D+04  0.531000D-03
  0.123500D+04  0.410800D-02
  0.280800D+03  0.210870D-01
  0.792700D+02  0.818530D-01
  0.255900D+02  0.234817D+00
  0.899700D+01  0.434401D+00
  0.331900D+01  0.346129D+00
  0.905900D+00  0.393780D-01
  0.364300D+00 -0.898300D-02
  0.128500D+00  0.238500D-02
   s    10 1.00
  0.823600D+04 -0.113000D-03
  0.123500D+04 -0.878000D-03
  0.280800D+03 -0.454000D-02
  0.792700D+02 -0.181330D-01
  0.255900D+02 -0.557600D-01
  0.899700D+01 -0.126895D+00
  0.331900D+01 -0.170352D+00
  0.905900D+00  0.140382D+00
  0.364300D+00  0.598684D+00
  0.128500D+00  0.395389D+00
   s     1 1.00
  0.905900D+00  0.100000D+01
   s     1 1.00
  0.364300D+00  0.100000D+01
   p     5 1.00
  0.187100D+02  0.140310D-01
  0.413300D+01  0.868660D-01
  0.120000D+01  0.290216D+00
  0.382700D+00  0.501008D+00
  0.120900D+00  0.343406D+00
   p     1 1.00
  0.382700D+00  0.100000D+01
   p     1 1.00
  0.120900D+00  0.100000D+01
   d     1 1.00
  0.109700D+01  0.100000D+01
   d     1 1.00
  0.318000D+00  0.100000D+01
   f     1 1.00
  0.761000D+00  0.100000D+01
  
  8  0
   s     4 1.00
  0.130100D+02  0.196850D-01
  0.196200D+01  0.137977D+00
  0.444600D+00  0.478148D+00
  0.122000D+00  0.501240D+00
   s     1 1.00
  0.122000D+00  0.100000D+01
   p     1 1.00
  0.727000D+00  0.100000D+01
  
  9  0
   s     4 1.00
  0.130100D+02  0.196850D-01
  0.196200D+01  0.137977D+00
  0.444600D+00  0.478148D+00
  0.122000D+00  0.501240D+00
   s     1 1.00
  0.122000D+00  0.100000D+01
   p     1 1.00
  0.727000D+00  0.100000D+01
  
 10  0
   s     4 1.00
  0.130100D+02  0.196850D-01
  0.196200D+01  0.137977D+00
  0.444600D+00  0.478148D+00
  0.122000D+00  0.501240D+00
   s     1 1.00
  0.122000D+00  0.100000D+01
   p     1 1.00
  0.727000D+00  0.100000D+01
  
 11  0
   s     4 1.00
  0.130100D+02  0.196850D-01
  0.196200D+01  0.137977D+00
  0.444600D+00  0.478148D+00
  0.122000D+00  0.501240D+00
   s     1 1.00
  0.122000D+00  0.100000D+01
   p     1 1.00
  0.727000D+00  0.100000D+01
  
 12  0
   s     4 1.00
  0.130100D+02  0.196850D-01
  0.196200D+01  0.137977D+00
  0.444600D+00  0.478148D+00
  0.122000D+00  0.501240D+00
   s     1 1.00
  0.122000D+00  0.100000D+01
   p     1 1.00
  0.727000D+00  0.100000D+01
  
 13  0
   s     4 1.00
  0.130100D+02  0.196850D-01
  0.196200D+01  0.137977D+00
  0.444600D+00  0.478148D+00
  0.122000D+00  0.501240D+00
   s     1 1.00
  0.122000D+00  0.100000D+01
   p     1 1.00
  0.727000D+00  0.100000D+01
  
 14  0
   s     4 1.00
  0.130100D+02  0.196850D-01
  0.196200D+01  0.137977D+00
  0.444600D+00  0.478148D+00
  0.122000D+00  0.501240D+00
   s     1 1.00
  0.122000D+00  0.100000D+01
   p     1 1.00
  0.727000D+00  0.100000D+01
  
[MO]
 Sym= __1_A__
 Ene=   1.00000000000000     
 Spin= Alpha
 Occup=    1.00000000000000     
                     1  9.138727149090057E-005
                     2  0.998367606891922     
                     3 -4.629153738913078E-003
                     4  1.969975629778457E-003
                     5  6.251234823069091E-003
                     6  2.660408005146333E-003
                     7  5.222623405019674E-003
                     8  0.000000000000000E+000
                     9 -7.634666550368340E-004
                    10 -5.621069878963625E-004
                    11  0.000000000000000E+000
                    12 -2.478143582230539E-003
                    13 -1.592625822817597E-003
                    14  0.000000000000000E+000
                    15 -4.531370849421904E-005
                    16  0.000000000000000E+000
                    17  0.000000000000000E+000
                    18 -1.706311139271695E-004
                    19 -6.882594682778595E-005
                    20  1.826176658255800E-004
                    21  0.000000000000000E+000
                    22  0.000000000000000E+000
                    23 -9.479171559654622E-005
                    24  5.572215215008914E-004
                    25  0.000000000000000E+000
                    26  5.575301534050407E-006
                    27 -4.103410328288976E-005
                    28  0.000000000000000E+000
                    29  0.000000000000000E+000
                    30  1.669414167308070E-005
                    31 -8.598614204171629E-005
                    32 -2.137929558548964E-004
                    33  2.724371146914885E-004
                    34  2.789937411225933E-004
                    35 -5.595313041264914E-005
                    36 -9.891293008541597E-005
                    37 -1.796095541048619E-003
                    38  0.000000000000000E+000
                    39  4.776047274038220E-004
                    40 -4.776687023168128E-005
                    41  0.000000000000000E+000
                    42 -2.115279778064293E-003
                    43  4.592295099101338E-003
                    44  0.000000000000000E+000
                    45  9.301907064229105E-006
                    46  0.000000000000000E+000
                    47  0.000000000000000E+000
                    48 -1.007927292700095E-004
                    49  8.435938532385578E-006
                    50 -1.723793667443345E-004
                    51  0.000000000000000E+000
                    52  0.000000000000000E+000
                    53  1.020017379709852E-004
                    54  8.081598885562665E-004
                    55  0.000000000000000E+000
                    56 -1.096189771177719E-005
                    57 -8.506961752085634E-005
                    58  0.000000000000000E+000
                    59  0.000000000000000E+000
                    60 -2.043611998549300E-005
                    61 -1.475487073592342E-004
                    62 -5.163703388964867E-004
                    63 -1.872543114289352E-003
                    64 -1.118206646697706E-004
                    65  2.187147056602919E-003
                    66 -2.773793859385425E-004
                    67 -9.548294945405018E-005
                    68  0.000000000000000E+000
                    69  4.547667552380873E-004
                    70  8.301616464149404E-004
                    71  0.000000000000000E+000
                    72 -1.689782824160395E-003
                    73  6.260188476855333E-004
                    74  0.000000000000000E+000
                    75 -5.013268343541530E-005
                    76  0.000000000000000E+000
                    77  0.000000000000000E+000
                    78 -4.879593071636390E-005
                    79 -3.477934772249744E-005
                    80 -1.566389078746594E-004
                    81  0.000000000000000E+000
                    82  0.000000000000000E+000
                    83  9.845635285605712E-005
                    84  2.443066605785415E-005
                    85  0.000000000000000E+000
                    86  5.602384512706080E-006
                    87 -4.131543428360848E-005
                    88  0.000000000000000E+000
                    89  0.000000000000000E+000
                    90 -2.097171257944953E-005
                    91 -1.605623435407968E-004
                    92 -1.103618962055651E-004
                    93 -2.876579589524173E-004
                    94  1.830968142378604E-004
                    95 -3.293806635862058E-004
                    96  3.900419675650958E-005
                    97 -1.407228203998122E-004
                    98  0.000000000000000E+000
                    99  4.010562474072887E-004
                   100  3.030595119488873E-004
                   101  0.000000000000000E+000
                   102  5.693585729365069E-004
                   103 -1.353976343085281E-003
                   104  0.000000000000000E+000
                   105 -1.509362790612833E-005
                   106  0.000000000000000E+000
                   107  0.000000000000000E+000
                   108 -2.083151285270986E-005
                   109 -1.128065609303237E-005
                   110  1.334995296533794E-004
                   111  0.000000000000000E+000
                   112  0.000000000000000E+000
                   113 -7.990330046920684E-005
                   114  2.783051453781246E-005
                   115  0.000000000000000E+000
                   116 -1.847743863243663E-005
                   117 -2.529606922939185E-005
                   118  0.000000000000000E+000
                   119  0.000000000000000E+000
                   120  2.542228047209432E-005
                   121 -3.389423622016836E-005
                   122 -2.554286293580784E-004
                   123 -7.386074454080440E-004
                   124  1.736158682786508E-004
                   125  3.455794636517029E-004
                   126 -3.774392298869897E-005
                   127 -1.653603262297887E-004
                   128  0.000000000000000E+000
                   129  2.133466526190185E-004
                   130  5.935767675002834E-004
                   131  0.000000000000000E+000
                   132  3.188948160467241E-004
                   133  1.815527478685772E-003
                   134  0.000000000000000E+000
                   135  1.514231414043745E-005
                   136  0.000000000000000E+000
                   137  0.000000000000000E+000
                   138  5.225334025894346E-005
                   139 -8.326065139305204E-006
                   140  2.120751246325360E-004
                   141  0.000000000000000E+000
                   142  0.000000000000000E+000
                   143  3.666232979945718E-004
                   144  2.127534765865503E-004
                   145  0.000000000000000E+000
                   146 -1.112177017246307E-005
                   147 -6.206514529388079E-005
                   148  0.000000000000000E+000
                   149  0.000000000000000E+000
                   150 -1.232533079240827E-005
                   151 -5.843682269309635E-005
                   152 -1.633432662717886E-004
                   153 -5.330148904663251E-004
                   154  2.695835038811517E-005
                   155  4.050961337152129E-004
                   156  4.219284425548466E-006
                   157  1.602287255187308E-005
                   158  0.000000000000000E+000
                   159 -9.064505861963614E-006
                   160 -4.586430289706061E-006
                   161  0.000000000000000E+000
                   162  6.732231925424858E-004
                   163 -2.738435868783908E-004
                   164  0.000000000000000E+000
                   165 -6.712977569113216E-007
                   166  0.000000000000000E+000
                   167  0.000000000000000E+000
                   168  9.028339120441304E-007
                   169  1.728824461195596E-005
                   170  6.570577778290015E-005
                   171  0.000000000000000E+000
                   172  0.000000000000000E+000
                   173  1.845536066264951E-005
                   174  8.678339678183556E-006
                   175  0.000000000000000E+000
                   176  6.831094486024293E-006
                   177 -9.866618568674569E-006
                   178  0.000000000000000E+000
                   179  0.000000000000000E+000
                   180 -3.240286240944284E-005
                   181 -1.681806444118788E-005
                   182 -1.530909430758032E-004
                   183 -4.571883800472230E-004
                   184  3.953744869781204E-005
                   185  2.460743779412006E-004
                   186 -3.471063427655180E-005
                   187 -4.868035163799059E-005
                   188  0.000000000000000E+000
                   189  1.998030255547738E-004
                   190  8.055160407683227E-005
                   191  0.000000000000000E+000
                   192  1.170347578332475E-003
                   193 -2.330516365390147E-004
                   194  0.000000000000000E+000
                   195 -1.050377076522582E-006
                   196  0.000000000000000E+000
                   197  0.000000000000000E+000
                   198 -4.654461339098504E-006
                   199  7.502039047090462E-006
                   200  1.334030604386006E-005
                   201  0.000000000000000E+000
                   202  0.000000000000000E+000
                   203 -7.414564054979189E-005
                   204 -1.728244251670228E-004
                   205  0.000000000000000E+000
                   206 -5.384195002132142E-006
                   207 -4.179276303376592E-006
                   208  0.000000000000000E+000
                   209  0.000000000000000E+000
                   210  1.001058428714887E-005
                   211 -2.280681288524290E-006
                   212 -4.190605403346114E-005
                   213  1.476867445922632E-004
                   214  8.570392066217639E-006
                   215  3.086580908902203E-005
                   216  0.000000000000000E+000
                   217 -1.657086155904050E-003
                   218 -2.263105233188814E-004
                   219 -2.068761844160113E-004
                   220  3.156494342796278E-005
                   221  0.000000000000000E+000
                   222 -1.850200924304910E-004
                   223 -6.599724878840298E-004
                   224  2.344450061529285E-005
                   225 -6.818262740617612E-005
                   226  0.000000000000000E+000
                   227  9.746210605287576E-005
                   228 -5.907163538642859E-004
                   229 -3.142595052230655E-005
                   230 -1.606383287243280E-005
                   231  0.000000000000000E+000
                   232  8.450900082117038E-005
                   233 -5.202914077177694E-004
                   234  1.656079976849051E-005
                   235 -3.234634321137403E-006
                   236  0.000000000000000E+000
                   237  3.097926252790425E-005
                   238 -3.677640155915823E-004
                   239 -3.706340350995514E-006
                   240  3.375427836092187E-006
                   241  0.000000000000000E+000
                   242 -5.473829980402417E-005
                   243  1.437595145759528E-005
                   244  1.871872640185804E-007
                   245  2.361986471872465E-005
                   246  0.000000000000000E+000
 Sym= __2_A__
 Ene=   2.00000000000000     
 Spin= Alpha
 Occup=    1.00000000000000     
                     1  4.732745895682968E-005
                     2  3.826712725695349E-004
                     3 -2.759898324290504E-003
                     4 -1.391409015052826E-004
                     5 -1.326684343585145E-003
                     6  2.559628260015595E-004
                     7 -2.740846459372062E-003
                     8  0.000000000000000E+000
                     9  8.924758512536310E-005
                    10  1.039220873182823E-004
                    11  0.000000000000000E+000
                    12 -8.935647450791979E-005
                    13  4.104681428181557E-004
                    14  0.000000000000000E+000
                    15 -2.847496321627041E-005
                    16  0.000000000000000E+000
                    17  0.000000000000000E+000
                    18  3.797431099154994E-005
                    19 -9.505245646987329E-006
                    20  1.110702269714957E-004
                    21  0.000000000000000E+000
                    22  0.000000000000000E+000
                    23 -1.701959644561569E-004
                    24  3.727422139159718E-005
                    25  0.000000000000000E+000
                    26  2.280334922302146E-005
                    27 -8.853354414895211E-005
                    28  0.000000000000000E+000
                    29  0.000000000000000E+000
                    30  2.404348131371359E-005
                    31 -1.486330417145224E-004
                    32  -1.00092603940828     
                    33 -9.207619983292817E-003
                    34 -2.801632209531305E-003
                    35  8.165352258096498E-003
                    36  2.348888318695687E-004
                    37  3.375923149572356E-003
                    38  0.000000000000000E+000
                    39 -1.897568677408118E-004
                    40 -3.598436514953090E-004
                    41  0.000000000000000E+000
                    42 -4.147323330489582E-005
                    43 -4.130719731927936E-003
                    44  0.000000000000000E+000
                    45  5.397316185097673E-004
                    46  0.000000000000000E+000
                    47  0.000000000000000E+000
                    48  1.922776221001482E-004
                    49  1.503572109433807E-005
                    50 -5.636851886948602E-004
                    51  0.000000000000000E+000
                    52  0.000000000000000E+000
                    53  9.053203988860284E-004
                    54 -6.835224017483587E-005
                    55  0.000000000000000E+000
                    56  4.821091154306671E-006
                    57 -1.014524210000623E-004
                    58  0.000000000000000E+000
                    59  0.000000000000000E+000
                    60 -4.870760186235115E-006
                    61 -3.913093246417613E-004
                    62 -1.238345142371472E-002
                    63  2.014011962681114E-003
                    64  2.977209873575981E-004
                    65 -3.065266241412963E-003
                    66 -1.176175112881805E-005
                    67 -1.071176009647851E-004
                    68  0.000000000000000E+000
                    69 -7.542664754351246E-004
                    70  2.567905321978925E-006
                    71  0.000000000000000E+000
                    72  2.062885865592028E-003
                    73 -6.444730078757229E-005
                    74  0.000000000000000E+000
                    75 -2.250020405657559E-005
                    76  0.000000000000000E+000
                    77  0.000000000000000E+000
                    78  2.814145699218286E-008
                    79  1.668819575924388E-006
                    80  4.223579293811702E-004
                    81  0.000000000000000E+000
                    82  0.000000000000000E+000
                    83  5.892915559032946E-004
                    84  3.774636955395982E-004
                    85  0.000000000000000E+000
                    86 -3.253901259033616E-005
                    87  6.054539751787145E-005
                    88  0.000000000000000E+000
                    89  0.000000000000000E+000
                    90 -4.893276057637899E-005
                    91 -1.397549458001303E-004
                    92 -1.397092179869710E-002
                    93  2.049816856365271E-003
                    94  2.706026433125786E-004
                    95 -2.980747409228945E-003
                    96 -7.681339683064237E-005
                    97 -1.406176804964471E-004
                    98  0.000000000000000E+000
                    99  6.563837982086443E-004
                   100 -5.619220037378081E-005
                   101  0.000000000000000E+000
                   102 -1.993601340871716E-003
                   103 -2.867790105237954E-005
                   104  0.000000000000000E+000
                   105 -2.996077035039862E-005
                   106  0.000000000000000E+000
                   107  0.000000000000000E+000
                   108  6.012877049883268E-006
                   109  1.059285369017876E-005
                   110  4.130522704999955E-004
                   111  0.000000000000000E+000
                   112  0.000000000000000E+000
                   113  6.208006411087394E-004
                   114 -3.574289455336068E-004
                   115  0.000000000000000E+000
                   116  3.348507128277908E-005
                   117  6.188072844822842E-005
                   118  0.000000000000000E+000
                   119  0.000000000000000E+000
                   120  4.675040783342716E-005
                   121 -1.366182996385686E-004
                   122  6.295118333620658E-005
                   123  6.608984701610723E-004
                   124 -2.278628192735740E-004
                   125  1.196112973278273E-004
                   126  5.692573308759947E-006
                   127  3.507034825485716E-004
                   128  0.000000000000000E+000
                   129  6.349658459976454E-005
                   130 -5.521154120552281E-004
                   131  0.000000000000000E+000
                   132 -3.307628342890371E-004
                   133 -7.598519617785213E-004
                   134  0.000000000000000E+000
                   135 -1.925350853582048E-005
                   136  0.000000000000000E+000
                   137  0.000000000000000E+000
                   138 -4.625071136675898E-006
                   139 -5.183128462016286E-005
                   140 -1.381346345710669E-004
                   141  0.000000000000000E+000
                   142  0.000000000000000E+000
                   143 -2.438979840423152E-004
                   144  1.800358447021188E-004
                   145  0.000000000000000E+000
                   146 -7.149284000800147E-006
                   147  3.483789215946684E-005
                   148  0.000000000000000E+000
                   149  0.000000000000000E+000
                   150  4.729811561253095E-005
                   151 -2.834287062765575E-005
                   152 -3.515955396762123E-005
                   153  6.545196809958439E-004
                   154 -2.306028673662903E-004
                   155  1.435832831184373E-004
                   156  6.212059232596365E-006
                   157  3.692216192783591E-004
                   158  0.000000000000000E+000
                   159 -4.699581387372223E-005
                   160 -5.759631583341256E-004