[Molden Format]
[Atoms] AU
  N     1    7     0.0000000000   -4.2907334100    0.0000000000        
  C     2    6     0.0000000000   -1.7772236300    0.0000000000        
  C     3    6    -2.3389203600   -0.4111016300    0.0000000000        
  C     4    6     2.3389203600   -0.4111016300    0.0000000000        
  C     5    6    -2.2998668500    2.1639215300    0.0000000000        
  C     6    6     2.2998668500    2.1639215300    0.0000000000        
  C     7    6     0.0000000000    3.4755251800    0.0000000000        
  H     8    1    -3.3774312700   -6.3743250400    0.0000000000        
  H     9    1     1.6528040300   -5.3103747800    0.0000000000        
  H    10    1    -4.0745407300   -1.4447408500    0.0000000000        
  H    11    1     4.0745407300   -1.4447408500    0.0000000000        
  H    12    1    -4.0420632100    3.1963889500    0.0000000000        
  H    13    1     4.0420632100    3.1963889500    0.0000000000        
  H    14    1     0.0000000000    5.5020335600    0.0000000000        
[5D]
[7F]
[GTO]
  1  0
   s    12 1.00
  0.114200D+05  0.172695D-04
  0.171200D+04  0.134411D-03
  0.389300D+03  0.694561D-03
  0.110000D+03  0.278531D-02
  0.355700D+02  0.863457D-02
  0.125400D+02  0.199805D-01
  0.464400D+01  0.262908D-01
  0.129300D+01 -0.243845D-01
  0.511800D+00 -0.924934D-01
  0.178700D+00 -0.339683D+00
  0.246240D-01  0.345111D+00
  0.112530D-01  0.752750D+00
   s    10 1.00
  0.114200D+05  0.523000D-03
  0.171200D+04  0.404500D-02
  0.389300D+03  0.207750D-01
  0.110000D+03  0.807269D-01
  0.355700D+02  0.233074D+00
  0.125400D+02  0.433501D+00
  0.464400D+01  0.347472D+00
  0.129300D+01  0.412620D-01
  0.511800D+00 -0.850799D-02
  0.178700D+00  0.238400D-02
   s    10 1.00
  0.114200D+05 -0.115000D-03
  0.171200D+04 -0.895000D-03
  0.389300D+03 -0.462400D-02
  0.110000D+03 -0.185280D-01
  0.355700D+02 -0.573390D-01
  0.125400D+02 -0.132076D+00
  0.464400D+01 -0.172510D+00
  0.129300D+01  0.151814D+00
  0.511800D+00  0.599944D+00
  0.178700D+00  0.387462D+00
   s     1 1.00
  0.129300D+01  0.100000D+01
   s     1 1.00
  0.178700D+00  0.100000D+01
   p     5 1.00
  0.266300D+02  0.146700D-01
  0.594800D+01  0.917640D-01
  0.174200D+01  0.298683D+00
  0.555000D+00  0.498487D+00
  0.172500D+00  0.337023D+00
   p     1 1.00
  0.174200D+01  0.100000D+01
   p     1 1.00
  0.555000D+00  0.100000D+01
   d     1 1.00
  0.165400D+01  0.100000D+01
   d     1 1.00
  0.469000D+00  0.100000D+01
   f     1 1.00
  0.109300D+01  0.100000D+01
  
  2  0
   s    10 1.00
  0.823600D+04  0.531000D-03
  0.123500D+04  0.410800D-02
  0.280800D+03  0.210870D-01
  0.792700D+02  0.818530D-01
  0.255900D+02  0.234817D+00
  0.899700D+01  0.434401D+00
  0.331900D+01  0.346129D+00
  0.905900D+00  0.393780D-01
  0.364300D+00 -0.898300D-02
  0.128500D+00  0.238500D-02
   s    10 1.00
  0.823600D+04 -0.113000D-03
  0.123500D+04 -0.878000D-03
  0.280800D+03 -0.454000D-02
  0.792700D+02 -0.181330D-01
  0.255900D+02 -0.557600D-01
  0.899700D+01 -0.126895D+00
  0.331900D+01 -0.170352D+00
  0.905900D+00  0.140382D+00
  0.364300D+00  0.598684D+00
  0.128500D+00  0.395389D+00
   s     1 1.00
  0.905900D+00  0.100000D+01
   s     1 1.00
  0.364300D+00  0.100000D+01
   p     5 1.00
  0.187100D+02  0.140310D-01
  0.413300D+01  0.868660D-01
  0.120000D+01  0.290216D+00
  0.382700D+00  0.501008D+00
  0.120900D+00  0.343406D+00
   p     1 1.00
  0.382700D+00  0.100000D+01
   p     1 1.00
  0.120900D+00  0.100000D+01
   d     1 1.00
  0.109700D+01  0.100000D+01
   d     1 1.00
  0.318000D+00  0.100000D+01
   f     1 1.00
  0.761000D+00  0.100000D+01
  
  3  0
   s    10 1.00
  0.823600D+04  0.531000D-03
  0.123500D+04  0.410800D-02
  0.280800D+03  0.210870D-01
  0.792700D+02  0.818530D-01
  0.255900D+02  0.234817D+00
  0.899700D+01  0.434401D+00
  0.331900D+01  0.346129D+00
  0.905900D+00  0.393780D-01
  0.364300D+00 -0.898300D-02
  0.128500D+00  0.238500D-02
   s    10 1.00
  0.823600D+04 -0.113000D-03
  0.123500D+04 -0.878000D-03
  0.280800D+03 -0.454000D-02
  0.792700D+02 -0.181330D-01
  0.255900D+02 -0.557600D-01
  0.899700D+01 -0.126895D+00
  0.331900D+01 -0.170352D+00
  0.905900D+00  0.140382D+00
  0.364300D+00  0.598684D+00
  0.128500D+00  0.395389D+00
   s     1 1.00
  0.905900D+00  0.100000D+01
   s     1 1.00
  0.364300D+00  0.100000D+01
   p     5 1.00
  0.187100D+02  0.140310D-01
  0.413300D+01  0.868660D-01
  0.120000D+01  0.290216D+00
  0.382700D+00  0.501008D+00
  0.120900D+00  0.343406D+00
   p     1 1.00
  0.382700D+00  0.100000D+01
   p     1 1.00
  0.120900D+00  0.100000D+01
   d     1 1.00
  0.109700D+01  0.100000D+01
   d     1 1.00
  0.318000D+00  0.100000D+01
   f     1 1.00
  0.761000D+00  0.100000D+01
  
  4  0
   s    10 1.00
  0.823600D+04  0.531000D-03
  0.123500D+04  0.410800D-02
  0.280800D+03  0.210870D-01
  0.792700D+02  0.818530D-01
  0.255900D+02  0.234817D+00
  0.899700D+01  0.434401D+00
  0.331900D+01  0.346129D+00
  0.905900D+00  0.393780D-01
  0.364300D+00 -0.898300D-02
  0.128500D+00  0.238500D-02
   s    10 1.00
  0.823600D+04 -0.113000D-03
  0.123500D+04 -0.878000D-03
  0.280800D+03 -0.454000D-02
  0.792700D+02 -0.181330D-01
  0.255900D+02 -0.557600D-01
  0.899700D+01 -0.126895D+00
  0.331900D+01 -0.170352D+00
  0.905900D+00  0.140382D+00
  0.364300D+00  0.598684D+00
  0.128500D+00  0.395389D+00
   s     1 1.00
  0.905900D+00  0.100000D+01
   s     1 1.00
  0.364300D+00  0.100000D+01
   p     5 1.00
  0.187100D+02  0.140310D-01
  0.413300D+01  0.868660D-01
  0.120000D+01  0.290216D+00
  0.382700D+00  0.501008D+00
  0.120900D+00  0.343406D+00
   p     1 1.00
  0.382700D+00  0.100000D+01
   p     1 1.00
  0.120900D+00  0.100000D+01
   d     1 1.00
  0.109700D+01  0.100000D+01
   d     1 1.00
  0.318000D+00  0.100000D+01
   f     1 1.00
  0.761000D+00  0.100000D+01
  
  5  0
   s    10 1.00
  0.823600D+04  0.531000D-03
  0.123500D+04  0.410800D-02
  0.280800D+03  0.210870D-01
  0.792700D+02  0.818530D-01
  0.255900D+02  0.234817D+00
  0.899700D+01  0.434401D+00
  0.331900D+01  0.346129D+00
  0.905900D+00  0.393780D-01
  0.364300D+00 -0.898300D-02
  0.128500D+00  0.238500D-02
   s    10 1.00
  0.823600D+04 -0.113000D-03
  0.123500D+04 -0.878000D-03
  0.280800D+03 -0.454000D-02
  0.792700D+02 -0.181330D-01
  0.255900D+02 -0.557600D-01
  0.899700D+01 -0.126895D+00
  0.331900D+01 -0.170352D+00
  0.905900D+00  0.140382D+00
  0.364300D+00  0.598684D+00
  0.128500D+00  0.395389D+00
   s     1 1.00
  0.905900D+00  0.100000D+01
   s     1 1.00
  0.364300D+00  0.100000D+01
   p     5 1.00
  0.187100D+02  0.140310D-01
  0.413300D+01  0.868660D-01
  0.120000D+01  0.290216D+00
  0.382700D+00  0.501008D+00
  0.120900D+00  0.343406D+00
   p     1 1.00
  0.382700D+00  0.100000D+01
   p     1 1.00
  0.120900D+00  0.100000D+01
   d     1 1.00
  0.109700D+01  0.100000D+01
   d     1 1.00
  0.318000D+00  0.100000D+01
   f     1 1.00
  0.761000D+00  0.100000D+01
  
  6  0
   s    10 1.00
  0.823600D+04  0.531000D-03
  0.123500D+04  0.410800D-02
  0.280800D+03  0.210870D-01
  0.792700D+02  0.818530D-01
  0.255900D+02  0.234817D+00
  0.899700D+01  0.434401D+00
  0.331900D+01  0.346129D+00
  0.905900D+00  0.393780D-01
  0.364300D+00 -0.898300D-02
  0.128500D+00  0.238500D-02
   s    10 1.00
  0.823600D+04 -0.113000D-03
  0.123500D+04 -0.878000D-03
  0.280800D+03 -0.454000D-02
  0.792700D+02 -0.181330D-01
  0.255900D+02 -0.557600D-01
  0.899700D+01 -0.126895D+00
  0.331900D+01 -0.170352D+00
  0.905900D+00  0.140382D+00
  0.364300D+00  0.598684D+00
  0.128500D+00  0.395389D+00
   s     1 1.00
  0.905900D+00  0.100000D+01
   s     1 1.00
  0.364300D+00  0.100000D+01
   p     5 1.00
  0.187100D+02  0.140310D-01
  0.413300D+01  0.868660D-01
  0.120000D+01  0.290216D+00
  0.382700D+00  0.501008D+00
  0.120900D+00  0.343406D+00
   p     1 1.00
  0.382700D+00  0.100000D+01
   p     1 1.00
  0.120900D+00  0.100000D+01
   d     1 1.00
  0.109700D+01  0.100000D+01
   d     1 1.00
  0.318000D+00  0.100000D+01
   f     1 1.00
  0.761000D+00  0.100000D+01
  
  7  0
   s    10 1.00
  0.823600D+04  0.531000D-03
  0.123500D+04  0.410800D-02
  0.280800D+03  0.210870D-01
  0.792700D+02  0.818530D-01
  0.255900D+02  0.234817D+00
  0.899700D+01  0.434401D+00
  0.331900D+01  0.346129D+00
  0.905900D+00  0.393780D-01
  0.364300D+00 -0.898300D-02
  0.128500D+00  0.238500D-02
   s    10 1.00
  0.823600D+04 -0.113000D-03
  0.123500D+04 -0.878000D-03
  0.280800D+03 -0.454000D-02
  0.792700D+02 -0.181330D-01
  0.255900D+02 -0.557600D-01
  0.899700D+01 -0.126895D+00
  0.331900D+01 -0.170352D+00
  0.905900D+00  0.140382D+00
  0.364300D+00  0.598684D+00
  0.128500D+00  0.395389D+00
   s     1 1.00
  0.905900D+00  0.100000D+01
   s     1 1.00
  0.364300D+00  0.100000D+01
   p     5 1.00
  0.187100D+02  0.140310D-01
  0.413300D+01  0.868660D-01
  0.120000D+01  0.290216D+00
  0.382700D+00  0.501008D+00
  0.120900D+00  0.343406D+00
   p     1 1.00
  0.382700D+00  0.100000D+01
   p     1 1.00
  0.120900D+00  0.100000D+01
   d     1 1.00
  0.109700D+01  0.100000D+01
   d     1 1.00
  0.318000D+00  0.100000D+01
   f     1 1.00
  0.761000D+00  0.100000D+01
  
  8  0
   s     4 1.00
  0.130100D+02  0.196850D-01
  0.196200D+01  0.137977D+00
  0.444600D+00  0.478148D+00
  0.122000D+00  0.501240D+00
   s     1 1.00
  0.122000D+00  0.100000D+01
   p     1 1.00
  0.727000D+00  0.100000D+01
  
  9  0
   s     4 1.00
  0.130100D+02  0.196850D-01
  0.196200D+01  0.137977D+00
  0.444600D+00  0.478148D+00
  0.122000D+00  0.501240D+00
   s     1 1.00
  0.122000D+00  0.100000D+01
   p     1 1.00
  0.727000D+00  0.100000D+01
  
 10  0
   s     4 1.00
  0.130100D+02  0.196850D-01
  0.196200D+01  0.137977D+00
  0.444600D+00  0.478148D+00
  0.122000D+00  0.501240D+00
   s     1 1.00
  0.122000D+00  0.100000D+01
   p     1 1.00
  0.727000D+00  0.100000D+01
  
 11  0
   s     4 1.00
  0.130100D+02  0.196850D-01
  0.196200D+01  0.137977D+00
  0.444600D+00  0.478148D+00
  0.122000D+00  0.501240D+00
   s     1 1.00
  0.122000D+00  0.100000D+01
   p     1 1.00
  0.727000D+00  0.100000D+01
  
 12  0
   s     4 1.00
  0.130100D+02  0.196850D-01
  0.196200D+01  0.137977D+00
  0.444600D+00  0.478148D+00
  0.122000D+00  0.501240D+00
   s     1 1.00
  0.122000D+00  0.100000D+01
   p     1 1.00
  0.727000D+00  0.100000D+01
  
 13  0
   s     4 1.00
  0.130100D+02  0.196850D-01
  0.196200D+01  0.137977D+00
  0.444600D+00  0.478148D+00
  0.122000D+00  0.501240D+00
   s     1 1.00
  0.122000D+00  0.100000D+01
   p     1 1.00
  0.727000D+00  0.100000D+01
  
 14  0
   s     4 1.00
  0.130100D+02  0.196850D-01
  0.196200D+01  0.137977D+00
  0.444600D+00  0.478148D+00
  0.122000D+00  0.501240D+00
   s     1 1.00
  0.122000D+00  0.100000D+01
   p     1 1.00
  0.727000D+00  0.100000D+01
  
[MO]
 Sym= __1_a__
 Ene=  0.000000000000000E+000
 Spin= Alpha
 Occup=    2.00000000000000     
                     1  9.138727149090060E-005
                     2  0.998367606891922     
                     3 -4.629153738913080E-003
                     4  1.969975629778460E-003
                     5  6.251234823069090E-003
                     6  2.660408005146330E-003
                     7  5.222623405019670E-003
                     8  0.000000000000000E+000
                     9 -7.634666550368340E-004
                    10 -5.621069878963630E-004
                    11  0.000000000000000E+000
                    12 -2.478143582230540E-003
                    13 -1.592625822817600E-003
                    14  0.000000000000000E+000
                    15 -4.531370849421904E-005
                    16  0.000000000000000E+000
                    17  0.000000000000000E+000
                    18 -1.706311139271696E-004
                    19 -6.882594682778599E-005
                    20  1.826176658255801E-004
                    21  0.000000000000000E+000
                    22  0.000000000000000E+000
                    23 -9.479171559654621E-005
                    24  5.572215215008910E-004
                    25  0.000000000000000E+000
                    26  5.575301534050407E-006
                    27 -4.103410328288974E-005
                    28  0.000000000000000E+000
                    29  0.000000000000000E+000
                    30  1.669414167308071E-005
                    31 -8.598614204171635E-005
                    32 -2.137929558548960E-004
                    33  2.724371146914890E-004
                    34  2.789937411225930E-004
                    35 -5.595313041264910E-005
                    36 -9.891293008541600E-005
                    37 -1.796095541048620E-003
                    38  0.000000000000000E+000
                    39  4.776047274038220E-004
                    40 -4.776687023168130E-005
                    41  0.000000000000000E+000
                    42 -2.115279778064290E-003
                    43  4.592295099101340E-003
                    44  0.000000000000000E+000
                    45  9.301907064229111E-006
                    46  0.000000000000000E+000
                    47  0.000000000000000E+000
                    48 -1.007927292700096E-004
                    49  8.435938532385580E-006
                    50 -1.723793667443345E-004
                    51  0.000000000000000E+000
                    52  0.000000000000000E+000
                    53  1.020017379709852E-004
                    54  8.081598885562660E-004
                    55  0.000000000000000E+000
                    56 -1.096189771177716E-005
                    57 -8.506961752085617E-005
                    58  0.000000000000000E+000
                    59  0.000000000000000E+000
                    60 -2.043611998549291E-005
                    61 -1.475487073592343E-004
                    62 -5.163703388964870E-004
                    63 -1.872543114289350E-003
                    64 -1.118206646697710E-004
                    65  2.187147056602920E-003
                    66 -2.773793859385420E-004
                    67 -9.548294945405020E-005
                    68  0.000000000000000E+000
                    69  4.547667552380870E-004
                    70  8.301616464149400E-004
                    71  0.000000000000000E+000
                    72 -1.689782824160400E-003
                    73  6.260188476855330E-004
                    74  0.000000000000000E+000
                    75 -5.013268343541543E-005
                    76  0.000000000000000E+000
                    77  0.000000000000000E+000
                    78 -4.879593071636380E-005
                    79 -3.477934772249740E-005
                    80 -1.566389078746594E-004
                    81  0.000000000000000E+000
                    82  0.000000000000000E+000
                    83  9.845635285605721E-005
                    84  2.443066605785410E-005
                    85  0.000000000000000E+000
                    86  5.602384512706077E-006
                    87 -4.131543428360846E-005
                    88  0.000000000000000E+000
                    89  0.000000000000000E+000
                    90 -2.097171257944946E-005
                    91 -1.605623435407969E-004
                    92 -1.103618962055650E-004
                    93 -2.876579589524170E-004
                    94  1.830968142378600E-004
                    95 -3.293806635862060E-004
                    96  3.900419675650960E-005
                    97 -1.407228203998120E-004
                    98  0.000000000000000E+000
                    99  4.010562474072890E-004
                   100  3.030595119488870E-004
                   101  0.000000000000000E+000
                   102  5.693585729365070E-004
                   103 -1.353976343085280E-003
                   104  0.000000000000000E+000
                   105 -1.509362790612833E-005
                   106  0.000000000000000E+000
                   107  0.000000000000000E+000
                   108 -2.083151285270980E-005
                   109 -1.128065609303240E-005
                   110  1.334995296533793E-004
                   111  0.000000000000000E+000
                   112  0.000000000000000E+000
                   113 -7.990330046920680E-005
                   114  2.783051453781250E-005
                   115  0.000000000000000E+000
                   116 -1.847743863243665E-005
                   117 -2.529606922939185E-005
                   118  0.000000000000000E+000
                   119  0.000000000000000E+000
                   120  2.542228047209427E-005
                   121 -3.389423622016836E-005
                   122 -2.554286293580780E-004
                   123 -7.386074454080440E-004
                   124  1.736158682786510E-004
                   125  3.455794636517030E-004
                   126 -3.774392298869900E-005
                   127 -1.653603262297890E-004
                   128  0.000000000000000E+000
                   129  2.133466526190190E-004
                   130  5.935767675002830E-004
                   131  0.000000000000000E+000
                   132  3.188948160467240E-004
                   133  1.815527478685770E-003
                   134  0.000000000000000E+000
                   135  1.514231414043745E-005
                   136  0.000000000000000E+000
                   137  0.000000000000000E+000
                   138  5.225334025894340E-005
                   139 -8.326065139305199E-006
                   140  2.120751246325358E-004
                   141  0.000000000000000E+000
                   142  0.000000000000000E+000
                   143  3.666232979945720E-004
                   144  2.127534765865500E-004
                   145  0.000000000000000E+000
                   146 -1.112177017246307E-005
                   147 -6.206514529388078E-005
                   148  0.000000000000000E+000
                   149  0.000000000000000E+000
                   150 -1.232533079240827E-005
                   151 -5.843682269309620E-005
                   152 -1.633432662717890E-004
                   153 -5.330148904663250E-004
                   154  2.695835038811520E-005
                   155  4.050961337152130E-004
                   156  4.219284425548470E-006
                   157  1.602287255187310E-005
                   158  0.000000000000000E+000
                   159 -9.064505861963610E-006
                   160 -4.586430289706060E-006
                   161  0.000000000000000E+000
                   162  6.732231925424860E-004
                   163 -2.738435868783910E-004
                   164  0.000000000000000E+000
                   165 -6.712977569113224E-007
                   166  0.000000000000000E+000
                   167  0.000000000000000E+000
                   168  9.028339120441300E-007
                   169  1.728824461195600E-005
                   170  6.570577778290025E-005
                   171  0.000000000000000E+000
                   172  0.000000000000000E+000
                   173  1.845536066264950E-005
                   174  8.678339678183559E-006
                   175  0.000000000000000E+000
                   176  6.831094486024286E-006
                   177 -9.866618568674537E-006
                   178  0.000000000000000E+000
                   179  0.000000000000000E+000
                   180 -3.240286240944282E-005
                   181 -1.681806444118789E-005
                   182 -1.530909430758030E-004
                   183 -4.571883800472230E-004
                   184  3.953744869781200E-005
                   185  2.460743779412010E-004
                   186 -3.471063427655180E-005
                   187 -4.868035163799060E-005
                   188  0.000000000000000E+000
                   189  1.998030255547740E-004
                   190  8.055160407683231E-005
                   191  0.000000000000000E+000
                   192  1.170347578332470E-003
                   193 -2.330516365390150E-004
                   194  0.000000000000000E+000
                   195 -1.050377076522580E-006
                   196  0.000000000000000E+000
                   197  0.000000000000000E+000
                   198 -4.654461339098500E-006
                   199  7.502039047090460E-006
                   200  1.334030604386006E-005
                   201  0.000000000000000E+000
                   202  0.000000000000000E+000
                   203 -7.414564054979180E-005
                   204 -1.728244251670230E-004
                   205  0.000000000000000E+000
                   206 -5.384195002132144E-006
                   207 -4.179276303376591E-006
                   208  0.000000000000000E+000
                   209  0.000000000000000E+000
                   210  1.001058428714887E-005
                   211 -2.280681288524290E-006
                   212 -4.190605403346110E-005
                   213  1.476867445922630E-004
                   214  8.570392066217641E-006
                   215  3.086580908902200E-005
                   216  0.000000000000000E+000
                   217 -1.657086155904050E-003
                   218 -2.263105233188810E-004
                   219 -2.068761844160110E-004
                   220  3.156494342796280E-005
                   221  0.000000000000000E+000
                   222 -1.850200924304910E-004
                   223 -6.599724878840300E-004
                   224  2.344450061529280E-005
                   225 -6.818262740617610E-005
                   226  0.000000000000000E+000
                   227  9.746210605287580E-005
                   228 -5.907163538642860E-004
                   229 -3.142595052230660E-005
                   230 -1.606383287243280E-005
                   231  0.000000000000000E+000
                   232  8.450900082117040E-005
                   233 -5.202914077177690E-004
                   234  1.656079976849050E-005
                   235 -3.234634321137400E-006
                   236  0.000000000000000E+000
                   237  3.097926252790430E-005
                   238 -3.677640155915820E-004
                   239 -3.706340350995510E-006
                   240  3.375427836092190E-006
                   241  0.000000000000000E+000
                   242 -5.473829980402420E-005
                   243  1.437595145759530E-005
                   244  1.871872640185800E-007
                   245  2.361986471872460E-005
                   246  0.000000000000000E+000
 Sym= __2_a__
 Ene=  0.000000000000000E+000
 Spin= Alpha
 Occup=    2.00000000000000     
                     1  4.732745895682970E-005
                     2  3.826712725695350E-004
                     3 -2.759898324290500E-003
                     4 -1.391409015052830E-004
                     5 -1.326684343585140E-003
                     6  2.559628260015600E-004
                     7 -2.740846459372060E-003
                     8  0.000000000000000E+000
                     9  8.924758512536310E-005
                    10  1.039220873182820E-004
                    11  0.000000000000000E+000
                    12 -8.935647450791980E-005
                    13  4.104681428181560E-004
                    14  0.000000000000000E+000
                    15 -2.847496321627042E-005
                    16  0.000000000000000E+000
                    17  0.000000000000000E+000
                    18  3.797431099155000E-005
                    19 -9.505245646987329E-006
                    20  1.110702269714959E-004
                    21  0.000000000000000E+000
                    22  0.000000000000000E+000
                    23 -1.701959644561568E-004
                    24  3.727422139159720E-005
                    25  0.000000000000000E+000
                    26  2.280334922302148E-005
                    27 -8.853354414895204E-005
                    28  0.000000000000000E+000
                    29  0.000000000000000E+000
                    30  2.404348131371357E-005
                    31 -1.486330417145224E-004
                    32  -1.00092603940828     
                    33 -9.207619983292821E-003
                    34 -2.801632209531310E-003
                    35  8.165352258096500E-003
                    36  2.348888318695690E-004
                    37  3.375923149572360E-003
                    38  0.000000000000000E+000
                    39 -1.897568677408120E-004
                    40 -3.598436514953090E-004
                    41  0.000000000000000E+000
                    42 -4.147323330489580E-005
                    43 -4.130719731927940E-003
                    44  0.000000000000000E+000
                    45  5.397316185097662E-004
                    46  0.000000000000000E+000
                    47  0.000000000000000E+000
                    48  1.922776221001482E-004
                    49  1.503572109433810E-005
                    50 -5.636851886948592E-004
                    51  0.000000000000000E+000
                    52  0.000000000000000E+000
                    53  9.053203988860280E-004
                    54 -6.835224017483590E-005
                    55  0.000000000000000E+000
                    56  4.821091154306674E-006
                    57 -1.014524210000622E-004
                    58  0.000000000000000E+000
                    59  0.000000000000000E+000
                    60 -4.870760186235117E-006
                    61 -3.913093246417612E-004
                    62 -1.238345142371470E-002
                    63  2.014011962681110E-003
                    64  2.977209873575980E-004
                    65 -3.065266241412960E-003
                    66 -1.176175112881810E-005
                    67 -1.071176009647850E-004
                    68  0.000000000000000E+000
                    69 -7.542664754351250E-004
                    70  2.567905321978930E-006
                    71  0.000000000000000E+000
                    72  2.062885865592030E-003
                    73 -6.444730078757230E-005
                    74  0.000000000000000E+000
                    75 -2.250020405657557E-005
                    76  0.000000000000000E+000
                    77  0.000000000000000E+000
                    78  2.814145699218280E-008
                    79  1.668819575924390E-006
                    80  4.223579293811709E-004
                    81  0.000000000000000E+000
                    82  0.000000000000000E+000
                    83  5.892915559032940E-004
                    84  3.774636955395980E-004
                    85  0.000000000000000E+000
                    86 -3.253901259033614E-005
                    87  6.054539751787146E-005
                    88  0.000000000000000E+000
                    89  0.000000000000000E+000
                    90 -4.893276057637891E-005
                    91 -1.397549458001302E-004
                    92 -1.397092179869710E-002
                    93  2.049816856365270E-003
                    94  2.706026433125790E-004
                    95 -2.980747409228950E-003
                    96 -7.681339683064240E-005
                    97 -1.406176804964470E-004
                    98  0.000000000000000E+000
                    99  6.563837982086440E-004
                   100 -5.619220037378080E-005
                   101  0.000000000000000E+000
                   102 -1.993601340871720E-003
                   103 -2.867790105237950E-005
                   104  0.000000000000000E+000
                   105 -2.996077035039861E-005
                   106  0.000000000000000E+000
                   107  0.000000000000000E+000
                   108  6.012877049883260E-006
                   109  1.059285369017880E-005
                   110  4.130522704999945E-004
                   111  0.000000000000000E+000
                   112  0.000000000000000E+000
                   113  6.208006411087400E-004
                   114 -3.574289455336070E-004
                   115  0.000000000000000E+000
                   116  3.348507128277907E-005
                   117  6.188072844822841E-005
                   118  0.000000000000000E+000
                   119  0.000000000000000E+000
                   120  4.675040783342710E-005
                   121 -1.366182996385685E-004
                   122  6.295118333620660E-005
                   123  6.608984701610720E-004
                   124 -2.278628192735740E-004
                   125  1.196112973278270E-004
                   126  5.692573308759950E-006
                   127  3.507034825485720E-004
                   128  0.000000000000000E+000
                   129  6.349658459976450E-005
                   130 -5.521154120552280E-004
                   131  0.000000000000000E+000
                   132 -3.307628342890370E-004
                   133 -7.598519617785209E-004
                   134  0.000000000000000E+000
                   135 -1.925350853582049E-005
                   136  0.000000000000000E+000
                   137  0.000000000000000E+000
                   138 -4.625071136675900E-006
                   139 -5.183128462016290E-005
                   140 -1.381346345710671E-004
                   141  0.000000000000000E+000
                   142  0.000000000000000E+000
                   143 -2.438979840423160E-004
                   144  1.800358447021190E-004
                   145  0.000000000000000E+000
                   146 -7.149284000800172E-006
                   147  3.483789215946686E-005
                   148  0.000000000000000E+000
                   149  0.000000000000000E+000
                   150  4.729811561253102E-005
                   151 -2.834287062765575E-005
                   152 -3.515955396762120E-005
                   153  6.545196809958440E-004
                   154 -2.306028673662900E-004
                   155  1.435832831184370E-004
                   156  6.212059232596370E-006
                   157  3.692216192783590E-004
                   158  0.000000000000000E+000
                   159 -4.699581387372220E-005
                   160 -5.759631583341259E-004