[Molden Format]
[Atoms] AU
  N     1    7     0.0000000000   -4.2907334100    0.0000000000        
  C     2    6     0.0000000000   -1.7772236300    0.0000000000        
  C     3    6    -2.3389203600   -0.4111016300    0.0000000000        
  C     4    6     2.3389203600   -0.4111016300    0.0000000000        
  C     5    6    -2.2998668500    2.1639215300    0.0000000000        
  C     6    6     2.2998668500    2.1639215300    0.0000000000        
  C     7    6     0.0000000000    3.4755251800    0.0000000000        
  H     8    1    -2.4124509000   -5.7790131500    0.0000000000        
  H     9    1     1.9299607200   -5.4813572000    0.0000000000        
  H    10    1    -4.0745407300   -1.4447408500    0.0000000000        
  H    11    1     4.0745407300   -1.4447408500    0.0000000000        
  H    12    1    -4.0420632100    3.1963889500    0.0000000000        
  H    13    1     4.0420632100    3.1963889500    0.0000000000        
  H    14    1     0.0000000000    5.5020335600    0.0000000000        
[5D]
[7F]
[GTO]
  1  0
   s    12 1.00
  0.114200D+05  0.172695D-04
  0.171200D+04  0.134411D-03
  0.389300D+03  0.694561D-03
  0.110000D+03  0.278531D-02
  0.355700D+02  0.863457D-02
  0.125400D+02  0.199805D-01
  0.464400D+01  0.262908D-01
  0.129300D+01 -0.243845D-01
  0.511800D+00 -0.924934D-01
  0.178700D+00 -0.339683D+00
  0.246240D-01  0.345111D+00
  0.112530D-01  0.752750D+00
   s    10 1.00
  0.114200D+05  0.523000D-03
  0.171200D+04  0.404500D-02
  0.389300D+03  0.207750D-01
  0.110000D+03  0.807269D-01
  0.355700D+02  0.233074D+00
  0.125400D+02  0.433501D+00
  0.464400D+01  0.347472D+00
  0.129300D+01  0.412620D-01
  0.511800D+00 -0.850799D-02
  0.178700D+00  0.238400D-02
   s    10 1.00
  0.114200D+05 -0.115000D-03
  0.171200D+04 -0.895000D-03
  0.389300D+03 -0.462400D-02
  0.110000D+03 -0.185280D-01
  0.355700D+02 -0.573390D-01
  0.125400D+02 -0.132076D+00
  0.464400D+01 -0.172510D+00
  0.129300D+01  0.151814D+00
  0.511800D+00  0.599944D+00
  0.178700D+00  0.387462D+00
   s     1 1.00
  0.129300D+01  0.100000D+01
   s     1 1.00
  0.178700D+00  0.100000D+01
   p     5 1.00
  0.266300D+02  0.146700D-01
  0.594800D+01  0.917640D-01
  0.174200D+01  0.298683D+00
  0.555000D+00  0.498487D+00
  0.172500D+00  0.337023D+00
   p     1 1.00
  0.174200D+01  0.100000D+01
   p     1 1.00
  0.555000D+00  0.100000D+01
   d     1 1.00
  0.165400D+01  0.100000D+01
   d     1 1.00
  0.469000D+00  0.100000D+01
   f     1 1.00
  0.109300D+01  0.100000D+01
  
  2  0
   s    10 1.00
  0.823600D+04  0.531000D-03
  0.123500D+04  0.410800D-02
  0.280800D+03  0.210870D-01
  0.792700D+02  0.818530D-01
  0.255900D+02  0.234817D+00
  0.899700D+01  0.434401D+00
  0.331900D+01  0.346129D+00
  0.905900D+00  0.393780D-01
  0.364300D+00 -0.898300D-02
  0.128500D+00  0.238500D-02
   s    10 1.00
  0.823600D+04 -0.113000D-03
  0.123500D+04 -0.878000D-03
  0.280800D+03 -0.454000D-02
  0.792700D+02 -0.181330D-01
  0.255900D+02 -0.557600D-01
  0.899700D+01 -0.126895D+00
  0.331900D+01 -0.170352D+00
  0.905900D+00  0.140382D+00
  0.364300D+00  0.598684D+00
  0.128500D+00  0.395389D+00
   s     1 1.00
  0.905900D+00  0.100000D+01
   s     1 1.00
  0.364300D+00  0.100000D+01
   p     5 1.00
  0.187100D+02  0.140310D-01
  0.413300D+01  0.868660D-01
  0.120000D+01  0.290216D+00
  0.382700D+00  0.501008D+00
  0.120900D+00  0.343406D+00
   p     1 1.00
  0.382700D+00  0.100000D+01
   p     1 1.00
  0.120900D+00  0.100000D+01
   d     1 1.00
  0.109700D+01  0.100000D+01
   d     1 1.00
  0.318000D+00  0.100000D+01
   f     1 1.00
  0.761000D+00  0.100000D+01
  
  3  0
   s    10 1.00
  0.823600D+04  0.531000D-03
  0.123500D+04  0.410800D-02
  0.280800D+03  0.210870D-01
  0.792700D+02  0.818530D-01
  0.255900D+02  0.234817D+00
  0.899700D+01  0.434401D+00
  0.331900D+01  0.346129D+00
  0.905900D+00  0.393780D-01
  0.364300D+00 -0.898300D-02
  0.128500D+00  0.238500D-02
   s    10 1.00
  0.823600D+04 -0.113000D-03
  0.123500D+04 -0.878000D-03
  0.280800D+03 -0.454000D-02
  0.792700D+02 -0.181330D-01
  0.255900D+02 -0.557600D-01
  0.899700D+01 -0.126895D+00
  0.331900D+01 -0.170352D+00
  0.905900D+00  0.140382D+00
  0.364300D+00  0.598684D+00
  0.128500D+00  0.395389D+00
   s     1 1.00
  0.905900D+00  0.100000D+01
   s     1 1.00
  0.364300D+00  0.100000D+01
   p     5 1.00
  0.187100D+02  0.140310D-01
  0.413300D+01  0.868660D-01
  0.120000D+01  0.290216D+00
  0.382700D+00  0.501008D+00
  0.120900D+00  0.343406D+00
   p     1 1.00
  0.382700D+00  0.100000D+01
   p     1 1.00
  0.120900D+00  0.100000D+01
   d     1 1.00
  0.109700D+01  0.100000D+01
   d     1 1.00
  0.318000D+00  0.100000D+01
   f     1 1.00
  0.761000D+00  0.100000D+01
  
  4  0
   s    10 1.00
  0.823600D+04  0.531000D-03
  0.123500D+04  0.410800D-02
  0.280800D+03  0.210870D-01
  0.792700D+02  0.818530D-01
  0.255900D+02  0.234817D+00
  0.899700D+01  0.434401D+00
  0.331900D+01  0.346129D+00
  0.905900D+00  0.393780D-01
  0.364300D+00 -0.898300D-02
  0.128500D+00  0.238500D-02
   s    10 1.00
  0.823600D+04 -0.113000D-03
  0.123500D+04 -0.878000D-03
  0.280800D+03 -0.454000D-02
  0.792700D+02 -0.181330D-01
  0.255900D+02 -0.557600D-01
  0.899700D+01 -0.126895D+00
  0.331900D+01 -0.170352D+00
  0.905900D+00  0.140382D+00
  0.364300D+00  0.598684D+00
  0.128500D+00  0.395389D+00
   s     1 1.00
  0.905900D+00  0.100000D+01
   s     1 1.00
  0.364300D+00  0.100000D+01
   p     5 1.00
  0.187100D+02  0.140310D-01
  0.413300D+01  0.868660D-01
  0.120000D+01  0.290216D+00
  0.382700D+00  0.501008D+00
  0.120900D+00  0.343406D+00
   p     1 1.00
  0.382700D+00  0.100000D+01
   p     1 1.00
  0.120900D+00  0.100000D+01
   d     1 1.00
  0.109700D+01  0.100000D+01
   d     1 1.00
  0.318000D+00  0.100000D+01
   f     1 1.00
  0.761000D+00  0.100000D+01
  
  5  0
   s    10 1.00
  0.823600D+04  0.531000D-03
  0.123500D+04  0.410800D-02
  0.280800D+03  0.210870D-01
  0.792700D+02  0.818530D-01
  0.255900D+02  0.234817D+00
  0.899700D+01  0.434401D+00
  0.331900D+01  0.346129D+00
  0.905900D+00  0.393780D-01
  0.364300D+00 -0.898300D-02
  0.128500D+00  0.238500D-02
   s    10 1.00
  0.823600D+04 -0.113000D-03
  0.123500D+04 -0.878000D-03
  0.280800D+03 -0.454000D-02
  0.792700D+02 -0.181330D-01
  0.255900D+02 -0.557600D-01
  0.899700D+01 -0.126895D+00
  0.331900D+01 -0.170352D+00
  0.905900D+00  0.140382D+00
  0.364300D+00  0.598684D+00
  0.128500D+00  0.395389D+00
   s     1 1.00
  0.905900D+00  0.100000D+01
   s     1 1.00
  0.364300D+00  0.100000D+01
   p     5 1.00
  0.187100D+02  0.140310D-01
  0.413300D+01  0.868660D-01
  0.120000D+01  0.290216D+00
  0.382700D+00  0.501008D+00
  0.120900D+00  0.343406D+00
   p     1 1.00
  0.382700D+00  0.100000D+01
   p     1 1.00
  0.120900D+00  0.100000D+01
   d     1 1.00
  0.109700D+01  0.100000D+01
   d     1 1.00
  0.318000D+00  0.100000D+01
   f     1 1.00
  0.761000D+00  0.100000D+01
  
  6  0
   s    10 1.00
  0.823600D+04  0.531000D-03
  0.123500D+04  0.410800D-02
  0.280800D+03  0.210870D-01
  0.792700D+02  0.818530D-01
  0.255900D+02  0.234817D+00
  0.899700D+01  0.434401D+00
  0.331900D+01  0.346129D+00
  0.905900D+00  0.393780D-01
  0.364300D+00 -0.898300D-02
  0.128500D+00  0.238500D-02
   s    10 1.00
  0.823600D+04 -0.113000D-03
  0.123500D+04 -0.878000D-03
  0.280800D+03 -0.454000D-02
  0.792700D+02 -0.181330D-01
  0.255900D+02 -0.557600D-01
  0.899700D+01 -0.126895D+00
  0.331900D+01 -0.170352D+00
  0.905900D+00  0.140382D+00
  0.364300D+00  0.598684D+00
  0.128500D+00  0.395389D+00
   s     1 1.00
  0.905900D+00  0.100000D+01
   s     1 1.00
  0.364300D+00  0.100000D+01
   p     5 1.00
  0.187100D+02  0.140310D-01
  0.413300D+01  0.868660D-01
  0.120000D+01  0.290216D+00
  0.382700D+00  0.501008D+00
  0.120900D+00  0.343406D+00
   p     1 1.00
  0.382700D+00  0.100000D+01
   p     1 1.00
  0.120900D+00  0.100000D+01
   d     1 1.00
  0.109700D+01  0.100000D+01
   d     1 1.00
  0.318000D+00  0.100000D+01
   f     1 1.00
  0.761000D+00  0.100000D+01
  
  7  0
   s    10 1.00
  0.823600D+04  0.531000D-03
  0.123500D+04  0.410800D-02
  0.280800D+03  0.210870D-01
  0.792700D+02  0.818530D-01
  0.255900D+02  0.234817D+00
  0.899700D+01  0.434401D+00
  0.331900D+01  0.346129D+00
  0.905900D+00  0.393780D-01
  0.364300D+00 -0.898300D-02
  0.128500D+00  0.238500D-02
   s    10 1.00
  0.823600D+04 -0.113000D-03
  0.123500D+04 -0.878000D-03
  0.280800D+03 -0.454000D-02
  0.792700D+02 -0.181330D-01
  0.255900D+02 -0.557600D-01
  0.899700D+01 -0.126895D+00
  0.331900D+01 -0.170352D+00
  0.905900D+00  0.140382D+00
  0.364300D+00  0.598684D+00
  0.128500D+00  0.395389D+00
   s     1 1.00
  0.905900D+00  0.100000D+01
   s     1 1.00
  0.364300D+00  0.100000D+01
   p     5 1.00
  0.187100D+02  0.140310D-01
  0.413300D+01  0.868660D-01
  0.120000D+01  0.290216D+00
  0.382700D+00  0.501008D+00
  0.120900D+00  0.343406D+00
   p     1 1.00
  0.382700D+00  0.100000D+01
   p     1 1.00
  0.120900D+00  0.100000D+01
   d     1 1.00
  0.109700D+01  0.100000D+01
   d     1 1.00
  0.318000D+00  0.100000D+01
   f     1 1.00
  0.761000D+00  0.100000D+01
  
  8  0
   s     4 1.00
  0.130100D+02  0.196850D-01
  0.196200D+01  0.137977D+00
  0.444600D+00  0.478148D+00
  0.122000D+00  0.501240D+00
   s     1 1.00
  0.122000D+00  0.100000D+01
   p     1 1.00
  0.727000D+00  0.100000D+01
  
  9  0
   s     4 1.00
  0.130100D+02  0.196850D-01
  0.196200D+01  0.137977D+00
  0.444600D+00  0.478148D+00
  0.122000D+00  0.501240D+00
   s     1 1.00
  0.122000D+00  0.100000D+01
   p     1 1.00
  0.727000D+00  0.100000D+01
  
 10  0
   s     4 1.00
  0.130100D+02  0.196850D-01
  0.196200D+01  0.137977D+00
  0.444600D+00  0.478148D+00
  0.122000D+00  0.501240D+00
   s     1 1.00
  0.122000D+00  0.100000D+01
   p     1 1.00
  0.727000D+00  0.100000D+01
  
 11  0
   s     4 1.00
  0.130100D+02  0.196850D-01
  0.196200D+01  0.137977D+00
  0.444600D+00  0.478148D+00
  0.122000D+00  0.501240D+00
   s     1 1.00
  0.122000D+00  0.100000D+01
   p     1 1.00
  0.727000D+00  0.100000D+01
  
 12  0
   s     4 1.00
  0.130100D+02  0.196850D-01
  0.196200D+01  0.137977D+00
  0.444600D+00  0.478148D+00
  0.122000D+00  0.501240D+00
   s     1 1.00
  0.122000D+00  0.100000D+01
   p     1 1.00
  0.727000D+00  0.100000D+01
  
 13  0
   s     4 1.00
  0.130100D+02  0.196850D-01
  0.196200D+01  0.137977D+00
  0.444600D+00  0.478148D+00
  0.122000D+00  0.501240D+00
   s     1 1.00
  0.122000D+00  0.100000D+01
   p     1 1.00
  0.727000D+00  0.100000D+01
  
 14  0
   s     4 1.00
  0.130100D+02  0.196850D-01
  0.196200D+01  0.137977D+00
  0.444600D+00  0.478148D+00
  0.122000D+00  0.501240D+00
   s     1 1.00
  0.122000D+00  0.100000D+01
   p     1 1.00
  0.727000D+00  0.100000D+01
  
[MO]
 Sym= __1_A'_
 Ene=   1.00000000000000     
 Spin= Alpha
 Occup=    1.00000000000000     
                     1  3.800194141546769E-005
                     2  0.998629687574580     
                     3  1.942711974610387E-003
                     4  1.480799874017526E-003
                     5  4.360335615901960E-003
                     6  3.127055506467381E-003
                     7  6.115430563862458E-003
                     8  0.000000000000000E+000
                     9 -6.902267619397719E-004
                    10 -4.734209372739982E-004
                    11  0.000000000000000E+000
                    12 -2.114212683315946E-003
                    13 -1.597528854304716E-003
                    14  0.000000000000000E+000
                    15 -8.684703288542712E-005
                    16  0.000000000000000E+000
                    17  0.000000000000000E+000
                    18 -2.283153542920222E-004
                    19 -3.049881129108411E-005
                    20  2.377860182147327E-004
                    21  0.000000000000000E+000
                    22  0.000000000000000E+000
                    23 -2.525761010185904E-004
                    24  4.308152084252267E-004
                    25  0.000000000000000E+000
                    26  2.537341940845074E-006
                    27 -5.779802736185469E-005
                    28  0.000000000000000E+000
                    29  0.000000000000000E+000
                    30  1.964001783202804E-005
                    31 -9.509828027856979E-005
                    32 -2.921508777827654E-004
                    33  1.452953726249986E-003
                    34  2.259415035203566E-004
                    35 -2.550313532033420E-004
                    36 -1.611366199950605E-004
                    37 -4.592337033204037E-003
                    38  0.000000000000000E+000
                    39  4.785278362232547E-004
                    40  1.273925161891503E-004
                    41  0.000000000000000E+000
                    42 -1.985456306852903E-003
                    43  5.182549203904836E-003
                    44  0.000000000000000E+000
                    45 -2.439265733862683E-005
                    46  0.000000000000000E+000
                    47  0.000000000000000E+000
                    48 -2.409876809693654E-004
                    49 -1.206817557215919E-005
                    50 -2.890785864058621E-004
                    51  0.000000000000000E+000
                    52  0.000000000000000E+000
                    53  1.808474533762719E-005
                    54  6.774877149078144E-004
                    55  0.000000000000000E+000
                    56 -1.541869295002981E-005
                    57 -3.898165617259303E-005
                    58  0.000000000000000E+000
                    59  0.000000000000000E+000
                    60 -2.133654083083592E-006
                    61 -1.142305236055655E-004
                    62 -4.615937337319021E-004
                    63 -2.087389043704147E-003
                    64 -7.917750389876038E-005
                    65  1.914389051230030E-003
                    66 -6.450909819113592E-004
                    67  4.392900909275607E-004
                    68  0.000000000000000E+000
                    69  3.993155913604234E-004
                    70  7.572113546244219E-004
                    71  0.000000000000000E+000
                    72 -1.600767193563899E-003
                    73  6.352219487919054E-004
                    74  0.000000000000000E+000
                    75 -3.825454357370421E-005
                    76  0.000000000000000E+000
                    77  0.000000000000000E+000
                    78 -7.752581040513419E-005
                    79 -2.760473173789998E-005
                    80 -1.375658630083579E-004
                    81  0.000000000000000E+000
                    82  0.000000000000000E+000
                    83  7.035646588487316E-005
                    84  7.318125028266194E-005
                    85  0.000000000000000E+000
                    86  7.912784023354543E-006
                    87 -4.494224670288077E-005
                    88  0.000000000000000E+000
                    89  0.000000000000000E+000
                    90 -1.911178976733414E-005
                    91 -1.460970906626895E-004
                    92 -1.303368310018897E-004
                    93 -9.804215143704657E-004
                    94  1.923647530840141E-004
                    95 -2.377050143353856E-004
                    96  5.349452344697980E-004
                    97  5.991833706200276E-004
                    98  0.000000000000000E+000
                    99  3.815342000648801E-004
                   100  3.291692109164333E-004
                   101  0.000000000000000E+000
                   102  5.174117938079668E-004
                   103 -1.247686299256419E-003
                   104  0.000000000000000E+000
                   105 -5.210923338333715E-006
                   106  0.000000000000000E+000
                   107  0.000000000000000E+000
                   108 -6.344381307257918E-005
                   109 -1.566688171463316E-005
                   110  1.214854361750955E-004
                   111  0.000000000000000E+000
                   112  0.000000000000000E+000
                   113 -1.133718328278322E-004
                   114 -5.069373094447634E-005
                   115  0.000000000000000E+000
                   116 -2.433551064328837E-005
                   117 -3.311409229858485E-005
                   118  0.000000000000000E+000
                   119  0.000000000000000E+000
                   120  1.723857009712016E-005
                   121 -3.340332137210820E-005
                   122 -2.596265052629806E-004
                   123 -5.419586063995449E-004
                   124  1.648907383306250E-004
                   125  3.695250452019377E-004
                   126 -1.092270189374406E-005
                   127 -5.081397155050046E-004
                   128  0.000000000000000E+000
                   129  1.901287489157027E-004
                   130  5.710028513438260E-004
                   131  0.000000000000000E+000
                   132  2.810406454183596E-004
                   133  1.826126397305372E-003
                   134  0.000000000000000E+000
                   135  1.142187745915201E-005
                   136  0.000000000000000E+000
                   137  0.000000000000000E+000
                   138  4.157322820235768E-005
                   139 -4.247286623785290E-007
                   140  1.926440644306184E-004
                   141  0.000000000000000E+000
                   142  0.000000000000000E+000
                   143  3.279215518473328E-004
                   144  2.310776645399727E-004
                   145  0.000000000000000E+000
                   146 -8.583504993675480E-006
                   147 -5.677841295110662E-005
                   148  0.000000000000000E+000
                   149  0.000000000000000E+000
                   150 -1.558882681956194E-005
                   151 -4.528947346697539E-005
                   152 -1.794170744789107E-004
                   153 -2.898611779497381E-004
                   154  4.416682992614165E-005
                   155  3.805850843277295E-004
                   156 -2.480250121976712E-005
                   157 -4.511104182343281E-004
                   158  0.000000000000000E+000
                   159  3.767698535774478E-007
                   160  7.563705191930351E-005
                   161  0.000000000000000E+000
                   162  6.434574658488942E-004
                   163 -1.519311173505731E-004
                   164  0.000000000000000E+000
                   165 -1.368470153450701E-006
                   166  0.000000000000000E+000
                   167  0.000000000000000E+000
                   168 -3.386520393374654E-006
                   169  5.046120788714673E-006
                   170  6.272284243066849E-005
                   171  0.000000000000000E+000
                   172  0.000000000000000E+000
                   173  2.561917216295866E-005
                   174 -3.877212104899272E-005
                   175  0.000000000000000E+000
                   176  4.994218038306357E-006
                   177 -1.047837777886468E-005
                   178  0.000000000000000E+000
                   179  0.000000000000000E+000
                   180 -2.193934513268917E-005
                   181 -9.996000788385615E-006
                   182 -1.626931626067491E-004
                   183 -4.616270479584457E-004
                   184  4.968734356334676E-005
                   185  2.351165071526101E-004
                   186 -3.401504054913589E-005
                   187 -5.302449634354333E-005
                   188  0.000000000000000E+000
                   189  1.753567883201572E-004
                   190  5.726964144011979E-005
                   191  0.000000000000000E+000
                   192  1.114425810481066E-003
                   193 -1.198739024561019E-004
                   194  0.000000000000000E+000
                   195 -1.725745144061895E-006
                   196  0.000000000000000E+000
                   197  0.000000000000000E+000
                   198 -1.419695393340119E-005
                   199  5.910196932969747E-006
                   200  2.653723133904889E-005
                   201  0.000000000000000E+000
                   202  0.000000000000000E+000
                   203 -8.025799227145118E-005
                   204 -1.566980573703832E-004
                   205  0.000000000000000E+000
                   206 -4.980072818415256E-006
                   207 -6.329414903185357E-006
                   208  0.000000000000000E+000
                   209  0.000000000000000E+000
                   210  9.016895291428422E-006
                   211 -3.073501629884927E-006
                   212  7.113237394940917E-005
                   213 -2.310316489540822E-005
                   214  1.642497032020396E-004
                   215  1.611091083994111E-004
                   216  0.000000000000000E+000
                   217  3.860180981259977E-004
                   218 -8.373027825911913E-004
                   219 -3.662480013141158E-004
                   220  2.058688295636172E-004
                   221  0.000000000000000E+000
                   222 -3.958612269802422E-004
                   223 -6.157597212074675E-004
                   224  3.218166417374973E-006
                   225 -6.275833430215646E-005
                   226  0.000000000000000E+000
                   227 -2.488151934113908E-004
                   228 -4.522158668976844E-004
                   229 -3.597716172708521E-006
                   230 -1.817194412084150E-005
                   231  0.000000000000000E+000
                   232 -6.698984307726674E-005
                   233 -5.434090280459507E-004
                   234  6.042150304303237E-006
                   235 -2.978737788523803E-006
                   236  0.000000000000000E+000
                   237 -1.521691527007987E-004
                   238 -3.934842618561691E-004
                   239  6.158537474395533E-006
                   240  2.779810944583311E-006
                   241  0.000000000000000E+000
                   242  1.775642125502821E-005
                   243 -5.454445138189667E-005
                   244 -1.701867834537969E-007
                   245  1.977416331034007E-005
                   246  0.000000000000000E+000
 Sym= __2_A'_
 Ene=   2.00000000000000     
 Spin= Alpha
 Occup=    1.00000000000000     
                     1 -5.304899310643491E-005
                     2 -3.456867480899515E-004
                     3  2.845019977506297E-003
                     4  1.599914037400620E-004
                     5  1.320328234399464E-003
                     6 -1.807537174128129E-004
                     7  2.999682617258017E-003
                     8  0.000000000000000E+000
                     9 -3.636005118542276E-005
                    10 -1.065672912815504E-004
                    11  0.000000000000000E+000
                    12  5.894881402071222E-005
                    13 -4.357556650441317E-004
                    14  0.000000000000000E+000
                    15  3.551379749495464E-005
                    16  0.000000000000000E+000
                    17  0.000000000000000E+000
                    18 -5.525414325214604E-005
                    19  6.418496130033577E-006
                    20 -1.251665245672485E-004
                    21  0.000000000000000E+000
                    22  0.000000000000000E+000
                    23  1.683414578945588E-004
                    24  8.921388622153218E-007
                    25  0.000000000000000E+000
                    26 -1.003269102226576E-005
                    27  9.132847278162662E-005
                    28  0.000000000000000E+000
                    29  0.000000000000000E+000
                    30 -8.681984965406387E-006
                    31  1.467652794773998E-004
                    32   1.00101333788020     
                    33  9.341662700101727E-003
                    34  2.735930713601967E-003
                    35 -8.090647956436209E-003
                    36 -1.058594595653162E-004
                    37 -3.711779802827201E-003
                    38  0.000000000000000E+000
                    39  1.168470247641053E-004
                    40  5.222707103325730E-004
                    41  0.000000000000000E+000
                    42  4.599744789558150E-005
                    43  4.259764458759949E-003
                    44  0.000000000000000E+000
                    45 -5.750037862148064E-004
                    46  0.000000000000000E+000
                    47  0.000000000000000E+000
                    48 -2.022889462983878E-004
                    49 -2.587035396974406E-006
                    50  5.470556670887920E-004
                    51  0.000000000000000E+000
                    52  0.000000000000000E+000
                    53 -9.100816181673966E-004
                    54  4.980851033816127E-005
                    55  0.000000000000000E+000
                    56 -3.828488381061705E-006
                    57  9.244326829578938E-005
                    58  0.000000000000000E+000
                    59  0.000000000000000E+000
                    60  2.397895302192579E-006
                    61  4.058058566075649E-004
                    62  9.013545712781611E-003
                    63 -2.088834624682772E-003
                    64 -2.929126196374200E-004
                    65  3.078243823960403E-003
                    66 -9.064724622882763E-006
                    67  9.235353258819983E-005
                    68  0.000000000000000E+000
                    69  7.235630497775514E-004
                    70 -9.513660680248750E-006
                    71  0.000000000000000E+000
                    72 -2.054943142736285E-003
                    73  7.495652266082684E-005
                    74  0.000000000000000E+000
                    75  2.686758572618153E-005
                    76  0.000000000000000E+000
                    77  0.000000000000000E+000
                    78 -3.034972381503252E-006
                    79  2.548685078384145E-006
                    80 -4.078293491606130E-004
                    81  0.000000000000000E+000
                    82  0.000000000000000E+000
                    83 -5.885746114977190E-004
                    84 -3.817263991148459E-004
                    85  0.000000000000000E+000
                    86  3.328110672185309E-005
                    87 -5.828291070354632E-005
                    88  0.000000000000000E+000
                    89  0.000000000000000E+000
                    90  5.281903914190816E-005
                    91  1.406921383956947E-004
                    92  9.529579899456629E-003
                    93 -2.081132739037791E-003
                    94 -2.786666760034730E-004
                    95  3.021047278343068E-003
                    96  5.759356800397617E-006
                    97  7.902403287806687E-005
                    98  0.000000000000000E+000
                    99 -6.563271395950178E-004
                   100  4.524808124996136E-005
                   101  0.000000000000000E+000
                   102  2.056433934216451E-003
                   103  7.520305826613666E-005
                   104  0.000000000000000E+000
                   105  3.081829499393429E-005
                   106  0.000000000000000E+000
                   107  0.000000000000000E+000
                   108 -5.017565563166454E-006
                   109 -7.813529896982907E-006
                   110 -4.080358398750191E-004
                   111  0.000000000000000E+000
                   112  0.000000000000000E+000
                   113 -6.200752864960988E-004
                   114  3.690965344223409E-004
                   115  0.000000000000000E+000
                   116 -3.292427282911627E-005
                   117 -5.916418158406757E-005
                   118  0.000000000000000E+000
                   119  0.000000000000000E+000
                   120 -5.114449088190158E-005
                   121  1.384129079156423E-004
                   122 -1.722584188220868E-004
                   123 -6.851194424457450E-004
                   124  2.243358785989233E-004
                   125 -1.003698495670488E-004
                   126 -3.124216025829718E-006
                   127 -3.290512297406280E-004
                   128  0.000000000000000E+000
                   129 -5.859145197856719E-005
                   130  5.320804437506539E-004
                   131  0.000000000000000E+000
                   132  3.164756080343461E-004
                   133  7.542750056933739E-004
                   134  0.000000000000000E+000
                   135  1.864006863066386E-005
                   136  0.000000000000000E+000
                   137  0.000000000000000E+000
                   138  3.544389031865218E-006
                   139  5.276445684275834E-005
                   140  1.359252103732009E-004
                   141  0.000000000000000E+000
                   142  0.000000000000000E+000
                   143  2.416505394802856E-004
                   144 -1.843415254980454E-004
                   145  0.000000000000000E+000
                   146  7.110162210451631E-006
                   147 -3.328443923646160E-005
                   148  0.000000000000000E+000
                   149  0.000000000000000E+000
                   150 -4.738168452317398E-005
                   151  2.853365451842550E-005
                   152 -1.518031606084872E-004
                   153 -6.862039627747898E-004
                   154  2.285636750343193E-004
                   155 -1.283557217693523E-004
                   156  2.386063652352875E-006
                   157 -3.284750025748940E-004
                   158  0.000000000000000E+000
                   159  4.513059726459647E-005
                   160  5.600396335747349E-004