[Molden Format]
[Atoms] AU
  N     1    7     0.0003703600   -0.0004228000   -4.2987647100        
  C     2    6     0.0004607600   -0.0008035400   -1.7741563100        
  C     3    6     0.0365476400   -2.3378831100   -0.4120018100        
  C     4    6    -0.0355285500    2.3358650700   -0.4112943800        
  C     5    6     0.0578665900   -2.2999682400    2.1648177600        
  C     6    6    -0.0566629200    2.2971729800    2.1655151600        
  C     7    6     0.0006487200   -0.0015950700    3.4742975800        
  H     8    1    -0.5546114000   -1.5612341500   -5.3161348400        
  H     9    1     0.5552792800    1.5606953500   -5.3157037600        
  H    10    1     0.0914741300   -4.0713627200   -1.4476229200        
  H    11    1    -0.0905291900    4.0696569600   -1.4463886400        
  H    12    1     0.1225815700   -4.0408718700    3.1974208600        
  H    13    1    -0.1213039100    4.0377650700    3.1986479300        
  H    14    1     0.0007212900   -0.0019007300    5.5010979700        
[5D]
[7F]
[GTO]
  1  0
   s    12 1.00
  0.114200D+05  0.172695D-04
  0.171200D+04  0.134411D-03
  0.389300D+03  0.694561D-03
  0.110000D+03  0.278531D-02
  0.355700D+02  0.863457D-02
  0.125400D+02  0.199805D-01
  0.464400D+01  0.262908D-01
  0.129300D+01 -0.243845D-01
  0.511800D+00 -0.924934D-01
  0.178700D+00 -0.339683D+00
  0.246240D-01  0.345111D+00
  0.112530D-01  0.752750D+00
   s    10 1.00
  0.114200D+05  0.523000D-03
  0.171200D+04  0.404500D-02
  0.389300D+03  0.207750D-01
  0.110000D+03  0.807269D-01
  0.355700D+02  0.233074D+00
  0.125400D+02  0.433501D+00
  0.464400D+01  0.347472D+00
  0.129300D+01  0.412620D-01
  0.511800D+00 -0.850799D-02
  0.178700D+00  0.238400D-02
   s    10 1.00
  0.114200D+05 -0.115000D-03
  0.171200D+04 -0.895000D-03
  0.389300D+03 -0.462400D-02
  0.110000D+03 -0.185280D-01
  0.355700D+02 -0.573390D-01
  0.125400D+02 -0.132076D+00
  0.464400D+01 -0.172510D+00
  0.129300D+01  0.151814D+00
  0.511800D+00  0.599944D+00
  0.178700D+00  0.387462D+00
   s     1 1.00
  0.129300D+01  0.100000D+01
   s     1 1.00
  0.178700D+00  0.100000D+01
   p     5 1.00
  0.266300D+02  0.146700D-01
  0.594800D+01  0.917640D-01
  0.174200D+01  0.298683D+00
  0.555000D+00  0.498487D+00
  0.172500D+00  0.337023D+00
   p     1 1.00
  0.174200D+01  0.100000D+01
   p     1 1.00
  0.555000D+00  0.100000D+01
   d     1 1.00
  0.165400D+01  0.100000D+01
   d     1 1.00
  0.469000D+00  0.100000D+01
   f     1 1.00
  0.109300D+01  0.100000D+01
  
  2  0
   s    10 1.00
  0.823600D+04  0.531000D-03
  0.123500D+04  0.410800D-02
  0.280800D+03  0.210870D-01
  0.792700D+02  0.818530D-01
  0.255900D+02  0.234817D+00
  0.899700D+01  0.434401D+00
  0.331900D+01  0.346129D+00
  0.905900D+00  0.393780D-01
  0.364300D+00 -0.898300D-02
  0.128500D+00  0.238500D-02
   s    10 1.00
  0.823600D+04 -0.113000D-03
  0.123500D+04 -0.878000D-03
  0.280800D+03 -0.454000D-02
  0.792700D+02 -0.181330D-01
  0.255900D+02 -0.557600D-01
  0.899700D+01 -0.126895D+00
  0.331900D+01 -0.170352D+00
  0.905900D+00  0.140382D+00
  0.364300D+00  0.598684D+00
  0.128500D+00  0.395389D+00
   s     1 1.00
  0.905900D+00  0.100000D+01
   s     1 1.00
  0.364300D+00  0.100000D+01
   p     5 1.00
  0.187100D+02  0.140310D-01
  0.413300D+01  0.868660D-01
  0.120000D+01  0.290216D+00
  0.382700D+00  0.501008D+00
  0.120900D+00  0.343406D+00
   p     1 1.00
  0.382700D+00  0.100000D+01
   p     1 1.00
  0.120900D+00  0.100000D+01
   d     1 1.00
  0.109700D+01  0.100000D+01
   d     1 1.00
  0.318000D+00  0.100000D+01
   f     1 1.00
  0.761000D+00  0.100000D+01
  
  3  0
   s    10 1.00
  0.823600D+04  0.531000D-03
  0.123500D+04  0.410800D-02
  0.280800D+03  0.210870D-01
  0.792700D+02  0.818530D-01
  0.255900D+02  0.234817D+00
  0.899700D+01  0.434401D+00
  0.331900D+01  0.346129D+00
  0.905900D+00  0.393780D-01
  0.364300D+00 -0.898300D-02
  0.128500D+00  0.238500D-02
   s    10 1.00
  0.823600D+04 -0.113000D-03
  0.123500D+04 -0.878000D-03
  0.280800D+03 -0.454000D-02
  0.792700D+02 -0.181330D-01
  0.255900D+02 -0.557600D-01
  0.899700D+01 -0.126895D+00
  0.331900D+01 -0.170352D+00
  0.905900D+00  0.140382D+00
  0.364300D+00  0.598684D+00
  0.128500D+00  0.395389D+00
   s     1 1.00
  0.905900D+00  0.100000D+01
   s     1 1.00
  0.364300D+00  0.100000D+01
   p     5 1.00
  0.187100D+02  0.140310D-01
  0.413300D+01  0.868660D-01
  0.120000D+01  0.290216D+00
  0.382700D+00  0.501008D+00
  0.120900D+00  0.343406D+00
   p     1 1.00
  0.382700D+00  0.100000D+01
   p     1 1.00
  0.120900D+00  0.100000D+01
   d     1 1.00
  0.109700D+01  0.100000D+01
   d     1 1.00
  0.318000D+00  0.100000D+01
   f     1 1.00
  0.761000D+00  0.100000D+01
  
  4  0
   s    10 1.00
  0.823600D+04  0.531000D-03
  0.123500D+04  0.410800D-02
  0.280800D+03  0.210870D-01
  0.792700D+02  0.818530D-01
  0.255900D+02  0.234817D+00
  0.899700D+01  0.434401D+00
  0.331900D+01  0.346129D+00
  0.905900D+00  0.393780D-01
  0.364300D+00 -0.898300D-02
  0.128500D+00  0.238500D-02
   s    10 1.00
  0.823600D+04 -0.113000D-03
  0.123500D+04 -0.878000D-03
  0.280800D+03 -0.454000D-02
  0.792700D+02 -0.181330D-01
  0.255900D+02 -0.557600D-01
  0.899700D+01 -0.126895D+00
  0.331900D+01 -0.170352D+00
  0.905900D+00  0.140382D+00
  0.364300D+00  0.598684D+00
  0.128500D+00  0.395389D+00
   s     1 1.00
  0.905900D+00  0.100000D+01
   s     1 1.00
  0.364300D+00  0.100000D+01
   p     5 1.00
  0.187100D+02  0.140310D-01
  0.413300D+01  0.868660D-01
  0.120000D+01  0.290216D+00
  0.382700D+00  0.501008D+00
  0.120900D+00  0.343406D+00
   p     1 1.00
  0.382700D+00  0.100000D+01
   p     1 1.00
  0.120900D+00  0.100000D+01
   d     1 1.00
  0.109700D+01  0.100000D+01
   d     1 1.00
  0.318000D+00  0.100000D+01
   f     1 1.00
  0.761000D+00  0.100000D+01
  
  5  0
   s    10 1.00
  0.823600D+04  0.531000D-03
  0.123500D+04  0.410800D-02
  0.280800D+03  0.210870D-01
  0.792700D+02  0.818530D-01
  0.255900D+02  0.234817D+00
  0.899700D+01  0.434401D+00
  0.331900D+01  0.346129D+00
  0.905900D+00  0.393780D-01
  0.364300D+00 -0.898300D-02
  0.128500D+00  0.238500D-02
   s    10 1.00
  0.823600D+04 -0.113000D-03
  0.123500D+04 -0.878000D-03
  0.280800D+03 -0.454000D-02
  0.792700D+02 -0.181330D-01
  0.255900D+02 -0.557600D-01
  0.899700D+01 -0.126895D+00
  0.331900D+01 -0.170352D+00
  0.905900D+00  0.140382D+00
  0.364300D+00  0.598684D+00
  0.128500D+00  0.395389D+00
   s     1 1.00
  0.905900D+00  0.100000D+01
   s     1 1.00
  0.364300D+00  0.100000D+01
   p     5 1.00
  0.187100D+02  0.140310D-01
  0.413300D+01  0.868660D-01
  0.120000D+01  0.290216D+00
  0.382700D+00  0.501008D+00
  0.120900D+00  0.343406D+00
   p     1 1.00
  0.382700D+00  0.100000D+01
   p     1 1.00
  0.120900D+00  0.100000D+01
   d     1 1.00
  0.109700D+01  0.100000D+01
   d     1 1.00
  0.318000D+00  0.100000D+01
   f     1 1.00
  0.761000D+00  0.100000D+01
  
  6  0
   s    10 1.00
  0.823600D+04  0.531000D-03
  0.123500D+04  0.410800D-02
  0.280800D+03  0.210870D-01
  0.792700D+02  0.818530D-01
  0.255900D+02  0.234817D+00
  0.899700D+01  0.434401D+00
  0.331900D+01  0.346129D+00
  0.905900D+00  0.393780D-01
  0.364300D+00 -0.898300D-02
  0.128500D+00  0.238500D-02
   s    10 1.00
  0.823600D+04 -0.113000D-03
  0.123500D+04 -0.878000D-03
  0.280800D+03 -0.454000D-02
  0.792700D+02 -0.181330D-01
  0.255900D+02 -0.557600D-01
  0.899700D+01 -0.126895D+00
  0.331900D+01 -0.170352D+00
  0.905900D+00  0.140382D+00
  0.364300D+00  0.598684D+00
  0.128500D+00  0.395389D+00
   s     1 1.00
  0.905900D+00  0.100000D+01
   s     1 1.00
  0.364300D+00  0.100000D+01
   p     5 1.00
  0.187100D+02  0.140310D-01
  0.413300D+01  0.868660D-01
  0.120000D+01  0.290216D+00
  0.382700D+00  0.501008D+00
  0.120900D+00  0.343406D+00
   p     1 1.00
  0.382700D+00  0.100000D+01
   p     1 1.00
  0.120900D+00  0.100000D+01
   d     1 1.00
  0.109700D+01  0.100000D+01
   d     1 1.00
  0.318000D+00  0.100000D+01
   f     1 1.00
  0.761000D+00  0.100000D+01
  
  7  0
   s    10 1.00
  0.823600D+04  0.531000D-03
  0.123500D+04  0.410800D-02
  0.280800D+03  0.210870D-01
  0.792700D+02  0.818530D-01
  0.255900D+02  0.234817D+00
  0.899700D+01  0.434401D+00
  0.331900D+01  0.346129D+00
  0.905900D+00  0.393780D-01
  0.364300D+00 -0.898300D-02
  0.128500D+00  0.238500D-02
   s    10 1.00
  0.823600D+04 -0.113000D-03
  0.123500D+04 -0.878000D-03
  0.280800D+03 -0.454000D-02
  0.792700D+02 -0.181330D-01
  0.255900D+02 -0.557600D-01
  0.899700D+01 -0.126895D+00
  0.331900D+01 -0.170352D+00
  0.905900D+00  0.140382D+00
  0.364300D+00  0.598684D+00
  0.128500D+00  0.395389D+00
   s     1 1.00
  0.905900D+00  0.100000D+01
   s     1 1.00
  0.364300D+00  0.100000D+01
   p     5 1.00
  0.187100D+02  0.140310D-01
  0.413300D+01  0.868660D-01
  0.120000D+01  0.290216D+00
  0.382700D+00  0.501008D+00
  0.120900D+00  0.343406D+00
   p     1 1.00
  0.382700D+00  0.100000D+01
   p     1 1.00
  0.120900D+00  0.100000D+01
   d     1 1.00
  0.109700D+01  0.100000D+01
   d     1 1.00
  0.318000D+00  0.100000D+01
   f     1 1.00
  0.761000D+00  0.100000D+01
  
  8  0
   s     4 1.00
  0.130100D+02  0.196850D-01
  0.196200D+01  0.137977D+00
  0.444600D+00  0.478148D+00
  0.122000D+00  0.501240D+00
   s     1 1.00
  0.122000D+00  0.100000D+01
   p     1 1.00
  0.727000D+00  0.100000D+01
  
  9  0
   s     4 1.00
  0.130100D+02  0.196850D-01
  0.196200D+01  0.137977D+00
  0.444600D+00  0.478148D+00
  0.122000D+00  0.501240D+00
   s     1 1.00
  0.122000D+00  0.100000D+01
   p     1 1.00
  0.727000D+00  0.100000D+01
  
 10  0
   s     4 1.00
  0.130100D+02  0.196850D-01
  0.196200D+01  0.137977D+00
  0.444600D+00  0.478148D+00
  0.122000D+00  0.501240D+00
   s     1 1.00
  0.122000D+00  0.100000D+01
   p     1 1.00
  0.727000D+00  0.100000D+01
  
 11  0
   s     4 1.00
  0.130100D+02  0.196850D-01
  0.196200D+01  0.137977D+00
  0.444600D+00  0.478148D+00
  0.122000D+00  0.501240D+00
   s     1 1.00
  0.122000D+00  0.100000D+01
   p     1 1.00
  0.727000D+00  0.100000D+01
  
 12  0
   s     4 1.00
  0.130100D+02  0.196850D-01
  0.196200D+01  0.137977D+00
  0.444600D+00  0.478148D+00
  0.122000D+00  0.501240D+00
   s     1 1.00
  0.122000D+00  0.100000D+01
   p     1 1.00
  0.727000D+00  0.100000D+01
  
 13  0
   s     4 1.00
  0.130100D+02  0.196850D-01
  0.196200D+01  0.137977D+00
  0.444600D+00  0.478148D+00
  0.122000D+00  0.501240D+00
   s     1 1.00
  0.122000D+00  0.100000D+01
   p     1 1.00
  0.727000D+00  0.100000D+01
  
 14  0
   s     4 1.00
  0.130100D+02  0.196850D-01
  0.196200D+01  0.137977D+00
  0.444600D+00  0.478148D+00
  0.122000D+00  0.501240D+00
   s     1 1.00
  0.122000D+00  0.100000D+01
   p     1 1.00
  0.727000D+00  0.100000D+01
  
[MO]
 Sym= __1_a__
 Ene=  0.000000000000000E+000
 Spin= Alpha
 Occup=    2.00000000000000     
                     1  4.302629796827660E-005
                     2  0.998050469791928     
                     3  9.143308020861709E-003
                     4  2.070593278046550E-003
                     5  1.588817737715760E-003
                     6  1.628593485022570E-007
                     7 -6.815276665005390E-007
                     8  4.450275469208100E-003
                     9 -7.115328977082140E-009
                    10  3.117826087514250E-008
                    11 -1.367202148678530E-004
                    12 -8.261417758155641E-009
                    13 -7.133392472606920E-009
                    14 -1.635663990041580E-004
                    15  2.556281261288403E-004
                    16  2.810248508930480E-008
                    17 -5.413055532854760E-008
                    18 -9.382530715174941E-005
                    19  5.584322811966080E-005
                    20  1.486418764620530E-004
                    21 -5.730803793080800E-008
                    22 -1.218867404474780E-007
                    23  4.571615709692180E-004
                    24 -3.139808019130790E-004
                    25 -1.874323711770854E-004
                    26  3.995583688155172E-009
                    27 -8.529679242931304E-008
                    28  7.870013783281361E-005
                    29 -3.403454232061060E-005
                    30  3.191038221457769E-009
                    31 -1.731578021131608E-008
                    32 -3.392171306379110E-004
                    33  2.726455231842980E-003
                    34  1.461860775023750E-004
                    35 -2.988830028031020E-004
                    36 -2.547572437516450E-007
                    37  1.071618743530940E-006
                    38 -6.984611863573810E-003
                    39  1.599206758459300E-008
                    40 -9.750105329206280E-008
                    41  3.113150857216380E-004
                    42  1.525133606554130E-007
                    43 -6.191459365410060E-007
                    44  4.370503956060630E-003
                    45  3.470688541288491E-004
                    46  1.545739101592660E-008
                    47 -1.003883717240550E-007
                    48  1.311397529801592E-004
                    49 -9.662260479419850E-006
                    50  1.330839333720280E-004
                    51  3.376931206456840E-008
                    52 -1.234928508097790E-007
                    53 -3.756644005214080E-004
                    54  7.967018486395280E-005
                    55 -1.069762405459304E-004
                    56  2.033588012568082E-009
                    57 -5.825723288286376E-008
                    58  7.232650767519680E-005
                    59 -1.552547796648720E-005
                    60 -3.412098399177669E-010
                    61 -1.776605709664328E-008
                    62 -2.093923609986860E-004
                    63 -1.667350627710350E-003
                    64  4.848686152818270E-005
                    65  6.026573666802640E-004
                    66 -1.818160838160550E-005
                    67 -8.393904924618490E-004
                    68  1.011396329147320E-003
                    69  3.937871442834450E-005
                    70 -1.385393291580730E-005
                    71  5.605180353909650E-004
                    72  2.254530316586880E-005
                    73 -6.038684846023420E-004
                    74 -1.568978853703390E-004
                    75  9.083042065405049E-005
                    76  2.115412904960550E-006
                    77 -9.508561501456070E-006
                    78  3.923014418875480E-005
                    79 -3.201894018564440E-007
                    80 -4.754819532610633E-006
                    81 -2.740704693854040E-005
                    82  1.775464124260510E-004
                    83 -2.152599877897080E-005
                    84  2.327522568713140E-005
                    85 -9.130170358536948E-005
                    86  2.925071389879375E-006
                    87 -2.566171472907578E-005
                    88  2.080195926716600E-005
                    89 -5.528414088083930E-006
                    90  1.441555611373890E-006
                    91  1.445766175434279E-005
                    92 -2.093559896105940E-004
                    93 -1.667204381658110E-003
                    94  4.865296444029990E-005
                    95  6.021093935694570E-004
                    96  1.825236178034340E-005
                    97  8.391046550026060E-004
                    98  1.011756890699450E-003
                    99 -3.933329430856640E-005
                   100  1.354430990504280E-005
                   101  5.598916655106340E-004
                   102 -2.253894960581770E-005
                   103  6.033382386404150E-004
                   104 -1.565566707382110E-004
                   105  9.080282339040329E-005
                   106 -2.106789045893790E-006
                   107  9.466296678318670E-006
                   108  3.923488199976180E-005
                   109 -3.189302427659080E-007
                   110 -5.294005551330227E-006
                   111  2.741971041189530E-005
                   112 -1.776462501199150E-004
                   113 -2.166730753393960E-005
                   114  2.325241837342910E-005
                   115 -9.125351525823951E-005
                   116 -2.913670033717734E-006
                   117  2.558686358416784E-005
                   118  2.080401732315620E-005
                   119 -5.523848531272870E-006
                   120 -1.441656860668683E-006
                   121 -1.446505098373070E-005
                   122 -1.497684498622910E-004
                   123 -5.017249053984250E-006
                   124  1.080611963858200E-004
                   125  1.400541907015780E-004
                   126 -2.229084799085650E-005
                   127  4.126531426045040E-005
                   128 -7.874111031038960E-004
                   129  1.184065020074130E-006
                   130  2.219956734128010E-005
                   131  3.358932471433690E-004
                   132  1.394697290639910E-005
                   133 -1.489716374286170E-004
                   134  6.956729929485550E-004
                   135 -1.598645216970323E-005
                   136  1.568807218738560E-006
                   137  2.138377516181780E-006
                   138  9.852218741604660E-007
                   139  1.223224671446070E-006
                   140 -1.837418076539038E-004
                   141 -1.433952433570490E-005
                   142  1.589445156590790E-004
                   143  1.537521276763698E-005
                   144 -7.073435731918660E-006
                   145 -3.770859181122686E-005
                   146  4.261274425949424E-007
                   147  5.708938562087040E-007
                   148 -9.154716841415280E-006
                   149 -1.145949581679390E-006
                   150 -5.903736954813296E-007
                   151 -3.360682137049191E-006
                   152 -1.502452269573800E-004
                   153 -6.701671661772030E-006
                   154  1.075813857867970E-004
                   155  1.430838464526170E-004
                   156  2.222724734913060E-005
                   157 -4.097174469711320E-005
                   158 -7.873937575655080E-004
                   159 -1.138764419828350E-006
                   160 -2.265489126097360E-005
                   161  3.355263344920300E-004
                   162 -1.391518649402810E-005
                   163  1.493135458231590E-004
                   164  6.958881138273190E-004
                   165 -1.593308503511070E-005
                   166 -1.571463157223870E-006
                   167 -2.138099737581050E-006
                   168  9.327118180936900E-007
                   169  1.220340747649380E-006
                   170 -1.836906591981747E-004
                   171  1.431439789049410E-005
                   172 -1.591100954833250E-004
                   173  1.528407536569260E-005
                   174 -7.088659237866150E-006
                   175 -3.762081168683672E-005
                   176 -4.170188646193669E-007
                   177 -5.865973484211734E-007
                   178 -9.204915143813040E-006
                   179 -1.148395620113090E-006
                   180  5.915816287502438E-007
                   181  3.373298902147948E-006
                   182 -1.247567261431320E-004
                   183 -3.351384394491310E-004
                   184  3.142598626591290E-005
                   185  1.628649432397390E-004
                   186 -7.214283986320230E-009
                   187  9.295345620553310E-008
                   188 -4.265272134409460E-005
                   189  1.639527687929830E-008
                   190 -4.342060845120640E-007
                   191  1.738552153484570E-005
                   192  4.112598169847650E-009
                   193 -4.372937036185750E-008
                   194  3.484581710760390E-005
                   195  1.881789301407126E-005
                   196  1.347141057080000E-010
                   197  1.764950768737840E-008
                   198  8.633724244581399E-006
                   199  5.738141454528540E-007
                   200  5.640290704227688E-005
                   201 -3.704906881162300E-009
                   202  1.889343938958090E-007
                   203  4.560192058435340E-005
                   204 -5.188675958374610E-006
                   205 -1.169522334286965E-005
                   206  1.577202955249430E-009
                   207 -1.324204380958923E-008
                   208  3.311818185763600E-006
                   209  1.487799234446090E-006
                   210  1.637022186252046E-009
                   211  2.662108183720334E-008
                   212  3.853953272052620E-003
                   213 -2.320658696480550E-003
                   214  1.697902937858840E-004
                   215  4.357387013982110E-004
                   216  3.730749389616950E-004
                   217  3.853929978413250E-003
                   218 -2.320648626701780E-003
                   219 -1.697633479166150E-004
                   220 -4.358497513681480E-004
                   221  3.729582304857200E-004
                   222 -6.494790252961170E-004
                   223 -1.571997198910880E-004
                   224  1.547272603362380E-006
                   225 -1.964457069904030E-005
                   226 -4.371561919998190E-005
                   227 -6.495482148924990E-004
                   228 -1.568256911285260E-004
                   229 -1.550447251578910E-006
                   230  1.963956508069580E-005
                   231 -4.373624847587460E-005
                   232 -2.318105313106630E-004
                   233 -3.910309457753770E-004
                   234 -1.800449482929140E-006
                   235 -6.432389928374590E-006
                   236  5.057705491089070E-006
                   237 -2.318500734118510E-004
                   238 -3.911926051446280E-004
                   239  1.798781837980920E-006
                   240  6.477180600011620E-006
                   241  5.106641325265950E-006
                   242  6.861312990665420E-005
                   243 -1.162441536215000E-004
                   244  4.881252156671030E-010
                   245 -2.332962253669760E-008
                   246  1.473040908687020E-005
 Sym= __2_a__
 Ene=  0.000000000000000E+000
 Spin= Alpha
 Occup=    2.00000000000000     
                     1 -4.215678004041590E-005
                     2 -1.986150090161190E-004
                     3  2.251156788586630E-003
                     4  9.640772939898240E-005
                     5  1.263468896310830E-003
                     6  1.024827847017080E-007
                     7 -4.333301715922270E-007
                     8  2.903146052695990E-003
                     9 -1.411625774621100E-009
                    10  4.981154084104290E-009
                    11 -5.800637854729180E-005
                    12 -1.433614682589640E-008
                    13  7.726626477446999E-008
                    14 -4.712406016545210E-004
                    15  4.354234691443860E-005
                    16 -2.654998139324940E-009
                    17 -1.872008741395770E-008
                    18  5.651358439117820E-005
                    19 -2.057375152076540E-005
                    20 -2.593439217808947E-004
                    21  1.187818408586050E-008
                    22  1.046019762649860E-007
                    23 -2.773189103884240E-004
                    24  1.144005283711370E-004
                    25  1.844690386563857E-004
                    26 -2.060208691517924E-008
                    27  7.235935013143791E-008
                    28 -1.039402528224270E-005
                    29 -2.440906157815120E-005
                    30  5.155115345446712E-009
                    31  1.553940183390511E-009
                    32   1.00105692264331     
                    33  9.224195159179851E-003
                    34  2.625715094878230E-003
                    35 -7.769617384108470E-003
                    36 -1.448647789799540E-007
                    37  6.045223607054021E-007
                    38 -4.040541883302790E-003
                    39  3.738982417232910E-008
                    40 -1.581912830852480E-007
                    41  1.051740204778410E-003
                    42  1.593702114084350E-007
                    43 -7.260705007230630E-007
                    44  4.364913232452980E-003
                    45  4.551828959728215E-004
                    46  4.557344870422960E-008
                    47 -5.811894697374290E-008
                    48 -4.237685959875240E-004
                    49  1.392601582637680E-005
                    50  5.332788981327841E-004
                    51 -1.618357680442920E-009
                    52 -2.663343056629020E-007
                    53  9.041539445455501E-004
                    54 -2.137237785934260E-005
                    55  3.761528150755956E-004
                    56 -1.967286051417360E-008
                    57  1.852305615344311E-007
                    58 -2.014503853677900E-004
                    59  1.033971476868460E-005
                    60  7.039031589269168E-009
                    61  3.929057500890523E-008
                    62  7.600657906040930E-003
                    63 -2.029312158814540E-003
                    64 -2.734490309515450E-004
                    65  3.010492206929090E-003
                    66  6.522402356271530E-006
                    67  1.089964154945030E-004
                    68 -2.390120733295480E-005
                    69 -2.954719841763650E-005
                    70  5.848173382438420E-004
                    71  4.140659417622110E-005
                    72  5.259532271349810E-005
                    73 -2.056507263263600E-003
                    74  9.542716883991150E-005
                    75 -1.585601562192186E-005
                    76  1.028052697673220E-006
                    77  1.496028877610070E-005
                    78  2.928331365474300E-005
                    79  1.736796025777260E-006
                    80  7.594579085279842E-004
                    81  2.244912739561490E-005
                    82 -4.197447303286780E-004
                    83 -1.485247333182322E-005
                    84 -1.449658074014670E-005
                    85  7.076201820503794E-005
                    86 -6.072878551437248E-007
                    87  4.308512824737128E-005
                    88 -1.253399456264722E-004
                    89  1.317553800040540E-006
                    90  1.514667047367557E-006
                    91  4.984121948010437E-005
                    92  7.600631865241680E-003
                    93 -2.029395707805580E-003
                    94 -2.734903875532340E-004
                    95  3.010688355199330E-003
                    96 -6.523504879607070E-006
                    97 -1.089898125014180E-004
                    98 -2.395593728304040E-005
                    99  2.954902368092450E-005
                   100 -5.848304755583801E-004
                   101  4.135388993143260E-005
                   102 -5.259323221498360E-005
                   103  2.056600252296250E-003
                   104  9.589677461022241E-005
                   105 -1.585005157062504E-005
                   106 -1.031728752938870E-006
                   107 -1.496690924900930E-005
                   108  2.927716984836240E-005
                   109  1.736077992329380E-006
                   110  7.597382151048863E-004
                   111 -2.235983548801950E-005
                   112  4.194004197843080E-004
                   113 -1.470941003351878E-005
                   114 -1.445917505430110E-005
                   115  7.078103828665336E-005
                   116  6.093159890067387E-007
                   117 -4.297037924700112E-005
                   118 -1.253766424948024E-004
                   119  1.316257800863740E-006
                   120 -1.503910634173877E-006
                   121 -4.979321074937551E-005
                   122 -2.266453067295300E-004
                   123 -7.513234269693090E-004
                   124  2.246668840734050E-004
                   125 -1.185530674035820E-004
                   126 -3.996116439541260E-006
                   127 -2.078683219611350E-005
                   128 -2.485389308378400E-004
                   129  7.664654071659320E-006
                   130 -4.030080851501860E-006
                   131  5.401430286766090E-004
                   132 -1.005846163661260E-005
                   133  3.189090941108920E-004
                   134  7.414447984056970E-004
                   135 -1.497736539216526E-005
                   136 -2.154853513862060E-006
                   137  5.121407144303330E-005
                   138  1.414628870095078E-005
                   139  1.321319353745930E-006
                   140 -2.930825279142100E-004
                   141  3.934114825010610E-006
                   142 -2.214074804834480E-004
                   143 -1.530693087946390E-005
                   144 -5.269852706366980E-006
                   145 -2.027377490147802E-008
                   146  2.106016449862189E-006
                   147 -3.916282013528065E-005
                   148 -3.876125153453620E-005
                   149 -2.111154412252620E-006
                   150  7.561925424803917E-007
                   151 -5.947117941768505E-006
                   152 -2.263622585707930E-004
                   153 -7.503841207536450E-004
                   154  2.247256533884470E-004
                   155 -1.195361392175580E-004
                   156  3.978663555889610E-006
                   157  2.085311305079640E-005
                   158 -2.485364195112360E-004
                   159 -7.628007601020350E-006
                   160  3.907301450122650E-006