[Molden Format]
[Atoms] AU
  N     1    7     0.0000000000   -4.2907334100    0.0000000000        
  C     2    6     0.0000000000   -1.7772236300    0.0000000000        
  C     3    6    -2.3389203600   -0.4111016300    0.0000000000        
  C     4    6     2.3389203600   -0.4111016300    0.0000000000        
  C     5    6    -2.2998668500    2.1639215300    0.0000000000        
  C     6    6     2.2998668500    2.1639215300    0.0000000000        
  C     7    6     0.0000000000    3.4755251800    0.0000000000        
  H     8    1    -2.5732809600   -5.8782318000    0.0000000000        
  H     9    1     1.7691306600   -5.3821385500    0.0000000000        
  H    10    1    -4.0745407300   -1.4447408500    0.0000000000        
  H    11    1     4.0745407300   -1.4447408500    0.0000000000        
  H    12    1    -4.0420632100    3.1963889500    0.0000000000        
  H    13    1     4.0420632100    3.1963889500    0.0000000000        
  H    14    1     0.0000000000    5.5020335600    0.0000000000        
[5D]
[7F]
[GTO]
  1  0
   s    12 1.00
  0.114200D+05  0.172695D-04
  0.171200D+04  0.134411D-03
  0.389300D+03  0.694561D-03
  0.110000D+03  0.278531D-02
  0.355700D+02  0.863457D-02
  0.125400D+02  0.199805D-01
  0.464400D+01  0.262908D-01
  0.129300D+01 -0.243845D-01
  0.511800D+00 -0.924934D-01
  0.178700D+00 -0.339683D+00
  0.246240D-01  0.345111D+00
  0.112530D-01  0.752750D+00
   s    10 1.00
  0.114200D+05  0.523000D-03
  0.171200D+04  0.404500D-02
  0.389300D+03  0.207750D-01
  0.110000D+03  0.807269D-01
  0.355700D+02  0.233074D+00
  0.125400D+02  0.433501D+00
  0.464400D+01  0.347472D+00
  0.129300D+01  0.412620D-01
  0.511800D+00 -0.850799D-02
  0.178700D+00  0.238400D-02
   s    10 1.00
  0.114200D+05 -0.115000D-03
  0.171200D+04 -0.895000D-03
  0.389300D+03 -0.462400D-02
  0.110000D+03 -0.185280D-01
  0.355700D+02 -0.573390D-01
  0.125400D+02 -0.132076D+00
  0.464400D+01 -0.172510D+00
  0.129300D+01  0.151814D+00
  0.511800D+00  0.599944D+00
  0.178700D+00  0.387462D+00
   s     1 1.00
  0.129300D+01  0.100000D+01
   s     1 1.00
  0.178700D+00  0.100000D+01
   p     5 1.00
  0.266300D+02  0.146700D-01
  0.594800D+01  0.917640D-01
  0.174200D+01  0.298683D+00
  0.555000D+00  0.498487D+00
  0.172500D+00  0.337023D+00
   p     1 1.00
  0.174200D+01  0.100000D+01
   p     1 1.00
  0.555000D+00  0.100000D+01
   d     1 1.00
  0.165400D+01  0.100000D+01
   d     1 1.00
  0.469000D+00  0.100000D+01
   f     1 1.00
  0.109300D+01  0.100000D+01
  
  2  0
   s    10 1.00
  0.823600D+04  0.531000D-03
  0.123500D+04  0.410800D-02
  0.280800D+03  0.210870D-01
  0.792700D+02  0.818530D-01
  0.255900D+02  0.234817D+00
  0.899700D+01  0.434401D+00
  0.331900D+01  0.346129D+00
  0.905900D+00  0.393780D-01
  0.364300D+00 -0.898300D-02
  0.128500D+00  0.238500D-02
   s    10 1.00
  0.823600D+04 -0.113000D-03
  0.123500D+04 -0.878000D-03
  0.280800D+03 -0.454000D-02
  0.792700D+02 -0.181330D-01
  0.255900D+02 -0.557600D-01
  0.899700D+01 -0.126895D+00
  0.331900D+01 -0.170352D+00
  0.905900D+00  0.140382D+00
  0.364300D+00  0.598684D+00
  0.128500D+00  0.395389D+00
   s     1 1.00
  0.905900D+00  0.100000D+01
   s     1 1.00
  0.364300D+00  0.100000D+01
   p     5 1.00
  0.187100D+02  0.140310D-01
  0.413300D+01  0.868660D-01
  0.120000D+01  0.290216D+00
  0.382700D+00  0.501008D+00
  0.120900D+00  0.343406D+00
   p     1 1.00
  0.382700D+00  0.100000D+01
   p     1 1.00
  0.120900D+00  0.100000D+01
   d     1 1.00
  0.109700D+01  0.100000D+01
   d     1 1.00
  0.318000D+00  0.100000D+01
   f     1 1.00
  0.761000D+00  0.100000D+01
  
  3  0
   s    10 1.00
  0.823600D+04  0.531000D-03
  0.123500D+04  0.410800D-02
  0.280800D+03  0.210870D-01
  0.792700D+02  0.818530D-01
  0.255900D+02  0.234817D+00
  0.899700D+01  0.434401D+00
  0.331900D+01  0.346129D+00
  0.905900D+00  0.393780D-01
  0.364300D+00 -0.898300D-02
  0.128500D+00  0.238500D-02
   s    10 1.00
  0.823600D+04 -0.113000D-03
  0.123500D+04 -0.878000D-03
  0.280800D+03 -0.454000D-02
  0.792700D+02 -0.181330D-01
  0.255900D+02 -0.557600D-01
  0.899700D+01 -0.126895D+00
  0.331900D+01 -0.170352D+00
  0.905900D+00  0.140382D+00
  0.364300D+00  0.598684D+00
  0.128500D+00  0.395389D+00
   s     1 1.00
  0.905900D+00  0.100000D+01
   s     1 1.00
  0.364300D+00  0.100000D+01
   p     5 1.00
  0.187100D+02  0.140310D-01
  0.413300D+01  0.868660D-01
  0.120000D+01  0.290216D+00
  0.382700D+00  0.501008D+00
  0.120900D+00  0.343406D+00
   p     1 1.00
  0.382700D+00  0.100000D+01
   p     1 1.00
  0.120900D+00  0.100000D+01
   d     1 1.00
  0.109700D+01  0.100000D+01
   d     1 1.00
  0.318000D+00  0.100000D+01
   f     1 1.00
  0.761000D+00  0.100000D+01
  
  4  0
   s    10 1.00
  0.823600D+04  0.531000D-03
  0.123500D+04  0.410800D-02
  0.280800D+03  0.210870D-01
  0.792700D+02  0.818530D-01
  0.255900D+02  0.234817D+00
  0.899700D+01  0.434401D+00
  0.331900D+01  0.346129D+00
  0.905900D+00  0.393780D-01
  0.364300D+00 -0.898300D-02
  0.128500D+00  0.238500D-02
   s    10 1.00
  0.823600D+04 -0.113000D-03
  0.123500D+04 -0.878000D-03
  0.280800D+03 -0.454000D-02
  0.792700D+02 -0.181330D-01
  0.255900D+02 -0.557600D-01
  0.899700D+01 -0.126895D+00
  0.331900D+01 -0.170352D+00
  0.905900D+00  0.140382D+00
  0.364300D+00  0.598684D+00
  0.128500D+00  0.395389D+00
   s     1 1.00
  0.905900D+00  0.100000D+01
   s     1 1.00
  0.364300D+00  0.100000D+01
   p     5 1.00
  0.187100D+02  0.140310D-01
  0.413300D+01  0.868660D-01
  0.120000D+01  0.290216D+00
  0.382700D+00  0.501008D+00
  0.120900D+00  0.343406D+00
   p     1 1.00
  0.382700D+00  0.100000D+01
   p     1 1.00
  0.120900D+00  0.100000D+01
   d     1 1.00
  0.109700D+01  0.100000D+01
   d     1 1.00
  0.318000D+00  0.100000D+01
   f     1 1.00
  0.761000D+00  0.100000D+01
  
  5  0
   s    10 1.00
  0.823600D+04  0.531000D-03
  0.123500D+04  0.410800D-02
  0.280800D+03  0.210870D-01
  0.792700D+02  0.818530D-01
  0.255900D+02  0.234817D+00
  0.899700D+01  0.434401D+00
  0.331900D+01  0.346129D+00
  0.905900D+00  0.393780D-01
  0.364300D+00 -0.898300D-02
  0.128500D+00  0.238500D-02
   s    10 1.00
  0.823600D+04 -0.113000D-03
  0.123500D+04 -0.878000D-03
  0.280800D+03 -0.454000D-02
  0.792700D+02 -0.181330D-01
  0.255900D+02 -0.557600D-01
  0.899700D+01 -0.126895D+00
  0.331900D+01 -0.170352D+00
  0.905900D+00  0.140382D+00
  0.364300D+00  0.598684D+00
  0.128500D+00  0.395389D+00
   s     1 1.00
  0.905900D+00  0.100000D+01
   s     1 1.00
  0.364300D+00  0.100000D+01
   p     5 1.00
  0.187100D+02  0.140310D-01
  0.413300D+01  0.868660D-01
  0.120000D+01  0.290216D+00
  0.382700D+00  0.501008D+00
  0.120900D+00  0.343406D+00
   p     1 1.00
  0.382700D+00  0.100000D+01
   p     1 1.00
  0.120900D+00  0.100000D+01
   d     1 1.00
  0.109700D+01  0.100000D+01
   d     1 1.00
  0.318000D+00  0.100000D+01
   f     1 1.00
  0.761000D+00  0.100000D+01
  
  6  0
   s    10 1.00
  0.823600D+04  0.531000D-03
  0.123500D+04  0.410800D-02
  0.280800D+03  0.210870D-01
  0.792700D+02  0.818530D-01
  0.255900D+02  0.234817D+00
  0.899700D+01  0.434401D+00
  0.331900D+01  0.346129D+00
  0.905900D+00  0.393780D-01
  0.364300D+00 -0.898300D-02
  0.128500D+00  0.238500D-02
   s    10 1.00
  0.823600D+04 -0.113000D-03
  0.123500D+04 -0.878000D-03
  0.280800D+03 -0.454000D-02
  0.792700D+02 -0.181330D-01
  0.255900D+02 -0.557600D-01
  0.899700D+01 -0.126895D+00
  0.331900D+01 -0.170352D+00
  0.905900D+00  0.140382D+00
  0.364300D+00  0.598684D+00
  0.128500D+00  0.395389D+00
   s     1 1.00
  0.905900D+00  0.100000D+01
   s     1 1.00
  0.364300D+00  0.100000D+01
   p     5 1.00
  0.187100D+02  0.140310D-01
  0.413300D+01  0.868660D-01
  0.120000D+01  0.290216D+00
  0.382700D+00  0.501008D+00
  0.120900D+00  0.343406D+00
   p     1 1.00
  0.382700D+00  0.100000D+01
   p     1 1.00
  0.120900D+00  0.100000D+01
   d     1 1.00
  0.109700D+01  0.100000D+01
   d     1 1.00
  0.318000D+00  0.100000D+01
   f     1 1.00
  0.761000D+00  0.100000D+01
  
  7  0
   s    10 1.00
  0.823600D+04  0.531000D-03
  0.123500D+04  0.410800D-02
  0.280800D+03  0.210870D-01
  0.792700D+02  0.818530D-01
  0.255900D+02  0.234817D+00
  0.899700D+01  0.434401D+00
  0.331900D+01  0.346129D+00
  0.905900D+00  0.393780D-01
  0.364300D+00 -0.898300D-02
  0.128500D+00  0.238500D-02
   s    10 1.00
  0.823600D+04 -0.113000D-03
  0.123500D+04 -0.878000D-03
  0.280800D+03 -0.454000D-02
  0.792700D+02 -0.181330D-01
  0.255900D+02 -0.557600D-01
  0.899700D+01 -0.126895D+00
  0.331900D+01 -0.170352D+00
  0.905900D+00  0.140382D+00
  0.364300D+00  0.598684D+00
  0.128500D+00  0.395389D+00
   s     1 1.00
  0.905900D+00  0.100000D+01
   s     1 1.00
  0.364300D+00  0.100000D+01
   p     5 1.00
  0.187100D+02  0.140310D-01
  0.413300D+01  0.868660D-01
  0.120000D+01  0.290216D+00
  0.382700D+00  0.501008D+00
  0.120900D+00  0.343406D+00
   p     1 1.00
  0.382700D+00  0.100000D+01
   p     1 1.00
  0.120900D+00  0.100000D+01
   d     1 1.00
  0.109700D+01  0.100000D+01
   d     1 1.00
  0.318000D+00  0.100000D+01
   f     1 1.00
  0.761000D+00  0.100000D+01
  
  8  0
   s     4 1.00
  0.130100D+02  0.196850D-01
  0.196200D+01  0.137977D+00
  0.444600D+00  0.478148D+00
  0.122000D+00  0.501240D+00
   s     1 1.00
  0.122000D+00  0.100000D+01
   p     1 1.00
  0.727000D+00  0.100000D+01
  
  9  0
   s     4 1.00
  0.130100D+02  0.196850D-01
  0.196200D+01  0.137977D+00
  0.444600D+00  0.478148D+00
  0.122000D+00  0.501240D+00
   s     1 1.00
  0.122000D+00  0.100000D+01
   p     1 1.00
  0.727000D+00  0.100000D+01
  
 10  0
   s     4 1.00
  0.130100D+02  0.196850D-01
  0.196200D+01  0.137977D+00
  0.444600D+00  0.478148D+00
  0.122000D+00  0.501240D+00
   s     1 1.00
  0.122000D+00  0.100000D+01
   p     1 1.00
  0.727000D+00  0.100000D+01
  
 11  0
   s     4 1.00
  0.130100D+02  0.196850D-01
  0.196200D+01  0.137977D+00
  0.444600D+00  0.478148D+00
  0.122000D+00  0.501240D+00
   s     1 1.00
  0.122000D+00  0.100000D+01
   p     1 1.00
  0.727000D+00  0.100000D+01
  
 12  0
   s     4 1.00
  0.130100D+02  0.196850D-01
  0.196200D+01  0.137977D+00
  0.444600D+00  0.478148D+00
  0.122000D+00  0.501240D+00
   s     1 1.00
  0.122000D+00  0.100000D+01
   p     1 1.00
  0.727000D+00  0.100000D+01
  
 13  0
   s     4 1.00
  0.130100D+02  0.196850D-01
  0.196200D+01  0.137977D+00
  0.444600D+00  0.478148D+00
  0.122000D+00  0.501240D+00
   s     1 1.00
  0.122000D+00  0.100000D+01
   p     1 1.00
  0.727000D+00  0.100000D+01
  
 14  0
   s     4 1.00
  0.130100D+02  0.196850D-01
  0.196200D+01  0.137977D+00
  0.444600D+00  0.478148D+00
  0.122000D+00  0.501240D+00
   s     1 1.00
  0.122000D+00  0.100000D+01
   p     1 1.00
  0.727000D+00  0.100000D+01
  
[MO]
 Sym= __1_A'_
 Ene=   1.00000000000000     
 Spin= Alpha
 Occup=    1.00000000000000     
                     1  5.924286282657263E-005
                     2  0.998489908287626     
                     3  2.105758947541852E-003
                     4  1.646411573811147E-003
                     5  4.534325136867780E-003
                     6  3.091649319049259E-003
                     7  5.878993505236057E-003
                     8  0.000000000000000E+000
                     9 -6.530166403418002E-004
                    10 -4.347006431917482E-004
                    11  0.000000000000000E+000
                    12 -2.273508509791632E-003
                    13 -1.367760385770015E-003
                    14  0.000000000000000E+000
                    15 -1.026758165315153E-004
                    16  0.000000000000000E+000
                    17  0.000000000000000E+000
                    18 -2.178168719942446E-004
                    19 -6.563833300496949E-005
                    20  2.249458564090163E-004
                    21  0.000000000000000E+000
                    22  0.000000000000000E+000
                    23 -2.437946167042904E-004
                    24  5.560815841372543E-004
                    25  0.000000000000000E+000
                    26  5.999332260236488E-006
                    27 -5.843280268493191E-005
                    28  0.000000000000000E+000
                    29  0.000000000000000E+000
                    30  2.003694777470012E-005
                    31 -1.075657134039331E-004
                    32 -3.043214171277720E-004
                    33  1.444210887062534E-003
                    34  2.380545440978929E-004
                    35 -2.517351480265563E-004
                    36 -1.656611805833806E-004
                    37 -4.761152507213463E-003
                    38  0.000000000000000E+000
                    39  4.877243311701408E-004
                    40  2.047311981859653E-004
                    41  0.000000000000000E+000
                    42 -2.012998869588882E-003
                    43  5.127344102646553E-003
                    44  0.000000000000000E+000
                    45 -2.382119766265894E-005
                    46  0.000000000000000E+000
                    47  0.000000000000000E+000
                    48 -2.444465351151824E-004
                    49 -1.308028546022499E-005
                    50 -2.783667723983219E-004
                    51  0.000000000000000E+000
                    52  0.000000000000000E+000
                    53  6.530248248640216E-005
                    54  7.881843455163066E-004
                    55  0.000000000000000E+000
                    56 -1.513070927051428E-005
                    57 -4.460869560729529E-005
                    58  0.000000000000000E+000
                    59  0.000000000000000E+000
                    60 -7.017931313401854E-006
                    61 -1.202585922524923E-004
                    62 -4.572678852353321E-004
                    63 -2.133909421826812E-003
                    64 -8.656099681195952E-005
                    65  1.963330580720454E-003
                    66 -6.860589530792035E-004
                    67  4.890025312686124E-004
                    68  0.000000000000000E+000
                    69  4.405481584675761E-004
                    70  7.765076226645453E-004
                    71  0.000000000000000E+000
                    72 -1.590818571311250E-003
                    73  6.651431345636062E-004
                    74  0.000000000000000E+000
                    75 -3.910012799867802E-005
                    76  0.000000000000000E+000
                    77  0.000000000000000E+000
                    78 -8.206427489774078E-005
                    79 -3.046267475927174E-005
                    80 -1.355080812846490E-004
                    81  0.000000000000000E+000
                    82  0.000000000000000E+000
                    83  1.013624870532433E-004
                    84  1.033881923571085E-004
                    85  0.000000000000000E+000
                    86  1.009710955317581E-005
                    87 -4.617282604974349E-005
                    88  0.000000000000000E+000
                    89  0.000000000000000E+000
                    90 -1.917484322874755E-005
                    91 -1.472551634077985E-004
                    92 -1.229703626474292E-004
                    93 -9.865957234700038E-004
                    94  2.059169687863838E-004
                    95 -3.286425427301219E-004
                    96  5.567360939570658E-004
                    97  6.423204189613980E-004
                    98  0.000000000000000E+000
                    99  4.264494260230176E-004
                   100  3.363211927796715E-004
                   101  0.000000000000000E+000
                   102  4.721058743330482E-004
                   103 -1.288254870754760E-003
                   104  0.000000000000000E+000
                   105 -2.257443645929926E-006
                   106  0.000000000000000E+000
                   107  0.000000000000000E+000
                   108 -6.682852030377425E-005
                   109 -1.754804790344523E-005
                   110  1.248187565609401E-004
                   111  0.000000000000000E+000
                   112  0.000000000000000E+000
                   113 -1.239543516013074E-004
                   114 -6.613639047704897E-005
                   115  0.000000000000000E+000
                   116 -2.418798893810826E-005
                   117 -3.110314052850663E-005
                   118  0.000000000000000E+000
                   119  0.000000000000000E+000
                   120  1.475578826233671E-005
                   121 -2.822450663605664E-005
                   122 -2.517551278352153E-004
                   123 -4.942870579509326E-004
                   124  1.664688551460062E-004
                   125  3.488044377434545E-004
                   126 -6.792619522252737E-006
                   127 -5.415392041176239E-004
                   128  0.000000000000000E+000
                   129  1.702192493156318E-004
                   130  5.770975216803654E-004
                   131  0.000000000000000E+000
                   132  3.126604568348996E-004
                   133  1.846561375568369E-003
                   134  0.000000000000000E+000
                   135  1.266663148437401E-005
                   136  0.000000000000000E+000
                   137  0.000000000000000E+000
                   138  4.145432675672570E-005
                   139  3.757459213264228E-007
                   140  1.916116559393104E-004
                   141  0.000000000000000E+000
                   142  0.000000000000000E+000
                   143  3.340218737480168E-004
                   144  2.438579468277963E-004
                   145  0.000000000000000E+000
                   146 -8.253546622682011E-006
                   147 -5.787661699512796E-005
                   148  0.000000000000000E+000
                   149  0.000000000000000E+000
                   150 -1.787930040773622E-005
                   151 -4.672411769601078E-005
                   152 -1.715980608816797E-004
                   153 -2.472676138721738E-004
                   154  3.960804334850680E-005
                   155  3.648067535831575E-004
                   156 -2.755252985873396E-005
                   157 -4.764423209198533E-004
                   158  0.000000000000000E+000
                   159  9.573492451225095E-006
                   160  6.615439036041483E-005
                   161  0.000000000000000E+000
                   162  6.641077051502792E-004
                   163 -1.818600370465069E-004
                   164  0.000000000000000E+000
                   165 -2.003539722412543E-006
                   166  0.000000000000000E+000
                   167  0.000000000000000E+000
                   168 -6.026968252829682E-006
                   169  4.498999499328981E-006
                   170  5.977033929605762E-005
                   171  0.000000000000000E+000
                   172  0.000000000000000E+000
                   173  2.102766781958030E-005
                   174 -3.868361921504069E-005
                   175  0.000000000000000E+000
                   176  4.502224922883329E-006
                   177 -9.144769423803572E-006
                   178  0.000000000000000E+000
                   179  0.000000000000000E+000
                   180 -2.184884712684155E-005
                   181 -8.921671943193859E-006
                   182 -1.595244139197607E-004
                   183 -4.514281558422031E-004
                   184  4.648988170803983E-005
                   185  2.273190128536660E-004
                   186 -3.448072270832750E-005
                   187 -5.376378456477223E-005
                   188  0.000000000000000E+000
                   189  1.802475739188688E-004
                   190  5.789810767262609E-005
                   191  0.000000000000000E+000
                   192  1.146314808322422E-003
                   193 -1.304163298274012E-004
                   194  0.000000000000000E+000
                   195 -1.299508579625602E-006
                   196  0.000000000000000E+000
                   197  0.000000000000000E+000
                   198 -1.402631398767997E-005
                   199  6.323878162133631E-006
                   200  2.043852335146415E-005
                   201  0.000000000000000E+000
                   202  0.000000000000000E+000
                   203 -8.188398986265380E-005
                   204 -1.588416036249781E-004
                   205  0.000000000000000E+000
                   206 -4.783670661758024E-006
                   207 -5.754596160065174E-006
                   208  0.000000000000000E+000
                   209  0.000000000000000E+000
                   210  9.126658231440953E-006
                   211 -4.530859632792363E-006
                   212  5.498413950546211E-005
                   213  2.541117049233681E-005
                   214  1.255888201751869E-004
                   215  1.335346257969499E-004
                   216  0.000000000000000E+000
                   217  8.395804463215123E-004
                   218 -1.217557838555912E-003
                   219 -4.174734944947603E-004
                   220  2.217467374924970E-004
                   221  0.000000000000000E+000
                   222 -4.374968084820449E-004
                   223 -5.915920577986289E-004
                   224  4.162631911249829E-006
                   225 -6.690604245740334E-005
                   226  0.000000000000000E+000
                   227 -2.691914257559492E-004
                   228 -4.243874674365205E-004
                   229 -3.775363858308291E-006
                   230 -1.719919118993736E-005
                   231  0.000000000000000E+000
                   232 -7.731839793272897E-005
                   233 -5.347531454533205E-004
                   234  5.008290549369576E-006
                   235 -1.172555112995964E-006
                   236  0.000000000000000E+000
                   237 -1.636701568720687E-004
                   238 -3.948070025057335E-004
                   239  6.824719638189013E-006
                   240  3.319734421407570E-006
                   241  0.000000000000000E+000
                   242  1.644843204365789E-005
                   243 -4.434633132702963E-005
                   244 -5.434880835333442E-007
                   245  2.074097640547149E-005
                   246  0.000000000000000E+000
 Sym= __2_A'_
 Ene=   2.00000000000000     
 Spin= Alpha
 Occup=    1.00000000000000     
                     1 -4.988537035793071E-005
                     2 -3.343442156216921E-004
                     3  2.748091988396829E-003
                     4  1.520032562160176E-004
                     5  1.338394044877697E-003
                     6 -2.793566489385867E-004
                     7  2.982002222211175E-003
                     8  0.000000000000000E+000
                     9 -5.934560596295040E-005
                    10 -1.045010304194146E-004
                    11  0.000000000000000E+000
                    12  9.622784542221052E-005
                    13 -4.420985428169286E-004
                    14  0.000000000000000E+000
                    15  3.480605087859248E-005
                    16  0.000000000000000E+000
                    17  0.000000000000000E+000
                    18 -5.133329994845798E-005
                    19  6.360977780871933E-006
                    20 -1.242562957439812E-004
                    21  0.000000000000000E+000
                    22  0.000000000000000E+000
                    23  1.776768728040202E-004
                    24 -4.795023537189343E-006
                    25  0.000000000000000E+000
                    26 -1.596632325617357E-005
                    27  9.001223142603038E-005
                    28  0.000000000000000E+000
                    29  0.000000000000000E+000
                    30 -1.594520948264958E-005
                    31  1.450223463436667E-004
                    32   1.00102221669947     
                    33  9.329930414895630E-003
                    34  2.725487091062882E-003
                    35 -8.105328462171685E-003
                    36 -1.066922143481552E-004
                    37 -3.609147020015863E-003
                    38  0.000000000000000E+000
                    39  1.210263800058678E-004
                    40  4.493208824700206E-004
                    41  0.000000000000000E+000
                    42  5.167273807376231E-005
                    43  4.233615720242669E-003
                    44  0.000000000000000E+000
                    45 -5.697467416982627E-004
                    46  0.000000000000000E+000
                    47  0.000000000000000E+000
                    48 -1.991921848367408E-004
                    49 -5.476871647945065E-006
                    50  5.481793945735427E-004
                    51  0.000000000000000E+000
                    52  0.000000000000000E+000
                    53 -9.195988147067770E-004
                    54  6.457368656588550E-005
                    55  0.000000000000000E+000
                    56 -3.500243700338765E-006
                    57  9.354364685570848E-005
                    58  0.000000000000000E+000
                    59  0.000000000000000E+000
                    60  8.557024396284356E-007
                    61  4.034170753360105E-004
                    62  9.089601194598645E-003
                    63 -2.087424746428868E-003
                    64 -2.954180704207643E-004
                    65  3.082283597907018E-003
                    66 -1.344613593989529E-005
                    67  9.907835684636084E-005
                    68  0.000000000000000E+000
                    69  7.371261383887455E-004
                    70 -1.746107992845863E-005
                    71  0.000000000000000E+000
                    72 -2.054807439990573E-003
                    73  6.692904507743368E-005
                    74  0.000000000000000E+000
                    75  2.600241559918007E-005
                    76  0.000000000000000E+000
                    77  0.000000000000000E+000
                    78 -2.569422427703528E-006
                    79  1.191403996030164E-006
                    80 -4.085537644683699E-004
                    81  0.000000000000000E+000
                    82  0.000000000000000E+000
                    83 -5.830754715663968E-004
                    84 -3.812656411551018E-004
                    85  0.000000000000000E+000
                    86  3.347160346951298E-005
                    87 -5.875728619927404E-005
                    88  0.000000000000000E+000
                    89  0.000000000000000E+000
                    90  5.234385125682807E-005
                    91  1.409653479115580E-004
                    92  9.774019760330864E-003
                    93 -2.070139220197280E-003
                    94 -2.821124170107375E-004
                    95  3.027838630589991E-003
                    96  4.828847034681477E-006
                    97  7.101595784895735E-005
                    98  0.000000000000000E+000
                    99 -6.609922191027866E-004
                   100  4.363854598710256E-005
                   101  0.000000000000000E+000
                   102  2.051933717047331E-003
                   103  6.935470214954641E-005
                   104  0.000000000000000E+000
                   105  3.038671086960013E-005
                   106  0.000000000000000E+000
                   107  0.000000000000000E+000
                   108 -4.089476628686312E-006
                   109 -7.529891482607632E-006
                   110 -4.112779033076815E-004
                   111  0.000000000000000E+000
                   112  0.000000000000000E+000
                   113 -6.209155335468280E-004
                   114  3.729311123054870E-004
                   115  0.000000000000000E+000
                   116 -3.209784295572416E-005
                   117 -5.929920371272004E-005
                   118  0.000000000000000E+000
                   119  0.000000000000000E+000
                   120 -5.002996491163926E-005
                   121  1.372226899902583E-004
                   122 -1.607356282068857E-004
                   123 -6.784309238934276E-004
                   124  2.234288569933258E-004
                   125 -9.682384393033981E-005
                   126 -3.208275264667259E-006
                   127 -3.305183196697535E-004
                   128  0.000000000000000E+000
                   129 -6.110798482866797E-005
                   130  5.305460770726931E-004
                   131  0.000000000000000E+000
                   132  3.137095146567192E-004
                   133  7.542384077425803E-004
                   134  0.000000000000000E+000
                   135  1.845618522030808E-005
                   136  0.000000000000000E+000
                   137  0.000000000000000E+000
                   138  3.624777448004990E-006
                   139  5.258533732384667E-005
                   140  1.365503474535437E-004
                   141  0.000000000000000E+000
                   142  0.000000000000000E+000
                   143  2.397241231229432E-004
                   144 -1.811476404657751E-004
                   145  0.000000000000000E+000
                   146  7.232077453952821E-006
                   147 -3.357679769104599E-005
                   148  0.000000000000000E+000
                   149  0.000000000000000E+000
                   150 -4.774500724110786E-005
                   151  2.874650599251540E-005
                   152 -1.389360014186381E-004
                   153 -6.839402471246822E-004
                   154  2.292537945924633E-004
                   155 -1.330983638986512E-004
                   156  2.217234905741545E-006
                   157 -3.247737181096486E-004
                   158  0.000000000000000E+000
                   159  4.335423060416976E-005
                   160  5.639336341887359E-004