[Molden Format]
[Atoms] AU
  N     1    7    -4.5063519500   -0.0295326700   -0.3894262400        
  C     2    6    -1.7522533800   -0.0555591400   -0.1707948200        
  C     3    6    -0.3532156500    0.2166010200   -2.3747485800        
  C     4    6    -0.4788622400   -0.2726636800    2.1262171000        
  C     5    6     2.2636958200    0.2524148200   -2.2885539200        
  C     6    6     2.1331584100   -0.2195779500    2.2043275900        
  C     7    6     3.5107938900    0.0398850900   -0.0042903200        
  H     8    1    -5.0897336200   -1.8216425900    0.1990695800        
  H     9    1    -5.1046976800    1.0164794600    1.1272935100        
  H    10    1    -1.3322010600    0.4076012000   -4.1366529000        
  H    11    1    -1.5377870000   -0.4882612300    3.8430115400        
  H    12    1     3.3245617500    0.4612986600   -4.0047258200        
  H    13    1     3.0915366000   -0.3875401400    3.9851011400        
  H    14    1     5.5384274100    0.0767618100    0.0590707000        
[5D]
[7F]
[GTO]
  1  0
   s    12 1.00
  0.114200D+05  0.172695D-04
  0.171200D+04  0.134411D-03
  0.389300D+03  0.694561D-03
  0.110000D+03  0.278531D-02
  0.355700D+02  0.863457D-02
  0.125400D+02  0.199805D-01
  0.464400D+01  0.262908D-01
  0.129300D+01 -0.243845D-01
  0.511800D+00 -0.924934D-01
  0.178700D+00 -0.339683D+00
  0.246240D-01  0.345111D+00
  0.112530D-01  0.752750D+00
   s    10 1.00
  0.114200D+05  0.523000D-03
  0.171200D+04  0.404500D-02
  0.389300D+03  0.207750D-01
  0.110000D+03  0.807269D-01
  0.355700D+02  0.233074D+00
  0.125400D+02  0.433501D+00
  0.464400D+01  0.347472D+00
  0.129300D+01  0.412620D-01
  0.511800D+00 -0.850799D-02
  0.178700D+00  0.238400D-02
   s    10 1.00
  0.114200D+05 -0.115000D-03
  0.171200D+04 -0.895000D-03
  0.389300D+03 -0.462400D-02
  0.110000D+03 -0.185280D-01
  0.355700D+02 -0.573390D-01
  0.125400D+02 -0.132076D+00
  0.464400D+01 -0.172510D+00
  0.129300D+01  0.151814D+00
  0.511800D+00  0.599944D+00
  0.178700D+00  0.387462D+00
   s     1 1.00
  0.129300D+01  0.100000D+01
   s     1 1.00
  0.178700D+00  0.100000D+01
   p     5 1.00
  0.266300D+02  0.146700D-01
  0.594800D+01  0.917640D-01
  0.174200D+01  0.298683D+00
  0.555000D+00  0.498487D+00
  0.172500D+00  0.337023D+00
   p     1 1.00
  0.174200D+01  0.100000D+01
   p     1 1.00
  0.555000D+00  0.100000D+01
   d     1 1.00
  0.165400D+01  0.100000D+01
   d     1 1.00
  0.469000D+00  0.100000D+01
   f     1 1.00
  0.109300D+01  0.100000D+01
  
  2  0
   s    10 1.00
  0.823600D+04  0.531000D-03
  0.123500D+04  0.410800D-02
  0.280800D+03  0.210870D-01
  0.792700D+02  0.818530D-01
  0.255900D+02  0.234817D+00
  0.899700D+01  0.434401D+00
  0.331900D+01  0.346129D+00
  0.905900D+00  0.393780D-01
  0.364300D+00 -0.898300D-02
  0.128500D+00  0.238500D-02
   s    10 1.00
  0.823600D+04 -0.113000D-03
  0.123500D+04 -0.878000D-03
  0.280800D+03 -0.454000D-02
  0.792700D+02 -0.181330D-01
  0.255900D+02 -0.557600D-01
  0.899700D+01 -0.126895D+00
  0.331900D+01 -0.170352D+00
  0.905900D+00  0.140382D+00
  0.364300D+00  0.598684D+00
  0.128500D+00  0.395389D+00
   s     1 1.00
  0.905900D+00  0.100000D+01
   s     1 1.00
  0.364300D+00  0.100000D+01
   p     5 1.00
  0.187100D+02  0.140310D-01
  0.413300D+01  0.868660D-01
  0.120000D+01  0.290216D+00
  0.382700D+00  0.501008D+00
  0.120900D+00  0.343406D+00
   p     1 1.00
  0.382700D+00  0.100000D+01
   p     1 1.00
  0.120900D+00  0.100000D+01
   d     1 1.00
  0.109700D+01  0.100000D+01
   d     1 1.00
  0.318000D+00  0.100000D+01
   f     1 1.00
  0.761000D+00  0.100000D+01
  
  3  0
   s    10 1.00
  0.823600D+04  0.531000D-03
  0.123500D+04  0.410800D-02
  0.280800D+03  0.210870D-01
  0.792700D+02  0.818530D-01
  0.255900D+02  0.234817D+00
  0.899700D+01  0.434401D+00
  0.331900D+01  0.346129D+00
  0.905900D+00  0.393780D-01
  0.364300D+00 -0.898300D-02
  0.128500D+00  0.238500D-02
   s    10 1.00
  0.823600D+04 -0.113000D-03
  0.123500D+04 -0.878000D-03
  0.280800D+03 -0.454000D-02
  0.792700D+02 -0.181330D-01
  0.255900D+02 -0.557600D-01
  0.899700D+01 -0.126895D+00
  0.331900D+01 -0.170352D+00
  0.905900D+00  0.140382D+00
  0.364300D+00  0.598684D+00
  0.128500D+00  0.395389D+00
   s     1 1.00
  0.905900D+00  0.100000D+01
   s     1 1.00
  0.364300D+00  0.100000D+01
   p     5 1.00
  0.187100D+02  0.140310D-01
  0.413300D+01  0.868660D-01
  0.120000D+01  0.290216D+00
  0.382700D+00  0.501008D+00
  0.120900D+00  0.343406D+00
   p     1 1.00
  0.382700D+00  0.100000D+01
   p     1 1.00
  0.120900D+00  0.100000D+01
   d     1 1.00
  0.109700D+01  0.100000D+01
   d     1 1.00
  0.318000D+00  0.100000D+01
   f     1 1.00
  0.761000D+00  0.100000D+01
  
  4  0
   s    10 1.00
  0.823600D+04  0.531000D-03
  0.123500D+04  0.410800D-02
  0.280800D+03  0.210870D-01
  0.792700D+02  0.818530D-01
  0.255900D+02  0.234817D+00
  0.899700D+01  0.434401D+00
  0.331900D+01  0.346129D+00
  0.905900D+00  0.393780D-01
  0.364300D+00 -0.898300D-02
  0.128500D+00  0.238500D-02
   s    10 1.00
  0.823600D+04 -0.113000D-03
  0.123500D+04 -0.878000D-03
  0.280800D+03 -0.454000D-02
  0.792700D+02 -0.181330D-01
  0.255900D+02 -0.557600D-01
  0.899700D+01 -0.126895D+00
  0.331900D+01 -0.170352D+00
  0.905900D+00  0.140382D+00
  0.364300D+00  0.598684D+00
  0.128500D+00  0.395389D+00
   s     1 1.00
  0.905900D+00  0.100000D+01
   s     1 1.00
  0.364300D+00  0.100000D+01
   p     5 1.00
  0.187100D+02  0.140310D-01
  0.413300D+01  0.868660D-01
  0.120000D+01  0.290216D+00
  0.382700D+00  0.501008D+00
  0.120900D+00  0.343406D+00
   p     1 1.00
  0.382700D+00  0.100000D+01
   p     1 1.00
  0.120900D+00  0.100000D+01
   d     1 1.00
  0.109700D+01  0.100000D+01
   d     1 1.00
  0.318000D+00  0.100000D+01
   f     1 1.00
  0.761000D+00  0.100000D+01
  
  5  0
   s    10 1.00
  0.823600D+04  0.531000D-03
  0.123500D+04  0.410800D-02
  0.280800D+03  0.210870D-01
  0.792700D+02  0.818530D-01
  0.255900D+02  0.234817D+00
  0.899700D+01  0.434401D+00
  0.331900D+01  0.346129D+00
  0.905900D+00  0.393780D-01
  0.364300D+00 -0.898300D-02
  0.128500D+00  0.238500D-02
   s    10 1.00
  0.823600D+04 -0.113000D-03
  0.123500D+04 -0.878000D-03
  0.280800D+03 -0.454000D-02
  0.792700D+02 -0.181330D-01
  0.255900D+02 -0.557600D-01
  0.899700D+01 -0.126895D+00
  0.331900D+01 -0.170352D+00
  0.905900D+00  0.140382D+00
  0.364300D+00  0.598684D+00
  0.128500D+00  0.395389D+00
   s     1 1.00
  0.905900D+00  0.100000D+01
   s     1 1.00
  0.364300D+00  0.100000D+01
   p     5 1.00
  0.187100D+02  0.140310D-01
  0.413300D+01  0.868660D-01
  0.120000D+01  0.290216D+00
  0.382700D+00  0.501008D+00
  0.120900D+00  0.343406D+00
   p     1 1.00
  0.382700D+00  0.100000D+01
   p     1 1.00
  0.120900D+00  0.100000D+01
   d     1 1.00
  0.109700D+01  0.100000D+01
   d     1 1.00
  0.318000D+00  0.100000D+01
   f     1 1.00
  0.761000D+00  0.100000D+01
  
  6  0
   s    10 1.00
  0.823600D+04  0.531000D-03
  0.123500D+04  0.410800D-02
  0.280800D+03  0.210870D-01
  0.792700D+02  0.818530D-01
  0.255900D+02  0.234817D+00
  0.899700D+01  0.434401D+00
  0.331900D+01  0.346129D+00
  0.905900D+00  0.393780D-01
  0.364300D+00 -0.898300D-02
  0.128500D+00  0.238500D-02
   s    10 1.00
  0.823600D+04 -0.113000D-03
  0.123500D+04 -0.878000D-03
  0.280800D+03 -0.454000D-02
  0.792700D+02 -0.181330D-01
  0.255900D+02 -0.557600D-01
  0.899700D+01 -0.126895D+00
  0.331900D+01 -0.170352D+00
  0.905900D+00  0.140382D+00
  0.364300D+00  0.598684D+00
  0.128500D+00  0.395389D+00
   s     1 1.00
  0.905900D+00  0.100000D+01
   s     1 1.00
  0.364300D+00  0.100000D+01
   p     5 1.00
  0.187100D+02  0.140310D-01
  0.413300D+01  0.868660D-01
  0.120000D+01  0.290216D+00
  0.382700D+00  0.501008D+00
  0.120900D+00  0.343406D+00
   p     1 1.00
  0.382700D+00  0.100000D+01
   p     1 1.00
  0.120900D+00  0.100000D+01
   d     1 1.00
  0.109700D+01  0.100000D+01
   d     1 1.00
  0.318000D+00  0.100000D+01
   f     1 1.00
  0.761000D+00  0.100000D+01
  
  7  0
   s    10 1.00
  0.823600D+04  0.531000D-03
  0.123500D+04  0.410800D-02
  0.280800D+03  0.210870D-01
  0.792700D+02  0.818530D-01
  0.255900D+02  0.234817D+00
  0.899700D+01  0.434401D+00
  0.331900D+01  0.346129D+00
  0.905900D+00  0.393780D-01
  0.364300D+00 -0.898300D-02
  0.128500D+00  0.238500D-02
   s    10 1.00
  0.823600D+04 -0.113000D-03
  0.123500D+04 -0.878000D-03
  0.280800D+03 -0.454000D-02
  0.792700D+02 -0.181330D-01
  0.255900D+02 -0.557600D-01
  0.899700D+01 -0.126895D+00
  0.331900D+01 -0.170352D+00
  0.905900D+00  0.140382D+00
  0.364300D+00  0.598684D+00
  0.128500D+00  0.395389D+00
   s     1 1.00
  0.905900D+00  0.100000D+01
   s     1 1.00
  0.364300D+00  0.100000D+01
   p     5 1.00
  0.187100D+02  0.140310D-01
  0.413300D+01  0.868660D-01
  0.120000D+01  0.290216D+00
  0.382700D+00  0.501008D+00
  0.120900D+00  0.343406D+00
   p     1 1.00
  0.382700D+00  0.100000D+01
   p     1 1.00
  0.120900D+00  0.100000D+01
   d     1 1.00
  0.109700D+01  0.100000D+01
   d     1 1.00
  0.318000D+00  0.100000D+01
   f     1 1.00
  0.761000D+00  0.100000D+01
  
  8  0
   s     4 1.00
  0.130100D+02  0.196850D-01
  0.196200D+01  0.137977D+00
  0.444600D+00  0.478148D+00
  0.122000D+00  0.501240D+00
   s     1 1.00
  0.122000D+00  0.100000D+01
   p     1 1.00
  0.727000D+00  0.100000D+01
  
  9  0
   s     4 1.00
  0.130100D+02  0.196850D-01
  0.196200D+01  0.137977D+00
  0.444600D+00  0.478148D+00
  0.122000D+00  0.501240D+00
   s     1 1.00
  0.122000D+00  0.100000D+01
   p     1 1.00
  0.727000D+00  0.100000D+01
  
 10  0
   s     4 1.00
  0.130100D+02  0.196850D-01
  0.196200D+01  0.137977D+00
  0.444600D+00  0.478148D+00
  0.122000D+00  0.501240D+00
   s     1 1.00
  0.122000D+00  0.100000D+01
   p     1 1.00
  0.727000D+00  0.100000D+01
  
 11  0
   s     4 1.00
  0.130100D+02  0.196850D-01
  0.196200D+01  0.137977D+00
  0.444600D+00  0.478148D+00
  0.122000D+00  0.501240D+00
   s     1 1.00
  0.122000D+00  0.100000D+01
   p     1 1.00
  0.727000D+00  0.100000D+01
  
 12  0
   s     4 1.00
  0.130100D+02  0.196850D-01
  0.196200D+01  0.137977D+00
  0.444600D+00  0.478148D+00
  0.122000D+00  0.501240D+00
   s     1 1.00
  0.122000D+00  0.100000D+01
   p     1 1.00
  0.727000D+00  0.100000D+01
  
 13  0
   s     4 1.00
  0.130100D+02  0.196850D-01
  0.196200D+01  0.137977D+00
  0.444600D+00  0.478148D+00
  0.122000D+00  0.501240D+00
   s     1 1.00
  0.122000D+00  0.100000D+01
   p     1 1.00
  0.727000D+00  0.100000D+01
  
 14  0
   s     4 1.00
  0.130100D+02  0.196850D-01
  0.196200D+01  0.137977D+00
  0.444600D+00  0.478148D+00
  0.122000D+00  0.501240D+00
   s     1 1.00
  0.122000D+00  0.100000D+01
   p     1 1.00
  0.727000D+00  0.100000D+01
  
[MO]
 Sym= __1_a__
 Ene=  0.000000000000000E+000
 Spin= Alpha
 Occup=    2.00000000000000     
                     1 -1.519842723769110E-004
                     2  0.998099007182109     
                     3 -1.785484393363690E-002
                     4  2.038124175668580E-003
                     5  6.576866809571420E-003
                     6  9.813924891157131E-003
                     7 -3.769180488638820E-003
                     8  1.591072354654040E-002
                     9 -1.231876566103640E-003
                    10  3.409859376139620E-004
                    11 -1.406419222596370E-003
                    12 -2.995416042951380E-003
                    13  1.381789292433570E-003
                    14 -4.892659488467510E-003
                    15  1.112235432415460E-004
                    16 -1.366772575530850E-005
                    17 -3.468907502563170E-005
                    18  4.002765320796520E-005
                    19 -2.476622793476910E-005
                    20  3.123013780201169E-004
                    21  6.739987883522690E-004
                    22 -2.175860494265710E-004
                    23  1.998838046718294E-004
                    24 -2.127773929614080E-004
                    25  3.305125655625698E-005
                    26 -7.764667536715922E-005
                    27  3.082878702979430E-005
                    28  1.746766702238266E-005
                    29  1.400015814942480E-005
                    30 -2.457117501717711E-005
                    31 -1.446019617859360E-005
                    32 -3.260947147894250E-004
                    33  1.655156627424350E-004
                    34  2.595454971879570E-004
                    35  8.026049218717649E-005
                    36 -7.295747502717109E-004
                    37 -1.201668968252940E-003
                    38 -7.632604653055480E-004
                    39 -1.891349146628680E-004
                    40 -9.036018030568290E-005
                    41  7.600635174429640E-004
                    42  3.976042641566750E-003
                    43  3.216709367402660E-004
                    44 -2.407968708012700E-003
                    45 -5.695151809058206E-005
                    46 -1.480737702326140E-004
                    47  9.666858070130470E-006
                    48  5.539925991055700E-005
                    49  3.319436013642770E-005
                    50  3.150364628562162E-004
                    51  4.211539837636150E-004
                    52 -4.039322079468030E-005
                    53 -1.151802633536176E-004
                    54 -1.066870570527040E-004
                    55  8.204881590792455E-005
                    56 -1.509659040231807E-005
                    57 -4.767048733901976E-006
                    58  8.821839676557701E-005
                    59 -6.581540438630970E-006
                    60 -3.901774217688010E-005
                    61 -1.893980648168070E-005
                    62 -8.084874824961250E-004
                    63 -1.457787728847110E-003
                    64 -1.135278851012160E-004
                    65  2.942213855651350E-003
                    66 -1.552515721024200E-003
                    67 -6.139258322110809E-004
                    68  2.310010667221880E-004
                    69  7.431567649992009E-004
                    70 -5.345825289270320E-005
                    71  6.372451540843230E-004
                    72  1.320943187617170E-003
                    73  3.235604561047910E-004
                    74 -1.840351153834490E-003
                    75  2.211459891226194E-005
                    76 -5.850705714308140E-005
                    77 -3.021043534179820E-005
                    78  4.897465121954000E-005
                    79  2.002539914447440E-005
                    80  3.284583203351825E-004
                    81 -3.135445817203240E-005
                    82 -8.013642480254840E-005
                    83 -5.526346243494580E-005
                    84  2.389187422098070E-005
                    85 -2.477001960147736E-005
                    86 -1.534129570461433E-004
                    87 -1.276693096231382E-005
                    88  2.529140990435720E-006
                    89  2.542259341548950E-005
                    90 -7.493578562713245E-005
                    91 -3.797390198973289E-006
                    92  5.206865944828960E-005
                    93 -4.962361663987260E-004
                    94  3.206189929273110E-004
                    95 -1.295705008355830E-003
                    96  2.950691247718560E-004
                    97 -5.025378793130990E-004
                    98  5.200627910850930E-004
                    99  8.661094373326460E-005
                   100 -2.756850282389010E-005
                   101  3.941468280215100E-004
                   102 -1.885114995817420E-003
                   103  5.275949213193250E-005
                   104 -3.901641716490280E-005
                   105 -5.314364763494236E-005
                   106 -7.736441628684150E-006
                   107  2.243121373701740E-005
                   108  3.996221638224040E-005
                   109  1.242696142198810E-005
                   110 -5.734357971441904E-005
                   111  9.326701512595381E-006
                   112  4.594061870931160E-005
                   113 -2.021030419379040E-004
                   114 -2.485339134797970E-006
                   115 -3.410193156165012E-005
                   116  4.080968122631404E-005
                   117 -5.904384365348950E-006
                   118 -3.094908467798680E-006
                   119 -1.149134166539140E-005
                   120  5.542515305751603E-006
                   121 -6.203212183418770E-006
                   122 -3.089297937531640E-004
                   123 -1.376203889897900E-003
                   124  1.324255240536370E-004
                   125  7.857089739912539E-004
                   126  5.819687214496010E-004
                   127 -1.104767676020140E-006
                   128 -1.050839428515960E-004
                   129  5.042786391348931E-004
                   130 -2.202623225405320E-005
                   131  3.022261925345340E-004
                   132  1.844462716974460E-003
                   133 -5.684383231884110E-006
                   134  6.089301121456710E-004
                   135  5.107200925535106E-005
                   136 -1.288095076916630E-005
                   137 -3.457597824277190E-006
                   138 -3.842199782151160E-005
                   139  1.086089562493290E-005
                   140  2.322964763001983E-004
                   141  2.514325535108360E-004
                   142  5.874947007998480E-006
                   143 -3.536979595560540E-004
                   144 -1.798013269310870E-005
                   145 -2.458105988458603E-005
                   146 -3.182000902117158E-005
                   147 -5.232692740480076E-006
                   148  6.625475842166780E-009
                   149 -2.660731806388100E-006
                   150 -8.715485453933869E-005
                   151  2.161479461790764E-006
                   152 -1.348447755805430E-004
                   153 -2.329617606023940E-004
                   154 -7.741973335627990E-005
                   155  7.082028363040050E-004
                   156 -7.947404753811410E-005
                   157  3.979341300632140E-005
                   158  5.731629090198940E-006
                   159 -3.193774489853390E-004
                   160 -1.802975966961330E-005
                   161  1.311477129153860E-004
                   162 -5.875032092639140E-004
                   163 -8.406879208929370E-005
                   164  9.164242194431220E-004
                   165 -1.817727012409543E-005
                   166  6.458183633504210E-007
                   167 -1.699065318208460E-006
                   168  2.661919233018460E-005
                   169  1.038684301021480E-005
                   170 -8.069106602603538E-005
                   171  1.899627430085640E-005
                   172  1.425647056818630E-005
                   173  4.443950080768680E-006
                   174  8.087566400942939E-006
                   175 -6.355328678671782E-006
                   176 -5.404438584676762E-006
                   177 -4.522484984077137E-007
                   178 -4.914428612948100E-006
                   179 -1.474489156842420E-006
                   180  6.189870374212962E-006
                   181 -2.355080634660925E-009
                   182 -1.399580143202500E-004
                   183 -3.655932096004510E-004
                   184  3.480720244803860E-005
                   185  2.173916184007130E-004
                   186 -1.013665853933060E-004
                   187  2.083325447987070E-004
                   188 -7.908589200462720E-005
                   189  1.104650661515850E-004
                   190 -3.635971537880050E-005
                   191  3.968989841904990E-004
                   192 -4.664956384659550E-004
                   193 -1.246537143553470E-004
                   194  1.445444454507590E-003
                   195  8.044370379681870E-006
                   196 -2.064812020437940E-006
                   197 -8.690845836194760E-008
                   198 -4.854383428137700E-006
                   199  1.920745079022250E-007
                   200 -9.322138517497637E-005
                   201 -2.761303922915040E-004
                   202  1.273902362388490E-005
                   203  3.396536215407100E-005
                   204  2.697014732212330E-005
                   205  2.190137711460489E-007
                   206  6.397300157470685E-006
                   207 -1.355741540135132E-006
                   208  1.770791227210776E-005
                   209 -1.963095434133730E-006
                   210 -4.264799426202219E-006
                   211 -1.570001597734507E-006
                   212 -2.048686741711780E-003
                   213  6.235884747387499E-004
                   214  1.132604029311040E-004
                   215 -7.334369689458890E-006
                   216  8.738863586020120E-005
                   217 -3.750840293147250E-004
                   218  9.533065029582370E-005
                   219  1.394059991041080E-004
                   220 -4.993263040881810E-005
                   221  6.073279723496330E-006
                   222  3.969426587958420E-004
                   223 -9.424865254252280E-004
                   224 -6.485627100590471E-005
                   225 -1.902180377689460E-005
                   226  8.225117562403490E-005
                   227 -3.342086513745800E-005
                   228 -2.280753382535030E-004
                   229 -3.642558450343000E-005
                   230  2.025060178579930E-006
                   231 -7.321869019331930E-005
                   232  4.058384214885840E-004
                   233 -3.593467220272640E-004
                   234  4.013192656412030E-007
                   235 -1.648775268177510E-006
                   236  2.439564284164630E-005
                   237 -5.149976151251460E-005
                   238 -4.265106200146280E-004
                   239 -3.895144316888970E-006
                   240  1.201208133781030E-006
                   241  1.013861794477410E-005
                   242 -1.458557126533340E-004
                   243  1.779827254446060E-004
                   244  3.113783469526100E-005
                   245  6.025846778730600E-006
                   246 -1.767082940192090E-008
 Sym= __2_a__
 Ene=  0.000000000000000E+000
 Spin= Alpha
 Occup=    2.00000000000000     
                     1 -1.897251121169390E-005
                     2 -5.057624422627050E-005
                     3 -1.660075449769860E-004
                     4 -1.442398905233640E-005
                     5  1.137064245540150E-003
                     6  1.318700361535800E-003
                     7 -2.484510402963490E-004
                     8  6.157594532837540E-004
                     9 -1.570654183117090E-004
                    10  7.092162030018610E-005
                    11 -1.103462166827700E-004
                    12  1.872565621841490E-004
                    13  9.555065147868369E-005
                    14 -1.183590511262170E-004
                    15 -4.679968269826678E-005
                    16  2.589789629759380E-005
                    17  2.100969347030060E-007
                    18  4.845980220844640E-005
                    19 -2.082148432706950E-006
                    20  6.066497401695912E-005
                    21 -6.158778194346520E-005
                    22 -1.123216388030360E-005
                    23  1.026953162434586E-004
                    24 -2.133837117529690E-005
                    25 -3.675296975353320E-005
                    26  1.262108500749661E-004
                    27  1.627060241243590E-005
                    28 -5.663110148492300E-005
                    29 -1.152611174309860E-005
                    30  1.166670561831646E-004
                    31  1.419779547937268E-005
                    32   1.00083796018310     
                    33  8.426557596268369E-003
                    34  2.860609038334710E-003
                    35 -8.432341549167220E-003
                    36 -1.261073206486630E-003
                    37 -1.537846183835270E-005
                    38  1.321739092557250E-004
                    39  8.537237874809120E-004
                    40  9.669100154290419E-006
                    41 -4.201268153086960E-004
                    42  2.456194293633890E-003
                    43 -5.228390200692620E-005
                    44  3.104744716379560E-004
                    45  3.210991570956453E-004
                    46 -8.220482293742330E-006
                    47 -8.792147625663110E-005
                    48  3.120536835524240E-004
                    49  1.133419565178110E-005
                    50 -9.818508740169994E-004
                    51 -3.603922479712430E-004
                    52  1.942737746451980E-004
                    53 -1.466955283169630E-004
                    54  3.494023395031570E-005
                    55 -2.146593450144544E-005
                    56  2.540846411778608E-004
                    57 -4.190452581478324E-007
                    58 -3.199695208213980E-005
                    59 -3.520557551830740E-005
                    60  6.506527756741817E-005
                    61  3.602465052447293E-006
                    62  1.618441324604510E-002
                    63 -1.413105612276310E-003
                    64 -2.876061546890570E-004
                    65  2.752159892220060E-003
                    66 -3.712271369646960E-004
                    67 -7.838929487106771E-005
                    68  4.580213655168260E-004
                    69  3.939412721198580E-005
                    70 -3.498000681337360E-005
                    71  2.840073640013760E-004
                    72  2.084399892260940E-004
                    73  2.243083334467610E-004
                    74 -1.737066017111330E-003
                    75  1.313182399447003E-005
                    76  2.549192335033300E-005
                    77  1.106987317171710E-006
                    78 -4.904809765701380E-005
                    79 -3.298615641380830E-006
                    80 -5.392891574312107E-004
                    81 -3.759512371704180E-004
                    82  1.364366658980580E-005
                    83  8.085619510257200E-004
                    84  6.889848388717151E-005
                    85  3.404816559858784E-005
                    86  1.053758709805346E-004
                    87  1.751436693091047E-005
                    88 -2.974310368159980E-005
                    89 -2.399330078029640E-005
                    90 -2.625541514455076E-005
                    91  5.556792166863967E-006
                    92  1.875219516488930E-002
                    93 -1.678069155923550E-003
                    94 -3.399899298857920E-004
                    95  3.373839780155310E-003
                    96 -2.833715100956770E-004
                    97  1.385103168187370E-005
                    98 -3.652237362090550E-004
                    99 -1.208815558794080E-004
                   100  8.321335913506850E-005
                   101 -7.899458954199810E-004
                   102  3.699103278038580E-004
                   103 -1.333527667864000E-004
                   104  1.520549411608940E-003
                   105  1.132182401812413E-005
                   106 -2.409311886105690E-006
                   107  2.021129968103540E-006
                   108 -2.401784243407800E-005
                   109  1.122895113247660E-007
                   110 -1.617114917018111E-004
                   111  5.126127629079470E-004
                   112 -3.292283519934000E-005
                   113  6.120232008718720E-004
                   114 -3.570350448294080E-005
                   115 -4.498790545129851E-005
                   116  8.387351259744453E-005
                   117 -1.179089677364373E-005
                   118  1.813014831235348E-005
                   119 -1.487711431432660E-005
                   120 -2.876188729212597E-005
                   121 -8.117823240980585E-007
                   122 -5.803213671512120E-005
                   123 -7.546786654940090E-004
                   124  2.449312142949540E-004
                   125 -4.107226385821670E-004
                   126 -4.730486472368330E-005
                   127  7.092316105414310E-006
                   128 -5.688057706922250E-005
                   129  6.243539678707990E-004
                   130  5.286054493185990E-006
                   131  5.807641311881620E-005
                   132  2.995678366459010E-004
                   133 -4.489433125858270E-005
                   134  4.017596257855920E-004
                   135  2.234219694377699E-006
                   136  3.497739305716390E-005
                   137  4.777115907814510E-006
                   138 -4.032997414655860E-005
                   139 -5.236221968585940E-006
                   140  1.871128260573935E-004
                   141 -2.944522744480510E-004
                   142 -1.669920450660040E-005
                   143 -2.225196484209340E-004
                   144  2.580511183849580E-005
                   145 -7.817974902263528E-006
                   146  1.123931545306876E-005
                   147 -1.726868978622216E-006
                   148 -9.939615269122459E-007
                   149 -4.134285306279460E-006
                   150 -1.963005847855466E-005
                   151  1.471569311944565E-006
                   152  2.217976101918790E-005
                   153 -7.916625292410169E-004
                   154  2.284038112129980E-004
                   155 -1.328301112275120E-004
                   156 -7.477308523834961E-005
                   157 -4.988023470608390E-006
                   158  4.096361283484950E-005
                   159  4.765825941440710E-004
                   160  1.544619465313470E-005