[Molden Format]
[Atoms] AU
  N     1    7    -4.5063519500   -0.0295326700   -0.3894262400        
  C     2    6    -1.7522533800   -0.0555591400   -0.1707948200        
  C     3    6    -0.3532156500    0.2166010200   -2.3747485800        
  C     4    6    -0.4788622400   -0.2726636800    2.1262171000        
  C     5    6     2.2636958200    0.2524148200   -2.2885539200        
  C     6    6     2.1331584100   -0.2195779500    2.2043275900        
  C     7    6     3.5107938900    0.0398850900   -0.0042903200        
  H     8    1    -5.0897336200   -1.8216425900    0.1990695800        
  H     9    1    -5.1046976800    1.0164794600    1.1272935100        
  H    10    1    -1.3322010600    0.4076012000   -4.1366529000        
  H    11    1    -1.5377870000   -0.4882612300    3.8430115400        
  H    12    1     3.3245617500    0.4612986600   -4.0047258200        
  H    13    1     3.0915366000   -0.3875401400    3.9851011400        
  H    14    1     5.5384274100    0.0767618100    0.0590707000        
[5D]
[7F]
[GTO]
  1  0
   s    12 1.00
  0.114200D+05  0.172695D-04
  0.171200D+04  0.134411D-03
  0.389300D+03  0.694561D-03
  0.110000D+03  0.278531D-02
  0.355700D+02  0.863457D-02
  0.125400D+02  0.199805D-01
  0.464400D+01  0.262908D-01
  0.129300D+01 -0.243845D-01
  0.511800D+00 -0.924934D-01
  0.178700D+00 -0.339683D+00
  0.246240D-01  0.345111D+00
  0.112530D-01  0.752750D+00
   s    10 1.00
  0.114200D+05  0.523000D-03
  0.171200D+04  0.404500D-02
  0.389300D+03  0.207750D-01
  0.110000D+03  0.807269D-01
  0.355700D+02  0.233074D+00
  0.125400D+02  0.433501D+00
  0.464400D+01  0.347472D+00
  0.129300D+01  0.412620D-01
  0.511800D+00 -0.850799D-02
  0.178700D+00  0.238400D-02
   s    10 1.00
  0.114200D+05 -0.115000D-03
  0.171200D+04 -0.895000D-03
  0.389300D+03 -0.462400D-02
  0.110000D+03 -0.185280D-01
  0.355700D+02 -0.573390D-01
  0.125400D+02 -0.132076D+00
  0.464400D+01 -0.172510D+00
  0.129300D+01  0.151814D+00
  0.511800D+00  0.599944D+00
  0.178700D+00  0.387462D+00
   s     1 1.00
  0.129300D+01  0.100000D+01
   s     1 1.00
  0.178700D+00  0.100000D+01
   p     5 1.00
  0.266300D+02  0.146700D-01
  0.594800D+01  0.917640D-01
  0.174200D+01  0.298683D+00
  0.555000D+00  0.498487D+00
  0.172500D+00  0.337023D+00
   p     1 1.00
  0.174200D+01  0.100000D+01
   p     1 1.00
  0.555000D+00  0.100000D+01
   d     1 1.00
  0.165400D+01  0.100000D+01
   d     1 1.00
  0.469000D+00  0.100000D+01
   f     1 1.00
  0.109300D+01  0.100000D+01
  
  2  0
   s    10 1.00
  0.823600D+04  0.531000D-03
  0.123500D+04  0.410800D-02
  0.280800D+03  0.210870D-01
  0.792700D+02  0.818530D-01
  0.255900D+02  0.234817D+00
  0.899700D+01  0.434401D+00
  0.331900D+01  0.346129D+00
  0.905900D+00  0.393780D-01
  0.364300D+00 -0.898300D-02
  0.128500D+00  0.238500D-02
   s    10 1.00
  0.823600D+04 -0.113000D-03
  0.123500D+04 -0.878000D-03
  0.280800D+03 -0.454000D-02
  0.792700D+02 -0.181330D-01
  0.255900D+02 -0.557600D-01
  0.899700D+01 -0.126895D+00
  0.331900D+01 -0.170352D+00
  0.905900D+00  0.140382D+00
  0.364300D+00  0.598684D+00
  0.128500D+00  0.395389D+00
   s     1 1.00
  0.905900D+00  0.100000D+01
   s     1 1.00
  0.364300D+00  0.100000D+01
   p     5 1.00
  0.187100D+02  0.140310D-01
  0.413300D+01  0.868660D-01
  0.120000D+01  0.290216D+00
  0.382700D+00  0.501008D+00
  0.120900D+00  0.343406D+00
   p     1 1.00
  0.382700D+00  0.100000D+01
   p     1 1.00
  0.120900D+00  0.100000D+01
   d     1 1.00
  0.109700D+01  0.100000D+01
   d     1 1.00
  0.318000D+00  0.100000D+01
   f     1 1.00
  0.761000D+00  0.100000D+01
  
  3  0
   s    10 1.00
  0.823600D+04  0.531000D-03
  0.123500D+04  0.410800D-02
  0.280800D+03  0.210870D-01
  0.792700D+02  0.818530D-01
  0.255900D+02  0.234817D+00
  0.899700D+01  0.434401D+00
  0.331900D+01  0.346129D+00
  0.905900D+00  0.393780D-01
  0.364300D+00 -0.898300D-02
  0.128500D+00  0.238500D-02
   s    10 1.00
  0.823600D+04 -0.113000D-03
  0.123500D+04 -0.878000D-03
  0.280800D+03 -0.454000D-02
  0.792700D+02 -0.181330D-01
  0.255900D+02 -0.557600D-01
  0.899700D+01 -0.126895D+00
  0.331900D+01 -0.170352D+00
  0.905900D+00  0.140382D+00
  0.364300D+00  0.598684D+00
  0.128500D+00  0.395389D+00
   s     1 1.00
  0.905900D+00  0.100000D+01
   s     1 1.00
  0.364300D+00  0.100000D+01
   p     5 1.00
  0.187100D+02  0.140310D-01
  0.413300D+01  0.868660D-01
  0.120000D+01  0.290216D+00
  0.382700D+00  0.501008D+00
  0.120900D+00  0.343406D+00
   p     1 1.00
  0.382700D+00  0.100000D+01
   p     1 1.00
  0.120900D+00  0.100000D+01
   d     1 1.00
  0.109700D+01  0.100000D+01
   d     1 1.00
  0.318000D+00  0.100000D+01
   f     1 1.00
  0.761000D+00  0.100000D+01
  
  4  0
   s    10 1.00
  0.823600D+04  0.531000D-03
  0.123500D+04  0.410800D-02
  0.280800D+03  0.210870D-01
  0.792700D+02  0.818530D-01
  0.255900D+02  0.234817D+00
  0.899700D+01  0.434401D+00
  0.331900D+01  0.346129D+00
  0.905900D+00  0.393780D-01
  0.364300D+00 -0.898300D-02
  0.128500D+00  0.238500D-02
   s    10 1.00
  0.823600D+04 -0.113000D-03
  0.123500D+04 -0.878000D-03
  0.280800D+03 -0.454000D-02
  0.792700D+02 -0.181330D-01
  0.255900D+02 -0.557600D-01
  0.899700D+01 -0.126895D+00
  0.331900D+01 -0.170352D+00
  0.905900D+00  0.140382D+00
  0.364300D+00  0.598684D+00
  0.128500D+00  0.395389D+00
   s     1 1.00
  0.905900D+00  0.100000D+01
   s     1 1.00
  0.364300D+00  0.100000D+01
   p     5 1.00
  0.187100D+02  0.140310D-01
  0.413300D+01  0.868660D-01
  0.120000D+01  0.290216D+00
  0.382700D+00  0.501008D+00
  0.120900D+00  0.343406D+00
   p     1 1.00
  0.382700D+00  0.100000D+01
   p     1 1.00
  0.120900D+00  0.100000D+01
   d     1 1.00
  0.109700D+01  0.100000D+01
   d     1 1.00
  0.318000D+00  0.100000D+01
   f     1 1.00
  0.761000D+00  0.100000D+01
  
  5  0
   s    10 1.00
  0.823600D+04  0.531000D-03
  0.123500D+04  0.410800D-02
  0.280800D+03  0.210870D-01
  0.792700D+02  0.818530D-01
  0.255900D+02  0.234817D+00
  0.899700D+01  0.434401D+00
  0.331900D+01  0.346129D+00
  0.905900D+00  0.393780D-01
  0.364300D+00 -0.898300D-02
  0.128500D+00  0.238500D-02
   s    10 1.00
  0.823600D+04 -0.113000D-03
  0.123500D+04 -0.878000D-03
  0.280800D+03 -0.454000D-02
  0.792700D+02 -0.181330D-01
  0.255900D+02 -0.557600D-01
  0.899700D+01 -0.126895D+00
  0.331900D+01 -0.170352D+00
  0.905900D+00  0.140382D+00
  0.364300D+00  0.598684D+00
  0.128500D+00  0.395389D+00
   s     1 1.00
  0.905900D+00  0.100000D+01
   s     1 1.00
  0.364300D+00  0.100000D+01
   p     5 1.00
  0.187100D+02  0.140310D-01
  0.413300D+01  0.868660D-01
  0.120000D+01  0.290216D+00
  0.382700D+00  0.501008D+00
  0.120900D+00  0.343406D+00
   p     1 1.00
  0.382700D+00  0.100000D+01
   p     1 1.00
  0.120900D+00  0.100000D+01
   d     1 1.00
  0.109700D+01  0.100000D+01
   d     1 1.00
  0.318000D+00  0.100000D+01
   f     1 1.00
  0.761000D+00  0.100000D+01
  
  6  0
   s    10 1.00
  0.823600D+04  0.531000D-03
  0.123500D+04  0.410800D-02
  0.280800D+03  0.210870D-01
  0.792700D+02  0.818530D-01
  0.255900D+02  0.234817D+00
  0.899700D+01  0.434401D+00
  0.331900D+01  0.346129D+00
  0.905900D+00  0.393780D-01
  0.364300D+00 -0.898300D-02
  0.128500D+00  0.238500D-02
   s    10 1.00
  0.823600D+04 -0.113000D-03
  0.123500D+04 -0.878000D-03
  0.280800D+03 -0.454000D-02
  0.792700D+02 -0.181330D-01
  0.255900D+02 -0.557600D-01
  0.899700D+01 -0.126895D+00
  0.331900D+01 -0.170352D+00
  0.905900D+00  0.140382D+00
  0.364300D+00  0.598684D+00
  0.128500D+00  0.395389D+00
   s     1 1.00
  0.905900D+00  0.100000D+01
   s     1 1.00
  0.364300D+00  0.100000D+01
   p     5 1.00
  0.187100D+02  0.140310D-01
  0.413300D+01  0.868660D-01
  0.120000D+01  0.290216D+00
  0.382700D+00  0.501008D+00
  0.120900D+00  0.343406D+00
   p     1 1.00
  0.382700D+00  0.100000D+01
   p     1 1.00
  0.120900D+00  0.100000D+01
   d     1 1.00
  0.109700D+01  0.100000D+01
   d     1 1.00
  0.318000D+00  0.100000D+01
   f     1 1.00
  0.761000D+00  0.100000D+01
  
  7  0
   s    10 1.00
  0.823600D+04  0.531000D-03
  0.123500D+04  0.410800D-02
  0.280800D+03  0.210870D-01
  0.792700D+02  0.818530D-01
  0.255900D+02  0.234817D+00
  0.899700D+01  0.434401D+00
  0.331900D+01  0.346129D+00
  0.905900D+00  0.393780D-01
  0.364300D+00 -0.898300D-02
  0.128500D+00  0.238500D-02
   s    10 1.00
  0.823600D+04 -0.113000D-03
  0.123500D+04 -0.878000D-03
  0.280800D+03 -0.454000D-02
  0.792700D+02 -0.181330D-01
  0.255900D+02 -0.557600D-01
  0.899700D+01 -0.126895D+00
  0.331900D+01 -0.170352D+00
  0.905900D+00  0.140382D+00
  0.364300D+00  0.598684D+00
  0.128500D+00  0.395389D+00
   s     1 1.00
  0.905900D+00  0.100000D+01
   s     1 1.00
  0.364300D+00  0.100000D+01
   p     5 1.00
  0.187100D+02  0.140310D-01
  0.413300D+01  0.868660D-01
  0.120000D+01  0.290216D+00
  0.382700D+00  0.501008D+00
  0.120900D+00  0.343406D+00
   p     1 1.00
  0.382700D+00  0.100000D+01
   p     1 1.00
  0.120900D+00  0.100000D+01
   d     1 1.00
  0.109700D+01  0.100000D+01
   d     1 1.00
  0.318000D+00  0.100000D+01
   f     1 1.00
  0.761000D+00  0.100000D+01
  
  8  0
   s     4 1.00
  0.130100D+02  0.196850D-01
  0.196200D+01  0.137977D+00
  0.444600D+00  0.478148D+00
  0.122000D+00  0.501240D+00
   s     1 1.00
  0.122000D+00  0.100000D+01
   p     1 1.00
  0.727000D+00  0.100000D+01
  
  9  0
   s     4 1.00
  0.130100D+02  0.196850D-01
  0.196200D+01  0.137977D+00
  0.444600D+00  0.478148D+00
  0.122000D+00  0.501240D+00
   s     1 1.00
  0.122000D+00  0.100000D+01
   p     1 1.00
  0.727000D+00  0.100000D+01
  
 10  0
   s     4 1.00
  0.130100D+02  0.196850D-01
  0.196200D+01  0.137977D+00
  0.444600D+00  0.478148D+00
  0.122000D+00  0.501240D+00
   s     1 1.00
  0.122000D+00  0.100000D+01
   p     1 1.00
  0.727000D+00  0.100000D+01
  
 11  0
   s     4 1.00
  0.130100D+02  0.196850D-01
  0.196200D+01  0.137977D+00
  0.444600D+00  0.478148D+00
  0.122000D+00  0.501240D+00
   s     1 1.00
  0.122000D+00  0.100000D+01
   p     1 1.00
  0.727000D+00  0.100000D+01
  
 12  0
   s     4 1.00
  0.130100D+02  0.196850D-01
  0.196200D+01  0.137977D+00
  0.444600D+00  0.478148D+00
  0.122000D+00  0.501240D+00
   s     1 1.00
  0.122000D+00  0.100000D+01
   p     1 1.00
  0.727000D+00  0.100000D+01
  
 13  0
   s     4 1.00
  0.130100D+02  0.196850D-01
  0.196200D+01  0.137977D+00
  0.444600D+00  0.478148D+00
  0.122000D+00  0.501240D+00
   s     1 1.00
  0.122000D+00  0.100000D+01
   p     1 1.00
  0.727000D+00  0.100000D+01
  
 14  0
   s     4 1.00
  0.130100D+02  0.196850D-01
  0.196200D+01  0.137977D+00
  0.444600D+00  0.478148D+00
  0.122000D+00  0.501240D+00
   s     1 1.00
  0.122000D+00  0.100000D+01
   p     1 1.00
  0.727000D+00  0.100000D+01
  
[MO]
 Sym= __1_A__
 Ene=  0.000000000000000E+000
 Spin= Alpha
 Occup=    2.00000000000000     
                     1 -1.519842734501390E-004
                     2  0.998099007183263     
                     3 -1.785484393746293E-002
                     4  2.038124175618834E-003
                     5  6.576866810071159E-003
                     6  9.813924894768455E-003
                     7 -3.769180489386842E-003
                     8  1.591072354927121E-002
                     9 -1.231876566998609E-003
                    10  3.409859376926200E-004
                    11 -1.406419223077346E-003
                    12 -2.995416042830188E-003
                    13  1.381789292496295E-003
                    14 -4.892659488756457E-003
                    15  1.112235433069109E-004
                    16 -1.366772567442777E-005
                    17 -3.468907503169332E-005
                    18  4.002765305551376E-005
                    19 -2.476622795945568E-005
                    20  3.123013782786425E-004
                    21  6.739987883214397E-004
                    22 -2.175860493742031E-004
                    23  1.998838039352582E-004
                    24 -2.127773929979472E-004
                    25  3.305125656656152E-005
                    26 -7.764667538144456E-005
                    27  3.082878700937551E-005
                    28  1.746766705203335E-005
                    29  1.400015817744460E-005
                    30 -2.457117487707986E-005
                    31 -1.446019619376096E-005
                    32 -3.260947378348181E-004
                    33  1.655155497637386E-004
                    34  2.595454980130559E-004
                    35  8.026049992647628E-005
                    36 -7.295747879491393E-004
                    37 -1.201668969534937E-003
                    38 -7.632604640746921E-004
                    39 -1.891349136138166E-004
                    40 -9.036018023549723E-005
                    41  7.600635172201190E-004
                    42  3.976042632338746E-003
                    43  3.216709364391232E-004
                    44 -2.407968707233784E-003
                    45 -5.695152135701871E-005
                    46 -1.480737699819826E-004
                    47  9.666858690356068E-006
                    48  5.539925986485834E-005
                    49  3.319436010052397E-005
                    50  3.150364605662197E-004
                    51  4.211539843328813E-004
                    52 -4.039322019231704E-005
                    53 -1.151802653882772E-004
                    54 -1.066870572817785E-004
                    55  8.204881609462977E-005
                    56 -1.509659235190016E-005
                    57 -4.767048764760863E-006
                    58  8.821839693778309E-005
                    59 -6.581540097161613E-006
                    60 -3.901774228263204E-005
                    61 -1.893980652148251E-005
                    62 -8.084874823613842E-004
                    63 -1.457787751128537E-003
                    64 -1.135278852659742E-004
                    65  2.942213855718947E-003
                    66 -1.552515642464457E-003
                    67 -6.139258282174801E-004
                    68  2.310010404679787E-004
                    69  7.431567559171069E-004
                    70 -5.345825316144153E-005
                    71  6.372451553034090E-004
                    72  1.320943166628173E-003
                    73  3.235604537415887E-004
                    74 -1.840351135490677E-003
                    75  2.211459650285353E-005
                    76 -5.850705596827426E-005
                    77 -3.021043495544296E-005
                    78  4.897465218499784E-005
                    79  2.002539904411811E-005
                    80  3.284583199902179E-004
                    81 -3.135445483144850E-005
                    82 -8.013642461055838E-005
                    83 -5.526346292842222E-005
                    84  2.389187373992990E-005
                    85 -2.477001947740970E-005
                    86 -1.534129565226876E-004
                    87 -1.276693086605168E-005
                    88  2.529140740964950E-006
                    89  2.542259325647500E-005
                    90 -7.493578600151481E-005
                    91 -3.797390143739959E-006
                    92  5.206866284866561E-005
                    93 -4.962361882413377E-004
                    94  3.206189929846540E-004
                    95 -1.295705009032348E-003
                    96  2.950692050587546E-004
                    97 -5.025378800769658E-004
                    98  5.200628151027654E-004
                    99  8.661093447514891E-005
                   100 -2.756850298945941E-005
                   101  3.941468273400628E-004
                   102 -1.885115013685492E-003
                   103  5.275949376594688E-005
                   104 -3.901643566962740E-005
                   105 -5.314365028119450E-005
                   106 -7.736442320930554E-006
                   107  2.243121411279314E-005
                   108  3.996221747507936E-005
                   109  1.242696155737563E-005
                   110 -5.734358000551650E-005
                   111  9.326698059537410E-006
                   112  4.594061873781327E-005
                   113 -2.021030424795080E-004
                   114 -2.485338769069062E-006
                   115 -3.410193178654014E-005
                   116  4.080968167395347E-005
                   117 -5.904384443915444E-006
                   118 -3.094908309532290E-006
                   119 -1.149134178740353E-005
                   120  5.542514934915232E-006
                   121 -6.203212178596974E-006
                   122 -3.089297927828786E-004
                   123 -1.376203859252480E-003
                   124  1.324255228458857E-004
                   125  7.857089725342152E-004
                   126  5.819686669140635E-004
                   127 -1.104769243122925E-006
                   128 -1.050839381457614E-004
                   129  5.042786406008843E-004
                   130 -2.202623196771722E-005
                   131  3.022261904477605E-004
                   132  1.844462714829544E-003
                   133 -5.684383167807267E-006
                   134  6.089301111039693E-004
                   135  5.107200819587346E-005
                   136 -1.288095016883497E-005
                   137 -3.457597742217997E-006
                   138 -3.842199656692512E-005
                   139  1.086089560970806E-005
                   140  2.322964746601591E-004
                   141  2.514325538164295E-004
                   142  5.874947064595155E-006
                   143 -3.536979572375412E-004
                   144 -1.798013266592479E-005
                   145 -2.458106012124493E-005
                   146 -3.182000858900055E-005
                   147 -5.232692763769714E-006
                   148  6.625280670325202E-009
                   149 -2.660731801626108E-006
                   150 -8.715485387954759E-005
                   151  2.161479454646476E-006
                   152 -1.348447746922744E-004
                   153 -2.329617274990663E-004
                   154 -7.741973472209204E-005
                   155  7.082028355914924E-004
                   156 -7.947410356777978E-005
                   157  3.979341320455468E-005
                   158  5.731617244380542E-006
                   159 -3.193774476014353E-004
                   160 -1.802975986503660E-005
                   161  1.311477150938794E-004
                   162 -5.875032079635816E-004
                   163 -8.406879225795475E-005
                   164  9.164242209294893E-004
                   165 -1.817727129608182E-005
                   166  6.458179404176774E-007
                   167 -1.699065265755023E-006
                   168  2.661919373017932E-005
                   169  1.038684312196788E-005
                   170 -8.069106766636873E-005
                   171  1.899627414571245E-005
                   172  1.425647062248717E-005
                   173  4.443952460544336E-006
                   174  8.087566556220116E-006
                   175 -6.355328528257706E-006
                   176 -5.404438031647325E-006
                   177 -4.522484514548152E-007
                   178 -4.914428567089176E-006
                   179 -1.474489164243617E-006
                   180  6.189871050591422E-006
                   181 -2.355132330232996E-009
                   182 -1.399580138771776E-004
                   183 -3.655932088768250E-004
                   184  3.480720228527518E-005
                   185  2.173916173570097E-004
                   186 -1.013665824392641E-004
                   187  2.083325449256328E-004
                   188 -7.908589029835402E-005
                   189  1.104650648086545E-004
                   190 -3.635971535327507E-005
                   191  3.968989837967728E-004
                   192 -4.664956307818126E-004
                   193 -1.246537139606807E-004
                   194  1.445444452589680E-003
                   195  8.044369217193954E-006
                   196 -2.064812022825551E-006
                   197 -8.690832436350875E-008
                   198 -4.854382676810888E-006
                   199  1.920745363240392E-007
                   200 -9.322138588419498E-005
                   201 -2.761303921754907E-004
                   202  1.273902379451499E-005
                   203  3.396536177118982E-005
                   204  2.697014728611765E-005
                   205  2.190137757752992E-007
                   206  6.397300341666508E-006
                   207 -1.355741531764256E-006
                   208  1.770791226917306E-005
                   209 -1.963095453796309E-006
                   210 -4.264799339348665E-006
                   211 -1.570001600826752E-006
                   212 -2.048686743781324E-003
                   213  6.235884735505718E-004
                   214  1.132604030397473E-004
                   215 -7.334369797123626E-006
                   216  8.738863588880571E-005
                   217 -3.750840318317516E-004
                   218  9.533064905406430E-005
                   219  1.394059991464829E-004
                   220 -4.993263028724784E-005
                   221  6.073279817023574E-006
                   222  3.969426321872895E-004
                   223 -9.424865098221920E-004
                   224 -6.485627099451555E-005
                   225 -1.902180354862719E-005
                   226  8.225117365766623E-005
                   227 -3.342089916461936E-005
                   228 -2.280753196151334E-004
                   229 -3.642558478459299E-005
                   230  2.025059912491206E-006
                   231 -7.321868790029127E-005
                   232  4.058383992663190E-004
                   233 -3.593467131780376E-004
                   234  4.013192155849313E-007
                   235 -1.648775145042044E-006
                   236  2.439564172006548E-005
                   237 -5.149978632761005E-005
                   238 -4.265106111525465E-004
                   239 -3.895144368754427E-006
                   240  1.201208004795227E-006
                   241  1.013861916933085E-005
                   242 -1.458557009313301E-004
                   243  1.779827243692969E-004
                   244  3.113783411729868E-005
                   245  6.025846770300790E-006
                   246 -1.767082830674485E-008
 Sym= __2_A__
 Ene=  0.000000000000000E+000
 Spin= Alpha
 Occup=    2.00000000000000     
                     1 -1.897251126843323E-005
                     2 -5.057621863281652E-005
                     3 -1.660075456178886E-004
                     4 -1.442398900806961E-005
                     5  1.137064245739686E-003
                     6  1.318700361944715E-003
                     7 -2.484510404543600E-004
                     8  6.157594538434367E-004
                     9 -1.570654183745654E-004
                    10  7.092162031815479E-005
                    11 -1.103462167262776E-004
                    12  1.872565621480436E-004
                    13  9.555065152163758E-005
                    14 -1.183590513009005E-004
                    15 -4.679968268938119E-005
                    16  2.589789630920201E-005
                    17  2.100969322944646E-007
                    18  4.845980220422908E-005
                    19 -2.082148435330309E-006
                    20  6.066497401582084E-005
                    21 -6.158778194299045E-005
                    22 -1.123216388210441E-005
                    23  1.026953162059394E-004
                    24 -2.133837117791837E-005
                    25 -3.675296975458983E-005
                    26  1.262108500658562E-004
                    27  1.627060241320392E-005
                    28 -5.663110148825648E-005
                    29 -1.152611173918563E-005
                    30  1.166670561913104E-004
                    31  1.419779547979323E-005
                    32   1.00083796018004     
                    33  8.426557590621213E-003
                    34  2.860609038307665E-003
                    35 -8.432341548277912E-003
                    36 -1.261073208339143E-003
                    37 -1.537846204335540E-005
                    38  1.321739105444654E-004
                    39  8.537237876266005E-004
                    40  9.669100155535441E-006
                    41 -4.201268152681682E-004
                    42  2.456194293154359E-003
                    43 -5.228390195479821E-005
                    44  3.104744710431988E-004
                    45  3.210991569301334E-004
                    46 -8.220482241373778E-006
                    47 -8.792147622413527E-005
                    48  3.120536835491796E-004
                    49  1.133419564658151E-005
                    50 -9.818508739472670E-004
                    51 -3.603922480129023E-004
                    52  1.942737746425283E-004
                    53 -1.466955284265923E-004
                    54  3.494023394547768E-005
                    55 -2.146593448429313E-005
                    56  2.540846410693448E-004
                    57 -4.190452558132263E-007
                    58 -3.199695208323324E-005
                    59 -3.520557550111001E-005
                    60  6.506527755816885E-005
                    61  3.602465051939387E-006
                    62  1.618441318667645E-002
                    63 -1.413105614410587E-003
                    64 -2.876061548293215E-004
                    65  2.752159892714250E-003
                    66 -3.712271326096369E-004
                    67 -7.838929461330336E-005
                    68  4.580213637866100E-004
                    69  3.939412690080241E-005
                    70 -3.498000682159265E-005
                    71  2.840073640217069E-004
                    72  2.084399882208144E-004
                    73  2.243083333449709E-004
                    74 -1.737066016318743E-003
                    75  1.313182384316324E-005
                    76  2.549192343478051E-005
                    77  1.106987345791996E-006
                    78 -4.904809763548918E-005
                    79 -3.298615649720581E-006
                    80 -5.392891574686833E-004
                    81 -3.759512369560833E-004
                    82  1.364366660358478E-005
                    83  8.085619510172594E-004
                    84  6.889848385538377E-005
                    85  3.404816560418267E-005
                    86  1.053758710243958E-004
                    87  1.751436693671447E-005
                    88 -2.974310369803678E-005
                    89 -2.399330079288713E-005
                    90 -2.625541517145776E-005
                    91  5.556792170611697E-006
                    92  1.875219537538192E-002
                    93 -1.678069154804593E-003
                    94 -3.399899292202823E-004
                    95  3.373839778244144E-003
                    96 -2.833715065622599E-004
                    97  1.385103171329350E-005
                    98 -3.652237357120620E-004
                    99 -1.208815564216689E-004
                   100  8.321335910383906E-005
                   101 -7.899458953074583E-004
                   102  3.699103270341692E-004
                   103 -1.333527666883359E-004
                   104  1.520549410560503E-003
                   105  1.132182393526847E-005
                   106 -2.409311874078847E-006
                   107  2.021129969300264E-006
                   108 -2.401784229018236E-005
                   109  1.122895175674227E-007
                   110 -1.617114916309456E-004
                   111  5.126127625468240E-004
                   112 -3.292283519956546E-005
                   113  6.120232006755170E-004
                   114 -3.570350445264253E-005
                   115 -4.498790546541577E-005
                   116  8.387351255695188E-005
                   117 -1.179089678155796E-005
                   118  1.813014832984071E-005
                   119 -1.487711430922785E-005
                   120 -2.876188731078942E-005
                   121 -8.117823255549210E-007
                   122 -5.803213871403531E-005
                   123 -7.546786640423674E-004
                   124  2.449312142515439E-004
                   125 -4.107226386421206E-004
                   126 -4.730486767453021E-005
                   127  7.092316013420336E-006
                   128 -5.688057673598352E-005
                   129  6.243539680518161E-004
                   130  5.286054513801197E-006
                   131  5.807641298659399E-005
                   132  2.995678366458505E-004
                   133 -4.489433125684590E-005
                   134  4.017596257562869E-004
                   135  2.234219636498995E-006
                   136  3.497739309811757E-005
                   137  4.777115912714712E-006
                   138 -4.032997408017476E-005
                   139 -5.236221970400872E-006
                   140  1.871128259860828E-004
                   141 -2.944522744472966E-004
                   142 -1.669920450355525E-005
                   143 -2.225196483321270E-004
                   144  2.580511183912987E-005
                   145 -7.817974914237586E-006
                   146  1.123931548579716E-005
                   147 -1.726868979017839E-006
                   148 -9.939615405683917E-007
                   149 -4.134285307418515E-006
                   150 -1.963005844035195E-005
                   151  1.471569312146183E-006
                   152  2.217976927435768E-005
                   153 -7.916625279696435E-004
                   154  2.284038110829368E-004
                   155 -1.328301106603176E-004
                   156 -7.477308790549152E-005
                   157 -4.988023470208286E-006
                   158  4.096361237635335E-005
                   159  4.765825940140592E-004
                   160  1.544619464448946E-005