[Molden Format]
[Atoms] AU
  N     1    7     0.0000000000   -4.2907334100    0.0000000000        
  C     2    6     0.0000000000   -1.7772236300    0.0000000000        
  C     3    6    -2.3389203600   -0.4111016300    0.0000000000        
  C     4    6     2.3389203600   -0.4111016300    0.0000000000        
  C     5    6    -2.2998668500    2.1639215300    0.0000000000        
  C     6    6     2.2998668500    2.1639215300    0.0000000000        
  C     7    6     0.0000000000    3.4755251800    0.0000000000        
  H     8    1    -2.2516208400   -5.6797945000    0.0000000000        
  H     9    1     1.6528040300   -5.3103747800    0.0000000000        
  H    10    1    -4.0745407300   -1.4447408500    0.0000000000        
  H    11    1     4.0745407300   -1.4447408500    0.0000000000        
  H    12    1    -4.0420632100    3.1963889500    0.0000000000        
  H    13    1     4.0420632100    3.1963889500    0.0000000000        
  H    14    1     0.0000000000    5.5020335600    0.0000000000        
[5D]
[7F]
[GTO]
  1  0
   s    12 1.00
  0.114200D+05  0.172695D-04
  0.171200D+04  0.134411D-03
  0.389300D+03  0.694561D-03
  0.110000D+03  0.278531D-02
  0.355700D+02  0.863457D-02
  0.125400D+02  0.199805D-01
  0.464400D+01  0.262908D-01
  0.129300D+01 -0.243845D-01
  0.511800D+00 -0.924934D-01
  0.178700D+00 -0.339683D+00
  0.246240D-01  0.345111D+00
  0.112530D-01  0.752750D+00
   s    10 1.00
  0.114200D+05  0.523000D-03
  0.171200D+04  0.404500D-02
  0.389300D+03  0.207750D-01
  0.110000D+03  0.807269D-01
  0.355700D+02  0.233074D+00
  0.125400D+02  0.433501D+00
  0.464400D+01  0.347472D+00
  0.129300D+01  0.412620D-01
  0.511800D+00 -0.850799D-02
  0.178700D+00  0.238400D-02
   s    10 1.00
  0.114200D+05 -0.115000D-03
  0.171200D+04 -0.895000D-03
  0.389300D+03 -0.462400D-02
  0.110000D+03 -0.185280D-01
  0.355700D+02 -0.573390D-01
  0.125400D+02 -0.132076D+00
  0.464400D+01 -0.172510D+00
  0.129300D+01  0.151814D+00
  0.511800D+00  0.599944D+00
  0.178700D+00  0.387462D+00
   s     1 1.00
  0.129300D+01  0.100000D+01
   s     1 1.00
  0.178700D+00  0.100000D+01
   p     5 1.00
  0.266300D+02  0.146700D-01
  0.594800D+01  0.917640D-01
  0.174200D+01  0.298683D+00
  0.555000D+00  0.498487D+00
  0.172500D+00  0.337023D+00
   p     1 1.00
  0.174200D+01  0.100000D+01
   p     1 1.00
  0.555000D+00  0.100000D+01
   d     1 1.00
  0.165400D+01  0.100000D+01
   d     1 1.00
  0.469000D+00  0.100000D+01
   f     1 1.00
  0.109300D+01  0.100000D+01
  
  2  0
   s    10 1.00
  0.823600D+04  0.531000D-03
  0.123500D+04  0.410800D-02
  0.280800D+03  0.210870D-01
  0.792700D+02  0.818530D-01
  0.255900D+02  0.234817D+00
  0.899700D+01  0.434401D+00
  0.331900D+01  0.346129D+00
  0.905900D+00  0.393780D-01
  0.364300D+00 -0.898300D-02
  0.128500D+00  0.238500D-02
   s    10 1.00
  0.823600D+04 -0.113000D-03
  0.123500D+04 -0.878000D-03
  0.280800D+03 -0.454000D-02
  0.792700D+02 -0.181330D-01
  0.255900D+02 -0.557600D-01
  0.899700D+01 -0.126895D+00
  0.331900D+01 -0.170352D+00
  0.905900D+00  0.140382D+00
  0.364300D+00  0.598684D+00
  0.128500D+00  0.395389D+00
   s     1 1.00
  0.905900D+00  0.100000D+01
   s     1 1.00
  0.364300D+00  0.100000D+01
   p     5 1.00
  0.187100D+02  0.140310D-01
  0.413300D+01  0.868660D-01
  0.120000D+01  0.290216D+00
  0.382700D+00  0.501008D+00
  0.120900D+00  0.343406D+00
   p     1 1.00
  0.382700D+00  0.100000D+01
   p     1 1.00
  0.120900D+00  0.100000D+01
   d     1 1.00
  0.109700D+01  0.100000D+01
   d     1 1.00
  0.318000D+00  0.100000D+01
   f     1 1.00
  0.761000D+00  0.100000D+01
  
  3  0
   s    10 1.00
  0.823600D+04  0.531000D-03
  0.123500D+04  0.410800D-02
  0.280800D+03  0.210870D-01
  0.792700D+02  0.818530D-01
  0.255900D+02  0.234817D+00
  0.899700D+01  0.434401D+00
  0.331900D+01  0.346129D+00
  0.905900D+00  0.393780D-01
  0.364300D+00 -0.898300D-02
  0.128500D+00  0.238500D-02
   s    10 1.00
  0.823600D+04 -0.113000D-03
  0.123500D+04 -0.878000D-03
  0.280800D+03 -0.454000D-02
  0.792700D+02 -0.181330D-01
  0.255900D+02 -0.557600D-01
  0.899700D+01 -0.126895D+00
  0.331900D+01 -0.170352D+00
  0.905900D+00  0.140382D+00
  0.364300D+00  0.598684D+00
  0.128500D+00  0.395389D+00
   s     1 1.00
  0.905900D+00  0.100000D+01
   s     1 1.00
  0.364300D+00  0.100000D+01
   p     5 1.00
  0.187100D+02  0.140310D-01
  0.413300D+01  0.868660D-01
  0.120000D+01  0.290216D+00
  0.382700D+00  0.501008D+00
  0.120900D+00  0.343406D+00
   p     1 1.00
  0.382700D+00  0.100000D+01
   p     1 1.00
  0.120900D+00  0.100000D+01
   d     1 1.00
  0.109700D+01  0.100000D+01
   d     1 1.00
  0.318000D+00  0.100000D+01
   f     1 1.00
  0.761000D+00  0.100000D+01
  
  4  0
   s    10 1.00
  0.823600D+04  0.531000D-03
  0.123500D+04  0.410800D-02
  0.280800D+03  0.210870D-01
  0.792700D+02  0.818530D-01
  0.255900D+02  0.234817D+00
  0.899700D+01  0.434401D+00
  0.331900D+01  0.346129D+00
  0.905900D+00  0.393780D-01
  0.364300D+00 -0.898300D-02
  0.128500D+00  0.238500D-02
   s    10 1.00
  0.823600D+04 -0.113000D-03
  0.123500D+04 -0.878000D-03
  0.280800D+03 -0.454000D-02
  0.792700D+02 -0.181330D-01
  0.255900D+02 -0.557600D-01
  0.899700D+01 -0.126895D+00
  0.331900D+01 -0.170352D+00
  0.905900D+00  0.140382D+00
  0.364300D+00  0.598684D+00
  0.128500D+00  0.395389D+00
   s     1 1.00
  0.905900D+00  0.100000D+01
   s     1 1.00
  0.364300D+00  0.100000D+01
   p     5 1.00
  0.187100D+02  0.140310D-01
  0.413300D+01  0.868660D-01
  0.120000D+01  0.290216D+00
  0.382700D+00  0.501008D+00
  0.120900D+00  0.343406D+00
   p     1 1.00
  0.382700D+00  0.100000D+01
   p     1 1.00
  0.120900D+00  0.100000D+01
   d     1 1.00
  0.109700D+01  0.100000D+01
   d     1 1.00
  0.318000D+00  0.100000D+01
   f     1 1.00
  0.761000D+00  0.100000D+01
  
  5  0
   s    10 1.00
  0.823600D+04  0.531000D-03
  0.123500D+04  0.410800D-02
  0.280800D+03  0.210870D-01
  0.792700D+02  0.818530D-01
  0.255900D+02  0.234817D+00
  0.899700D+01  0.434401D+00
  0.331900D+01  0.346129D+00
  0.905900D+00  0.393780D-01
  0.364300D+00 -0.898300D-02
  0.128500D+00  0.238500D-02
   s    10 1.00
  0.823600D+04 -0.113000D-03
  0.123500D+04 -0.878000D-03
  0.280800D+03 -0.454000D-02
  0.792700D+02 -0.181330D-01
  0.255900D+02 -0.557600D-01
  0.899700D+01 -0.126895D+00
  0.331900D+01 -0.170352D+00
  0.905900D+00  0.140382D+00
  0.364300D+00  0.598684D+00
  0.128500D+00  0.395389D+00
   s     1 1.00
  0.905900D+00  0.100000D+01
   s     1 1.00
  0.364300D+00  0.100000D+01
   p     5 1.00
  0.187100D+02  0.140310D-01
  0.413300D+01  0.868660D-01
  0.120000D+01  0.290216D+00
  0.382700D+00  0.501008D+00
  0.120900D+00  0.343406D+00
   p     1 1.00
  0.382700D+00  0.100000D+01
   p     1 1.00
  0.120900D+00  0.100000D+01
   d     1 1.00
  0.109700D+01  0.100000D+01
   d     1 1.00
  0.318000D+00  0.100000D+01
   f     1 1.00
  0.761000D+00  0.100000D+01
  
  6  0
   s    10 1.00
  0.823600D+04  0.531000D-03
  0.123500D+04  0.410800D-02
  0.280800D+03  0.210870D-01
  0.792700D+02  0.818530D-01
  0.255900D+02  0.234817D+00
  0.899700D+01  0.434401D+00
  0.331900D+01  0.346129D+00
  0.905900D+00  0.393780D-01
  0.364300D+00 -0.898300D-02
  0.128500D+00  0.238500D-02
   s    10 1.00
  0.823600D+04 -0.113000D-03
  0.123500D+04 -0.878000D-03
  0.280800D+03 -0.454000D-02
  0.792700D+02 -0.181330D-01
  0.255900D+02 -0.557600D-01
  0.899700D+01 -0.126895D+00
  0.331900D+01 -0.170352D+00
  0.905900D+00  0.140382D+00
  0.364300D+00  0.598684D+00
  0.128500D+00  0.395389D+00
   s     1 1.00
  0.905900D+00  0.100000D+01
   s     1 1.00
  0.364300D+00  0.100000D+01
   p     5 1.00
  0.187100D+02  0.140310D-01
  0.413300D+01  0.868660D-01
  0.120000D+01  0.290216D+00
  0.382700D+00  0.501008D+00
  0.120900D+00  0.343406D+00
   p     1 1.00
  0.382700D+00  0.100000D+01
   p     1 1.00
  0.120900D+00  0.100000D+01
   d     1 1.00
  0.109700D+01  0.100000D+01
   d     1 1.00
  0.318000D+00  0.100000D+01
   f     1 1.00
  0.761000D+00  0.100000D+01
  
  7  0
   s    10 1.00
  0.823600D+04  0.531000D-03
  0.123500D+04  0.410800D-02
  0.280800D+03  0.210870D-01
  0.792700D+02  0.818530D-01
  0.255900D+02  0.234817D+00
  0.899700D+01  0.434401D+00
  0.331900D+01  0.346129D+00
  0.905900D+00  0.393780D-01
  0.364300D+00 -0.898300D-02
  0.128500D+00  0.238500D-02
   s    10 1.00
  0.823600D+04 -0.113000D-03
  0.123500D+04 -0.878000D-03
  0.280800D+03 -0.454000D-02
  0.792700D+02 -0.181330D-01
  0.255900D+02 -0.557600D-01
  0.899700D+01 -0.126895D+00
  0.331900D+01 -0.170352D+00
  0.905900D+00  0.140382D+00
  0.364300D+00  0.598684D+00
  0.128500D+00  0.395389D+00
   s     1 1.00
  0.905900D+00  0.100000D+01
   s     1 1.00
  0.364300D+00  0.100000D+01
   p     5 1.00
  0.187100D+02  0.140310D-01
  0.413300D+01  0.868660D-01
  0.120000D+01  0.290216D+00
  0.382700D+00  0.501008D+00
  0.120900D+00  0.343406D+00
   p     1 1.00
  0.382700D+00  0.100000D+01
   p     1 1.00
  0.120900D+00  0.100000D+01
   d     1 1.00
  0.109700D+01  0.100000D+01
   d     1 1.00
  0.318000D+00  0.100000D+01
   f     1 1.00
  0.761000D+00  0.100000D+01
  
  8  0
   s     4 1.00
  0.130100D+02  0.196850D-01
  0.196200D+01  0.137977D+00
  0.444600D+00  0.478148D+00
  0.122000D+00  0.501240D+00
   s     1 1.00
  0.122000D+00  0.100000D+01
   p     1 1.00
  0.727000D+00  0.100000D+01
  
  9  0
   s     4 1.00
  0.130100D+02  0.196850D-01
  0.196200D+01  0.137977D+00
  0.444600D+00  0.478148D+00
  0.122000D+00  0.501240D+00
   s     1 1.00
  0.122000D+00  0.100000D+01
   p     1 1.00
  0.727000D+00  0.100000D+01
  
 10  0
   s     4 1.00
  0.130100D+02  0.196850D-01
  0.196200D+01  0.137977D+00
  0.444600D+00  0.478148D+00
  0.122000D+00  0.501240D+00
   s     1 1.00
  0.122000D+00  0.100000D+01
   p     1 1.00
  0.727000D+00  0.100000D+01
  
 11  0
   s     4 1.00
  0.130100D+02  0.196850D-01
  0.196200D+01  0.137977D+00
  0.444600D+00  0.478148D+00
  0.122000D+00  0.501240D+00
   s     1 1.00
  0.122000D+00  0.100000D+01
   p     1 1.00
  0.727000D+00  0.100000D+01
  
 12  0
   s     4 1.00
  0.130100D+02  0.196850D-01
  0.196200D+01  0.137977D+00
  0.444600D+00  0.478148D+00
  0.122000D+00  0.501240D+00
   s     1 1.00
  0.122000D+00  0.100000D+01
   p     1 1.00
  0.727000D+00  0.100000D+01
  
 13  0
   s     4 1.00
  0.130100D+02  0.196850D-01
  0.196200D+01  0.137977D+00
  0.444600D+00  0.478148D+00
  0.122000D+00  0.501240D+00
   s     1 1.00
  0.122000D+00  0.100000D+01
   p     1 1.00
  0.727000D+00  0.100000D+01
  
 14  0
   s     4 1.00
  0.130100D+02  0.196850D-01
  0.196200D+01  0.137977D+00
  0.444600D+00  0.478148D+00
  0.122000D+00  0.501240D+00
   s     1 1.00
  0.122000D+00  0.100000D+01
   p     1 1.00
  0.727000D+00  0.100000D+01
  
[MO]
 Sym= __1_A'_
 Ene=   1.00000000000000     
 Spin= Alpha
 Occup=    1.00000000000000     
                     1  3.430384032932560E-005
                     2  0.998417079334773     
                     3  2.952583007550646E-003
                     4  1.771495371984340E-003
                     5  3.942381577250652E-003
                     6  2.498905817702660E-003
                     7  5.690749910199535E-003
                     8  0.000000000000000E+000
                     9 -4.060446927770117E-004
                    10 -4.083582632236566E-004
                    11  0.000000000000000E+000
                    12 -1.610703605880554E-003
                    13 -1.145369123037637E-003
                    14  0.000000000000000E+000
                    15 -1.371581215550475E-004
                    16  0.000000000000000E+000
                    17  0.000000000000000E+000
                    18 -1.948362443032605E-004
                    19 -7.579183272913784E-005
                    20  2.818055341983202E-004
                    21  0.000000000000000E+000
                    22  0.000000000000000E+000
                    23 -2.871093577693160E-004
                    24  3.313610207314284E-004
                    25  0.000000000000000E+000
                    26 -1.477754840996164E-005
                    27 -5.339115231156364E-005
                    28  0.000000000000000E+000
                    29  0.000000000000000E+000
                    30  7.104970415300212E-006
                    31 -1.279693290761007E-004
                    32 -3.070352298310987E-004
                    33  1.673619616732819E-003
                    34  2.164128609231596E-004
                    35 -2.573741945248190E-004
                    36 -1.717457876419711E-004
                    37 -5.019414045797189E-003
                    38  0.000000000000000E+000
                    39  3.191260113201859E-004
                    40  2.181515946185137E-004
                    41  0.000000000000000E+000
                    42 -1.362391494139165E-003
                    43  4.928250179979323E-003
                    44  0.000000000000000E+000
                    45 -2.505443163303262E-005
                    46  0.000000000000000E+000
                    47  0.000000000000000E+000
                    48 -2.593717332351240E-004
                    49 -2.261691977267360E-005
                    50 -3.063397991042455E-004
                    51  0.000000000000000E+000
                    52  0.000000000000000E+000
                    53  1.095866309230433E-004
                    54  4.814891154141275E-004
                    55  0.000000000000000E+000
                    56 -1.190158902866339E-005
                    57 -3.816409669215830E-005
                    58  0.000000000000000E+000
                    59  0.000000000000000E+000
                    60  9.904590264995324E-006
                    61 -1.282675708383372E-004
                    62 -3.722337629086394E-004
                    63 -1.799368896298361E-003
                    64 -4.396922546991133E-005
                    65  1.485629334398270E-003
                    66 -6.333277405292943E-004
                    67  4.845770536017751E-004
                    68  0.000000000000000E+000
                    69  2.745018999476857E-004
                    70  7.253111814684984E-004
                    71  0.000000000000000E+000
                    72 -1.378441790148369E-003
                    73  4.449073433979476E-004
                    74  0.000000000000000E+000
                    75 -3.255952576243222E-005
                    76  0.000000000000000E+000
                    77  0.000000000000000E+000
                    78 -7.620668479262732E-005
                    79 -2.373937222935975E-005
                    80 -9.336912313426549E-005
                    81  0.000000000000000E+000
                    82  0.000000000000000E+000
                    83  6.240064258179124E-005
                    84  1.176312301203556E-004
                    85  0.000000000000000E+000
                    86  1.217827092738781E-005
                    87 -4.504857019850327E-005
                    88  0.000000000000000E+000
                    89  0.000000000000000E+000
                    90 -2.665716580397721E-005
                    91 -1.281137586388917E-004
                    92 -1.698273486787183E-004
                    93 -1.243695106566360E-003
                    94  1.579242146787574E-004
                    95  1.814106305102776E-005
                    96  6.249143118100787E-004
                    97  7.071348250692536E-004
                    98  0.000000000000000E+000
                    99  2.835102496119006E-004
                   100  4.361341281907906E-004
                   101  0.000000000000000E+000
                   102  4.928678567750191E-004
                   103 -9.710477175533038E-004
                   104  0.000000000000000E+000
                   105 -6.314126227820949E-006
                   106  0.000000000000000E+000
                   107  0.000000000000000E+000
                   108 -7.603095842623024E-005
                   109 -8.570911432816721E-006
                   110  7.258514535940444E-005
                   111  0.000000000000000E+000
                   112  0.000000000000000E+000
                   113 -6.200231992214386E-005
                   114 -9.302727600809325E-005
                   115  0.000000000000000E+000
                   116 -2.158912606211684E-005
                   117 -3.354219952222197E-005
                   118  0.000000000000000E+000
                   119  0.000000000000000E+000
                   120  1.553901990016856E-005
                   121 -5.157742543436994E-005
                   122 -2.263027388019973E-004
                   123 -4.214187873692892E-004
                   124  1.471407593524680E-004
                   125  2.993345687469963E-004
                   126  1.207332041848426E-006
                   127 -5.329082089862785E-004
                   128  0.000000000000000E+000
                   129  1.368907536156658E-004
                   130  5.053555518633171E-004
                   131  0.000000000000000E+000
                   132  1.979145994519598E-004
                   133  1.505529365264107E-003
                   134  0.000000000000000E+000
                   135  1.225000732456480E-005
                   136  0.000000000000000E+000
                   137  0.000000000000000E+000
                   138  3.418415586713160E-005
                   139 -1.455256902428863E-006
                   140  1.613345322368928E-004
                   141  0.000000000000000E+000
                   142  0.000000000000000E+000
                   143  2.821462803981186E-004
                   144  2.085200277693640E-004
                   145  0.000000000000000E+000
                   146 -7.975605915363553E-006
                   147 -4.939849142827648E-005
                   148  0.000000000000000E+000
                   149  0.000000000000000E+000
                   150 -8.396007936843263E-006
                   151 -3.942655107571137E-005
                   152 -1.724262436359337E-004
                   153 -2.167112320922223E-004
                   154  6.583871545645125E-005
                   155  3.121426327551486E-004
                   156 -2.547875470791141E-005
                   157 -5.350026749293496E-004
                   158  0.000000000000000E+000
                   159 -9.385391210291276E-006
                   160  1.556596653089487E-004
                   161  0.000000000000000E+000
                   162  5.513805271488791E-004
                   163  9.178757268063630E-005
                   164  0.000000000000000E+000
                   165  1.733755082484081E-006
                   166  0.000000000000000E+000
                   167  0.000000000000000E+000
                   168  2.839702518965830E-006
                   169  2.787562166548051E-006
                   170  8.415974599111375E-005
                   171  0.000000000000000E+000
                   172  0.000000000000000E+000
                   173  6.770777401186021E-005
                   174 -7.748382861106009E-005
                   175  0.000000000000000E+000
                   176  4.501581831347926E-006
                   177 -1.742663932399478E-005
                   178  0.000000000000000E+000
                   179  0.000000000000000E+000
                   180 -1.445872982502712E-005
                   181 -1.729203283189074E-005
                   182 -1.515597677818681E-004
                   183 -4.264730872599530E-004
                   184  4.360358646286511E-005
                   185  2.138970801895691E-004
                   186 -2.479715351034646E-005
                   187 -4.934335248198372E-005
                   188  0.000000000000000E+000
                   189  1.296701569708987E-004
                   190  4.899180076987277E-005
                   191  0.000000000000000E+000
                   192  8.092955082589591E-004
                   193 -8.387815326643535E-005
                   194  0.000000000000000E+000
                   195 -1.613923814326290E-006
                   196  0.000000000000000E+000
                   197  0.000000000000000E+000
                   198 -1.510239669322532E-005
                   199  3.216469584877407E-006
                   200  2.093983143078651E-005
                   201  0.000000000000000E+000
                   202  0.000000000000000E+000
                   203 -7.846094352704238E-005
                   204 -1.102975221691087E-004
                   205  0.000000000000000E+000
                   206 -3.843040964408877E-006
                   207 -5.569810261657328E-006
                   208  0.000000000000000E+000
                   209  0.000000000000000E+000
                   210  5.586817440336540E-006
                   211 -5.675747868364151E-006
                   212  1.961523434074732E-004
                   213 -2.049003051673543E-004
                   214  2.110474857084980E-004
                   215  1.907544332745802E-004
                   216  0.000000000000000E+000
                   217  1.762612595300351E-003
                   218 -1.561483077806056E-003
                   219 -3.791073823742786E-004
                   220  2.472550443591392E-004
                   221  0.000000000000000E+000
                   222 -4.163775971602752E-004
                   223 -5.479780320611829E-004
                   224  5.749190176711659E-008
                   225 -5.574972846668554E-005
                   226  0.000000000000000E+000
                   227 -3.681966878540448E-004
                   228 -3.220597169339184E-004
                   229 -1.314054086779363E-006
                   230 -2.844716938457934E-005
                   231  0.000000000000000E+000
                   232 -9.991415298254824E-005
                   233 -4.811767638615462E-004
                   234  2.558100420809292E-006
                   235  1.529399948903635E-006
                   236  0.000000000000000E+000
                   237 -1.629201201967755E-004
                   238 -4.198290635055412E-004
                   239  3.767899092056014E-006
                   240  2.229849510878546E-006
                   241  0.000000000000000E+000
                   242  2.455164822651028E-005
                   243 -6.740777350364505E-005
                   244 -4.760627664844370E-007
                   245  1.884042869058673E-005
                   246  0.000000000000000E+000
 Sym= __2_A'_
 Ene=   2.00000000000000     
 Spin= Alpha
 Occup=    1.00000000000000     
                     1 -5.148909048941470E-005
                     2 -3.164779371077026E-004
                     3  2.667732995010772E-003
                     4  1.402394551438325E-004
                     5  1.321981921938319E-003
                     6 -2.664465811451021E-004
                     7  3.161135382469450E-003
                     8  0.000000000000000E+000
                     9 -4.848368966667125E-005
                    10 -8.543604769016269E-005
                    11  0.000000000000000E+000
                    12  1.128950149676869E-004
                    13 -4.890578524912215E-004
                    14  0.000000000000000E+000
                    15  3.577507498979317E-005
                    16  0.000000000000000E+000
                    17  0.000000000000000E+000
                    18 -6.223115291313352E-005
                    19 -1.891253224132077E-006
                    20 -1.375100666539564E-004
                    21  0.000000000000000E+000
                    22  0.000000000000000E+000
                    23  2.443141852927322E-004
                    24  2.592999262309158E-005
                    25  0.000000000000000E+000
                    26 -1.234719845933137E-005
                    27  9.432519273073072E-005
                    28  0.000000000000000E+000
                    29  0.000000000000000E+000
                    30 -1.831870405431973E-005
                    31  1.411054441849362E-004
                    32   1.00102140863204     
                    33  9.419103779516222E-003
                    34  2.718285443705468E-003
                    35 -8.024621213395288E-003
                    36 -9.150987687062861E-005
                    37 -3.888703396276354E-003
                    38  0.000000000000000E+000
                    39  5.796324302185695E-005
                    40  5.889834293958441E-004
                    41  0.000000000000000E+000
                    42  8.664945297656329E-005
                    43  4.357845011205121E-003
                    44  0.000000000000000E+000
                    45 -5.835645403180482E-004
                    46  0.000000000000000E+000
                    47  0.000000000000000E+000
                    48 -2.043363064304558E-004
                    49 -8.750910783118933E-006
                    50  5.402298856285737E-004
                    51  0.000000000000000E+000
                    52  0.000000000000000E+000
                    53 -9.538743088977540E-004
                    54  7.423577318342527E-005
                    55  0.000000000000000E+000
                    56  1.855025769996086E-008
                    57  8.983640472892787E-005
                    58  0.000000000000000E+000
                    59  0.000000000000000E+000
                    60 -3.522105679867771E-006
                    61  4.154573216288866E-004
                    62  8.537614755600487E-003
                    63 -2.084108919994739E-003
                    64 -2.869615009657566E-004
                    65  3.082876065598777E-003
                    66  1.533842145222950E-005
                    67  6.613011738396171E-005
                    68  0.000000000000000E+000
                    69  7.078842774238721E-004
                    70 -1.254099312456346E-005
                    71  0.000000000000000E+000
                    72 -2.069577058798620E-003
                    73  5.587212192060539E-005
                    74  0.000000000000000E+000
                    75  2.748129677353657E-005
                    76  0.000000000000000E+000
                    77  0.000000000000000E+000
                    78 -4.609843035321238E-006
                    79  3.244706098466893E-006
                    80 -3.991622856643559E-004
                    81  0.000000000000000E+000
                    82  0.000000000000000E+000
                    83 -5.946232122684132E-004
                    84 -3.887590639335066E-004
                    85  0.000000000000000E+000
                    86  3.556131570286886E-005
                    87 -5.823599737945050E-005
                    88  0.000000000000000E+000
                    89  0.000000000000000E+000
                    90  5.515342442628987E-005
                    91  1.406013074349619E-004
                    92  9.073422660215713E-003
                    93 -2.116978231596596E-003
                    94 -2.812532078837846E-004
                    95  3.045407452572870E-003
                    96  1.097088100903610E-005
                    97  7.854580388825467E-005
                    98  0.000000000000000E+000
                    99 -6.467598570916006E-004
                   100  2.873193145662898E-005
                   101  0.000000000000000E+000
                   102  2.101141941573332E-003
                   103  9.817032008449736E-005
                   104  0.000000000000000E+000
                   105  3.108559622120118E-005
                   106  0.000000000000000E+000
                   107  0.000000000000000E+000
                   108 -4.190163109651936E-006
                   109 -9.591396711847372E-006
                   110 -4.081786531387863E-004
                   111  0.000000000000000E+000
                   112  0.000000000000000E+000
                   113 -6.423761243507050E-004
                   114  3.916275761762216E-004
                   115  0.000000000000000E+000
                   116 -3.277826488642648E-005
                   117 -5.788874405249747E-005
                   118  0.000000000000000E+000
                   119  0.000000000000000E+000
                   120 -5.330492697581488E-005
                   121  1.381837619270012E-004
                   122 -1.987023312078063E-004
                   123 -6.999333024345959E-004
                   124  2.227699977805333E-004
                   125 -8.967263804829676E-005
                   126 -5.658235700834264E-006
                   127 -3.161936453213963E-004
                   128  0.000000000000000E+000
                   129 -5.325082108097922E-005
                   130  5.247261905911340E-004
                   131  0.000000000000000E+000
                   132  3.015164680639180E-004
                   133  7.437818723129022E-004
                   134  0.000000000000000E+000
                   135  1.840122244309256E-005
                   136  0.000000000000000E+000
                   137  0.000000000000000E+000
                   138  3.636561607076162E-006
                   139  5.246666118702958E-005
                   140  1.359400986282736E-004
                   141  0.000000000000000E+000
                   142  0.000000000000000E+000
                   143  2.416123676755038E-004
                   144 -1.872924116928889E-004
                   145  0.000000000000000E+000
                   146  6.941538903372845E-006
                   147 -3.302071197859790E-005
                   148  0.000000000000000E+000
                   149  0.000000000000000E+000
                   150 -4.681013566598204E-005
                   151  2.803423886418449E-005
                   152 -1.667966755759927E-004
                   153 -7.006646090356890E-004
                   154  2.279363620114518E-004
                   155 -1.221904002682832E-004
                   156  4.941770914886940E-006
                   157 -3.203126916674307E-004
                   158  0.000000000000000E+000
                   159  3.080129916204191E-005
                   160  5.602968151077934E-004