[Molden Format]
[Atoms] AU
  N     1    7     0.0000000000   -4.2907334100    0.0000000000        
  C     2    6     0.0000000000   -1.7772236300    0.0000000000        
  C     3    6    -2.3389203600   -0.4111016300    0.0000000000        
  C     4    6     2.3389203600   -0.4111016300    0.0000000000        
  C     5    6    -2.2998668500    2.1639215300    0.0000000000        
  C     6    6     2.2998668500    2.1639215300    0.0000000000        
  C     7    6     0.0000000000    3.4755251800    0.0000000000        
  H     8    1    -4.5032416900   -7.0688555800    0.0000000000        
  H     9    1     1.6528040300   -5.3103747800    0.0000000000        
  H    10    1    -4.0745407300   -1.4447408500    0.0000000000        
  H    11    1     4.0745407300   -1.4447408500    0.0000000000        
  H    12    1    -4.0420632100    3.1963889500    0.0000000000        
  H    13    1     4.0420632100    3.1963889500    0.0000000000        
  H    14    1     0.0000000000    5.5020335600    0.0000000000        
[5D]
[7F]
[GTO]
  1  0
   s    12 1.00
  0.114200D+05  0.172695D-04
  0.171200D+04  0.134411D-03
  0.389300D+03  0.694561D-03
  0.110000D+03  0.278531D-02
  0.355700D+02  0.863457D-02
  0.125400D+02  0.199805D-01
  0.464400D+01  0.262908D-01
  0.129300D+01 -0.243845D-01
  0.511800D+00 -0.924934D-01
  0.178700D+00 -0.339683D+00
  0.246240D-01  0.345111D+00
  0.112530D-01  0.752750D+00
   s    10 1.00
  0.114200D+05  0.523000D-03
  0.171200D+04  0.404500D-02
  0.389300D+03  0.207750D-01
  0.110000D+03  0.807269D-01
  0.355700D+02  0.233074D+00
  0.125400D+02  0.433501D+00
  0.464400D+01  0.347472D+00
  0.129300D+01  0.412620D-01
  0.511800D+00 -0.850799D-02
  0.178700D+00  0.238400D-02
   s    10 1.00
  0.114200D+05 -0.115000D-03
  0.171200D+04 -0.895000D-03
  0.389300D+03 -0.462400D-02
  0.110000D+03 -0.185280D-01
  0.355700D+02 -0.573390D-01
  0.125400D+02 -0.132076D+00
  0.464400D+01 -0.172510D+00
  0.129300D+01  0.151814D+00
  0.511800D+00  0.599944D+00
  0.178700D+00  0.387462D+00
   s     1 1.00
  0.129300D+01  0.100000D+01
   s     1 1.00
  0.178700D+00  0.100000D+01
   p     5 1.00
  0.266300D+02  0.146700D-01
  0.594800D+01  0.917640D-01
  0.174200D+01  0.298683D+00
  0.555000D+00  0.498487D+00
  0.172500D+00  0.337023D+00
   p     1 1.00
  0.174200D+01  0.100000D+01
   p     1 1.00
  0.555000D+00  0.100000D+01
   d     1 1.00
  0.165400D+01  0.100000D+01
   d     1 1.00
  0.469000D+00  0.100000D+01
   f     1 1.00
  0.109300D+01  0.100000D+01
  
  2  0
   s    10 1.00
  0.823600D+04  0.531000D-03
  0.123500D+04  0.410800D-02
  0.280800D+03  0.210870D-01
  0.792700D+02  0.818530D-01
  0.255900D+02  0.234817D+00
  0.899700D+01  0.434401D+00
  0.331900D+01  0.346129D+00
  0.905900D+00  0.393780D-01
  0.364300D+00 -0.898300D-02
  0.128500D+00  0.238500D-02
   s    10 1.00
  0.823600D+04 -0.113000D-03
  0.123500D+04 -0.878000D-03
  0.280800D+03 -0.454000D-02
  0.792700D+02 -0.181330D-01
  0.255900D+02 -0.557600D-01
  0.899700D+01 -0.126895D+00
  0.331900D+01 -0.170352D+00
  0.905900D+00  0.140382D+00
  0.364300D+00  0.598684D+00
  0.128500D+00  0.395389D+00
   s     1 1.00
  0.905900D+00  0.100000D+01
   s     1 1.00
  0.364300D+00  0.100000D+01
   p     5 1.00
  0.187100D+02  0.140310D-01
  0.413300D+01  0.868660D-01
  0.120000D+01  0.290216D+00
  0.382700D+00  0.501008D+00
  0.120900D+00  0.343406D+00
   p     1 1.00
  0.382700D+00  0.100000D+01
   p     1 1.00
  0.120900D+00  0.100000D+01
   d     1 1.00
  0.109700D+01  0.100000D+01
   d     1 1.00
  0.318000D+00  0.100000D+01
   f     1 1.00
  0.761000D+00  0.100000D+01
  
  3  0
   s    10 1.00
  0.823600D+04  0.531000D-03
  0.123500D+04  0.410800D-02
  0.280800D+03  0.210870D-01
  0.792700D+02  0.818530D-01
  0.255900D+02  0.234817D+00
  0.899700D+01  0.434401D+00
  0.331900D+01  0.346129D+00
  0.905900D+00  0.393780D-01
  0.364300D+00 -0.898300D-02
  0.128500D+00  0.238500D-02
   s    10 1.00
  0.823600D+04 -0.113000D-03
  0.123500D+04 -0.878000D-03
  0.280800D+03 -0.454000D-02
  0.792700D+02 -0.181330D-01
  0.255900D+02 -0.557600D-01
  0.899700D+01 -0.126895D+00
  0.331900D+01 -0.170352D+00
  0.905900D+00  0.140382D+00
  0.364300D+00  0.598684D+00
  0.128500D+00  0.395389D+00
   s     1 1.00
  0.905900D+00  0.100000D+01
   s     1 1.00
  0.364300D+00  0.100000D+01
   p     5 1.00
  0.187100D+02  0.140310D-01
  0.413300D+01  0.868660D-01
  0.120000D+01  0.290216D+00
  0.382700D+00  0.501008D+00
  0.120900D+00  0.343406D+00
   p     1 1.00
  0.382700D+00  0.100000D+01
   p     1 1.00
  0.120900D+00  0.100000D+01
   d     1 1.00
  0.109700D+01  0.100000D+01
   d     1 1.00
  0.318000D+00  0.100000D+01
   f     1 1.00
  0.761000D+00  0.100000D+01
  
  4  0
   s    10 1.00
  0.823600D+04  0.531000D-03
  0.123500D+04  0.410800D-02
  0.280800D+03  0.210870D-01
  0.792700D+02  0.818530D-01
  0.255900D+02  0.234817D+00
  0.899700D+01  0.434401D+00
  0.331900D+01  0.346129D+00
  0.905900D+00  0.393780D-01
  0.364300D+00 -0.898300D-02
  0.128500D+00  0.238500D-02
   s    10 1.00
  0.823600D+04 -0.113000D-03
  0.123500D+04 -0.878000D-03
  0.280800D+03 -0.454000D-02
  0.792700D+02 -0.181330D-01
  0.255900D+02 -0.557600D-01
  0.899700D+01 -0.126895D+00
  0.331900D+01 -0.170352D+00
  0.905900D+00  0.140382D+00
  0.364300D+00  0.598684D+00
  0.128500D+00  0.395389D+00
   s     1 1.00
  0.905900D+00  0.100000D+01
   s     1 1.00
  0.364300D+00  0.100000D+01
   p     5 1.00
  0.187100D+02  0.140310D-01
  0.413300D+01  0.868660D-01
  0.120000D+01  0.290216D+00
  0.382700D+00  0.501008D+00
  0.120900D+00  0.343406D+00
   p     1 1.00
  0.382700D+00  0.100000D+01
   p     1 1.00
  0.120900D+00  0.100000D+01
   d     1 1.00
  0.109700D+01  0.100000D+01
   d     1 1.00
  0.318000D+00  0.100000D+01
   f     1 1.00
  0.761000D+00  0.100000D+01
  
  5  0
   s    10 1.00
  0.823600D+04  0.531000D-03
  0.123500D+04  0.410800D-02
  0.280800D+03  0.210870D-01
  0.792700D+02  0.818530D-01
  0.255900D+02  0.234817D+00
  0.899700D+01  0.434401D+00
  0.331900D+01  0.346129D+00
  0.905900D+00  0.393780D-01
  0.364300D+00 -0.898300D-02
  0.128500D+00  0.238500D-02
   s    10 1.00
  0.823600D+04 -0.113000D-03
  0.123500D+04 -0.878000D-03
  0.280800D+03 -0.454000D-02
  0.792700D+02 -0.181330D-01
  0.255900D+02 -0.557600D-01
  0.899700D+01 -0.126895D+00
  0.331900D+01 -0.170352D+00
  0.905900D+00  0.140382D+00
  0.364300D+00  0.598684D+00
  0.128500D+00  0.395389D+00
   s     1 1.00
  0.905900D+00  0.100000D+01
   s     1 1.00
  0.364300D+00  0.100000D+01
   p     5 1.00
  0.187100D+02  0.140310D-01
  0.413300D+01  0.868660D-01
  0.120000D+01  0.290216D+00
  0.382700D+00  0.501008D+00
  0.120900D+00  0.343406D+00
   p     1 1.00
  0.382700D+00  0.100000D+01
   p     1 1.00
  0.120900D+00  0.100000D+01
   d     1 1.00
  0.109700D+01  0.100000D+01
   d     1 1.00
  0.318000D+00  0.100000D+01
   f     1 1.00
  0.761000D+00  0.100000D+01
  
  6  0
   s    10 1.00
  0.823600D+04  0.531000D-03
  0.123500D+04  0.410800D-02
  0.280800D+03  0.210870D-01
  0.792700D+02  0.818530D-01
  0.255900D+02  0.234817D+00
  0.899700D+01  0.434401D+00
  0.331900D+01  0.346129D+00
  0.905900D+00  0.393780D-01
  0.364300D+00 -0.898300D-02
  0.128500D+00  0.238500D-02
   s    10 1.00
  0.823600D+04 -0.113000D-03
  0.123500D+04 -0.878000D-03
  0.280800D+03 -0.454000D-02
  0.792700D+02 -0.181330D-01
  0.255900D+02 -0.557600D-01
  0.899700D+01 -0.126895D+00
  0.331900D+01 -0.170352D+00
  0.905900D+00  0.140382D+00
  0.364300D+00  0.598684D+00
  0.128500D+00  0.395389D+00
   s     1 1.00
  0.905900D+00  0.100000D+01
   s     1 1.00
  0.364300D+00  0.100000D+01
   p     5 1.00
  0.187100D+02  0.140310D-01
  0.413300D+01  0.868660D-01
  0.120000D+01  0.290216D+00
  0.382700D+00  0.501008D+00
  0.120900D+00  0.343406D+00
   p     1 1.00
  0.382700D+00  0.100000D+01
   p     1 1.00
  0.120900D+00  0.100000D+01
   d     1 1.00
  0.109700D+01  0.100000D+01
   d     1 1.00
  0.318000D+00  0.100000D+01
   f     1 1.00
  0.761000D+00  0.100000D+01
  
  7  0
   s    10 1.00
  0.823600D+04  0.531000D-03
  0.123500D+04  0.410800D-02
  0.280800D+03  0.210870D-01
  0.792700D+02  0.818530D-01
  0.255900D+02  0.234817D+00
  0.899700D+01  0.434401D+00
  0.331900D+01  0.346129D+00
  0.905900D+00  0.393780D-01
  0.364300D+00 -0.898300D-02
  0.128500D+00  0.238500D-02
   s    10 1.00
  0.823600D+04 -0.113000D-03
  0.123500D+04 -0.878000D-03
  0.280800D+03 -0.454000D-02
  0.792700D+02 -0.181330D-01
  0.255900D+02 -0.557600D-01
  0.899700D+01 -0.126895D+00
  0.331900D+01 -0.170352D+00
  0.905900D+00  0.140382D+00
  0.364300D+00  0.598684D+00
  0.128500D+00  0.395389D+00
   s     1 1.00
  0.905900D+00  0.100000D+01
   s     1 1.00
  0.364300D+00  0.100000D+01
   p     5 1.00
  0.187100D+02  0.140310D-01
  0.413300D+01  0.868660D-01
  0.120000D+01  0.290216D+00
  0.382700D+00  0.501008D+00
  0.120900D+00  0.343406D+00
   p     1 1.00
  0.382700D+00  0.100000D+01
   p     1 1.00
  0.120900D+00  0.100000D+01
   d     1 1.00
  0.109700D+01  0.100000D+01
   d     1 1.00
  0.318000D+00  0.100000D+01
   f     1 1.00
  0.761000D+00  0.100000D+01
  
  8  0
   s     4 1.00
  0.130100D+02  0.196850D-01
  0.196200D+01  0.137977D+00
  0.444600D+00  0.478148D+00
  0.122000D+00  0.501240D+00
   s     1 1.00
  0.122000D+00  0.100000D+01
   p     1 1.00
  0.727000D+00  0.100000D+01
  
  9  0
   s     4 1.00
  0.130100D+02  0.196850D-01
  0.196200D+01  0.137977D+00
  0.444600D+00  0.478148D+00
  0.122000D+00  0.501240D+00
   s     1 1.00
  0.122000D+00  0.100000D+01
   p     1 1.00
  0.727000D+00  0.100000D+01
  
 10  0
   s     4 1.00
  0.130100D+02  0.196850D-01
  0.196200D+01  0.137977D+00
  0.444600D+00  0.478148D+00
  0.122000D+00  0.501240D+00
   s     1 1.00
  0.122000D+00  0.100000D+01
   p     1 1.00
  0.727000D+00  0.100000D+01
  
 11  0
   s     4 1.00
  0.130100D+02  0.196850D-01
  0.196200D+01  0.137977D+00
  0.444600D+00  0.478148D+00
  0.122000D+00  0.501240D+00
   s     1 1.00
  0.122000D+00  0.100000D+01
   p     1 1.00
  0.727000D+00  0.100000D+01
  
 12  0
   s     4 1.00
  0.130100D+02  0.196850D-01
  0.196200D+01  0.137977D+00
  0.444600D+00  0.478148D+00
  0.122000D+00  0.501240D+00
   s     1 1.00
  0.122000D+00  0.100000D+01
   p     1 1.00
  0.727000D+00  0.100000D+01
  
 13  0
   s     4 1.00
  0.130100D+02  0.196850D-01
  0.196200D+01  0.137977D+00
  0.444600D+00  0.478148D+00
  0.122000D+00  0.501240D+00
   s     1 1.00
  0.122000D+00  0.100000D+01
   p     1 1.00
  0.727000D+00  0.100000D+01
  
 14  0
   s     4 1.00
  0.130100D+02  0.196850D-01
  0.196200D+01  0.137977D+00
  0.444600D+00  0.478148D+00
  0.122000D+00  0.501240D+00
   s     1 1.00
  0.122000D+00  0.100000D+01
   p     1 1.00
  0.727000D+00  0.100000D+01
  
[MO]
 Sym= __1_a__
 Ene=  0.000000000000000E+000
 Spin= Alpha
 Occup=    2.00000000000000     
                     1  1.150999502343230E-004
                     2  0.998324030247772     
                     3 -3.242698598604520E-003
                     4  1.970563597222290E-003
                     5  6.497151353061690E-003
                     6  2.798033577196800E-003
                     7  5.822959210128770E-003
                     8  0.000000000000000E+000
                     9 -7.636925292770660E-004
                    10 -5.944668349950220E-004
                    11  0.000000000000000E+000
                    12 -2.596379491688080E-003
                    13 -1.550395871609940E-003
                    14  0.000000000000000E+000
                    15 -5.400939248022732E-005
                    16  0.000000000000000E+000
                    17  0.000000000000000E+000
                    18 -1.864556940967216E-004
                    19 -7.123621958282690E-005
                    20  1.356378256543574E-004
                    21  0.000000000000000E+000
                    22  0.000000000000000E+000
                    23 -1.761714113987300E-004
                    24  5.975019745937930E-004
                    25  0.000000000000000E+000
                    26  3.371790085808910E-006
                    27 -5.326902167259816E-005
                    28  0.000000000000000E+000
                    29  0.000000000000000E+000
                    30  1.788387995682251E-005
                    31 -1.062340978681756E-004
                    32 -3.399566242412090E-004
                    33  4.253710616252450E-004
                    34  3.241584601845390E-004
                    35 -9.445363652562290E-005
                    36  2.504506061373280E-005
                    37 -2.740329148746470E-003
                    38  0.000000000000000E+000
                    39  5.085685684428900E-004
                    40  2.058245482443930E-004
                    41  0.000000000000000E+000
                    42 -2.480964275071180E-003
                    43  5.002598078337740E-003
                    44  0.000000000000000E+000
                    45  5.134009559625092E-006
                    46  0.000000000000000E+000
                    47  0.000000000000000E+000
                    48 -1.291654864901148E-004
                    49  1.777970191534620E-005
                    50 -1.770301921999442E-004
                    51  0.000000000000000E+000
                    52  0.000000000000000E+000
                    53  1.821920183751534E-004
                    54  8.343902537926920E-004
                    55  0.000000000000000E+000
                    56 -9.395717782096071E-006
                    57 -8.715330248688382E-005
                    58  0.000000000000000E+000
                    59  0.000000000000000E+000
                    60 -2.259451669496596E-005
                    61 -1.453433588042453E-004
                    62 -5.766531586316760E-004
                    63 -2.265887594398230E-003
                    64 -9.509939820985480E-005
                    65  2.329222518166760E-003
                    66 -5.381972850253020E-004
                    67  9.923902755788390E-005
                    68  0.000000000000000E+000
                    69  4.696987947846160E-004
                    70  9.022153865376900E-004
                    71  0.000000000000000E+000
                    72 -1.774843049006660E-003
                    73  7.803505850373090E-004
                    74  0.000000000000000E+000
                    75 -4.651639742883932E-005
                    76  0.000000000000000E+000
                    77  0.000000000000000E+000
                    78 -6.900295604844580E-005
                    79 -3.055249710677530E-005
                    80 -1.582460667902203E-004
                    81  0.000000000000000E+000
                    82  0.000000000000000E+000
                    83  1.108408931283700E-004
                    84  7.118186685758190E-005
                    85  0.000000000000000E+000
                    86  6.619034120251253E-006
                    87 -4.156601855196066E-005
                    88  0.000000000000000E+000
                    89  0.000000000000000E+000
                    90 -1.292964068578767E-005
                    91 -1.614290923992274E-004
                    92 -1.045521460409440E-004
                    93 -3.367087450105460E-004
                    94  2.090113092447290E-004
                    95 -4.372632183591950E-004
                    96  1.750515286366350E-004
                    97 -1.028912988700280E-004
                    98  0.000000000000000E+000
                    99  4.185527996689400E-004
                   100  3.088901646697830E-004
                   101  0.000000000000000E+000
                   102  5.686362488243430E-004
                   103 -1.505187718504110E-003
                   104  0.000000000000000E+000
                   105 -1.298045297711620E-005
                   106  0.000000000000000E+000
                   107  0.000000000000000E+000
                   108 -2.923738230501180E-005
                   109 -1.165405303624030E-005
                   110  1.635797227579386E-004
                   111  0.000000000000000E+000
                   112  0.000000000000000E+000
                   113 -7.670909444436981E-005
                   114 -6.786295568997580E-006
                   115  0.000000000000000E+000
                   116 -2.195146347499796E-005
                   117 -2.491664212616755E-005
                   118  0.000000000000000E+000
                   119  0.000000000000000E+000
                   120  2.072601431896792E-005
                   121 -2.412508661631941E-005
                   122 -2.686044702456700E-004
                   123 -6.928060048740550E-004
                   124  1.775397418596810E-004
                   125  3.863813610804710E-004
                   126 -2.812221903250150E-005
                   127 -2.885774385678820E-004
                   128  0.000000000000000E+000
                   129  2.200696843506430E-004
                   130  6.277430257967071E-004
                   131  0.000000000000000E+000
                   132  3.767844545806670E-004
                   133  2.077347280891740E-003
                   134  0.000000000000000E+000
                   135  1.393189815986550E-005
                   136  0.000000000000000E+000
                   137  0.000000000000000E+000
                   138  5.032485990046300E-005
                   139 -2.755004114928560E-006
                   140  2.218221596731789E-004
                   141  0.000000000000000E+000
                   142  0.000000000000000E+000
                   143  3.996357732382340E-004
                   144  2.520456940865440E-004
                   145  0.000000000000000E+000
                   146 -1.073455042925229E-005
                   147 -6.550574475704963E-005
                   148  0.000000000000000E+000
                   149  0.000000000000000E+000
                   150 -1.984103271178351E-005
                   151 -5.879758563266284E-005
                   152 -1.674351533794170E-004
                   153 -5.191607645069870E-004
                   154  2.122312134127770E-005
                   155  4.283219986253940E-004
                   156  6.795958123034170E-006
                   157 -8.627716358899970E-006
                   158  0.000000000000000E+000
                   159  3.234724331758740E-005
                   160 -3.931545280081380E-005
                   161  0.000000000000000E+000
                   162  7.195266347904860E-004
                   163 -4.074572224927050E-004
                   164  0.000000000000000E+000
                   165 -4.710276894602936E-007
                   166  0.000000000000000E+000
                   167  0.000000000000000E+000
                   168 -2.653251933217020E-006
                   169  1.458999257712900E-005
                   170  5.481265737592356E-005
                   171  0.000000000000000E+000
                   172  0.000000000000000E+000
                   173  5.507458470434800E-006
                   174  5.453744210035200E-006
                   175  0.000000000000000E+000
                   176  5.535687993350496E-006
                   177 -7.742386919702473E-006
                   178  0.000000000000000E+000
                   179  0.000000000000000E+000
                   180 -3.034636404325314E-005
                   181 -1.424289943164902E-005
                   182 -1.637659927712750E-004
                   183 -4.748597664489460E-004
                   184  4.115356359656610E-005
                   185  2.512927199501370E-004
                   186 -4.430316470160660E-005
                   187 -6.804754311062260E-005
                   188  0.000000000000000E+000
                   189  2.319282223554050E-004
                   190  9.202306450899860E-005
                   191  0.000000000000000E+000
                   192  1.378746430448170E-003
                   193 -2.686450667792940E-004
                   194  0.000000000000000E+000
                   195  7.174276890656981E-009
                   196  0.000000000000000E+000
                   197  0.000000000000000E+000
                   198 -4.247268259369220E-006
                   199  8.838101044068931E-006
                   200  5.237896440089161E-006
                   201  0.000000000000000E+000
                   202  0.000000000000000E+000
                   203 -8.145575820286440E-005
                   204 -2.018374838697950E-004
                   205  0.000000000000000E+000
                   206 -6.792223168102046E-006
                   207 -4.252050265188510E-006
                   208  0.000000000000000E+000
                   209  0.000000000000000E+000
                   210  1.135794552256369E-005
                   211 -4.680060619608324E-006
                   212 -5.463578720726530E-005
                   213  1.228058918648580E-004
                   214  2.531385360392420E-005
                   215  2.711806065021300E-005
                   216  0.000000000000000E+000
                   217 -1.439621125661150E-003
                   218 -4.085407580727260E-004
                   219 -2.364592350760120E-004
                   220  5.990184364467670E-005
                   221  0.000000000000000E+000
                   222 -2.134596406287010E-004
                   223 -6.429480476015051E-004
                   224  2.809990146091760E-005
                   225 -7.142984637770830E-005
                   226  0.000000000000000E+000
                   227  1.181891099282910E-004
                   228 -6.644346777390120E-004
                   229 -3.781454459430780E-005
                   230 -1.528647518229360E-005
                   231  0.000000000000000E+000
                   232  3.448837540161550E-005
                   233 -5.861705535008869E-004
                   234  1.441306818692740E-005
                   235 -3.197050554325130E-006
                   236  0.000000000000000E+000
                   237  1.348205943750750E-005
                   238 -3.706750700068960E-004
                   239  2.415215903784260E-007
                   240  6.406187491047900E-006
                   241  0.000000000000000E+000
                   242 -6.560893339753489E-005
                   243  3.053911142987450E-005
                   244  6.893118360330130E-007
                   245  2.811873511023750E-005
                   246  0.000000000000000E+000
 Sym= __2_a__
 Ene=  0.000000000000000E+000
 Spin= Alpha
 Occup=    2.00000000000000     
                     1  4.367154788234100E-005
                     2  3.615530411788870E-004
                     3 -3.524170244243540E-003
                     4 -1.255855933625670E-004
                     5 -1.545771299968300E-003
                     6  8.796556156745431E-004
                     7 -3.989370245494910E-003
                     8  0.000000000000000E+000
                     9  7.390536547881460E-005
                    10  9.057498304154470E-005
                    11  0.000000000000000E+000
                    12 -1.456285402578100E-004
                    13  4.024190992544330E-004
                    14  0.000000000000000E+000
                    15 -2.273916568254054E-005
                    16  0.000000000000000E+000
                    17  0.000000000000000E+000
                    18  6.977863465103739E-005
                    19 -2.191076201344650E-005
                    20  1.474950355873241E-004
                    21  0.000000000000000E+000
                    22  0.000000000000000E+000
                    23 -8.259230558280540E-005
                    24  4.613983530623090E-005
                    25  0.000000000000000E+000
                    26  1.866323630522732E-005
                    27 -7.187747545529234E-005
                    28  0.000000000000000E+000
                    29  0.000000000000000E+000
                    30  2.912615852550055E-005
                    31 -1.325640184351755E-004
                    32  -1.00082105200380     
                    33 -9.512412859717810E-003
                    34 -2.874078528608570E-003
                    35  8.297805407986089E-003
                    36  3.986380311358450E-004
                    37  4.721420097252330E-003
                    38  0.000000000000000E+000
                    39 -1.735190678182920E-004
                    40 -4.847543657176510E-004
                    41  0.000000000000000E+000
                    42 -1.278139538717810E-004
                    43 -4.711628456063790E-003
                    44  0.000000000000000E+000
                    45  5.375732410693589E-004
                    46  0.000000000000000E+000
                    47  0.000000000000000E+000
                    48  2.390423628065480E-004
                    49  7.887903853130220E-006
                    50 -5.623929992276729E-004
                    51  0.000000000000000E+000
                    52  0.000000000000000E+000
                    53  9.068135455034100E-004
                    54 -2.238135488519600E-005
                    55  0.000000000000000E+000
                    56  1.232458601758620E-006
                    57 -1.129135351842797E-004
                    58  0.000000000000000E+000
                    59  0.000000000000000E+000
                    60 -2.657600874947476E-006
                    61 -3.962305896832093E-004
                    62 -1.430361318855650E-002
                    63  2.276914621745390E-003
                    64  2.751511373265130E-004
                    65 -3.044333620399820E-003
                    66  2.230985236813740E-004
                    67 -3.904463647140150E-004
                    68  0.000000000000000E+000
                    69 -7.441192421700980E-004
                    70 -1.227068684554920E-005
                    71  0.000000000000000E+000
                    72  2.133912434933740E-003
                    73 -7.846145430338180E-006
                    74  0.000000000000000E+000
                    75 -2.504786177238985E-005
                    76  0.000000000000000E+000
                    77  0.000000000000000E+000
                    78  2.317396645774500E-005
                    79  1.934599993540230E-006
                    80  4.186129180780864E-004
                    81  0.000000000000000E+000
                    82  0.000000000000000E+000
                    83  6.186192869952260E-004
                    84  3.467215176603390E-004
                    85  0.000000000000000E+000
                    86 -3.400205707435537E-005
                    87  6.100557188883531E-005
                    88  0.000000000000000E+000
                    89  0.000000000000000E+000
                    90 -5.894338804038888E-005
                    91 -1.448153419441784E-004
                    92 -1.585852742186140E-002
                    93  2.328927508675990E-003
                    94  2.552079718091120E-004
                    95 -3.003028031593060E-003
                    96 -4.802288708203040E-004
                    97 -5.149823088080360E-004
                    98  0.000000000000000E+000
                    99  7.082542546209660E-004
                   100 -3.299558519051510E-005
                   101  0.000000000000000E+000
                   102 -2.079601199690120E-003
                   103  9.044618281890931E-006
                   104  0.000000000000000E+000
                   105 -3.179090118114964E-005
                   106  0.000000000000000E+000
                   107  0.000000000000000E+000
                   108  2.756592920426840E-005
                   109  1.502494072713710E-005
                   110  4.015746589522885E-004
                   111  0.000000000000000E+000
                   112  0.000000000000000E+000
                   113  6.177143504446480E-004
                   114 -3.202926851614310E-004
                   115  0.000000000000000E+000
                   116  3.674002694479375E-005
                   117  6.467426477536389E-005
                   118  0.000000000000000E+000
                   119  0.000000000000000E+000
                   120  5.345188771116138E-005
                   121 -1.427167804647078E-004
                   122 -1.699042827338160E-004
                   123  5.428381593970150E-004
                   124 -2.300700434973550E-004
                   125  1.120025032541850E-004
                   126  5.806243794174890E-006
                   127  5.550945271645470E-004
                   128  0.000000000000000E+000
                   129  7.856263244102690E-005
                   130 -5.670709648291430E-004
                   131  0.000000000000000E+000
                   132 -3.206778089641770E-004
                   133 -8.278170614129310E-004
                   134  0.000000000000000E+000
                   135 -1.777944054668501E-005
                   136  0.000000000000000E+000
                   137  0.000000000000000E+000
                   138  1.122913952004844E-007
                   139 -5.778997391422430E-005
                   140 -1.398935510759964E-004
                   141  0.000000000000000E+000
                   142  0.000000000000000E+000
                   143 -2.487941682521600E-004
                   144  1.592263037967450E-004
                   145  0.000000000000000E+000
                   146 -8.892349444577965E-006
                   147  3.501117774341012E-005
                   148  0.000000000000000E+000
                   149  0.000000000000000E+000
                   150  5.323312701804530E-005
                   151 -3.169519143514794E-005
                   152 -4.040513308071280E-004
                   153  5.262851811593460E-004
                   154 -2.283231616443960E-004
                   155  1.074430605148500E-004
                   156  3.882359953859170E-005
                   157  6.123792596309690E-004
                   158  0.000000000000000E+000
                   159 -7.105492519414680E-005
                   160 -5.792458519673920E-004