[Molden Format]
[Atoms] AU
  N     1    7     0.0000000000   -4.2907334100    0.0000000000        
  C     2    6     0.0000000000   -1.7772236300    0.0000000000        
  C     3    6    -2.3389203600   -0.4111016300    0.0000000000        
  C     4    6     2.3389203600   -0.4111016300    0.0000000000        
  C     5    6    -2.2998668500    2.1639215300    0.0000000000        
  C     6    6     2.2998668500    2.1639215300    0.0000000000        
  C     7    6     0.0000000000    3.4755251800    0.0000000000        
  H     8    1    -4.5032416900   -7.0688555800    0.0000000000        
  H     9    1     1.6528040300   -5.3103747800    0.0000000000        
  H    10    1    -4.0745407300   -1.4447408500    0.0000000000        
  H    11    1     4.0745407300   -1.4447408500    0.0000000000        
  H    12    1    -4.0420632100    3.1963889500    0.0000000000        
  H    13    1     4.0420632100    3.1963889500    0.0000000000        
  H    14    1     0.0000000000    5.5020335600    0.0000000000        
[5D]
[7F]
[GTO]
  1  0
   s    12 1.00
  0.114200D+05  0.172695D-04
  0.171200D+04  0.134411D-03
  0.389300D+03  0.694561D-03
  0.110000D+03  0.278531D-02
  0.355700D+02  0.863457D-02
  0.125400D+02  0.199805D-01
  0.464400D+01  0.262908D-01
  0.129300D+01 -0.243845D-01
  0.511800D+00 -0.924934D-01
  0.178700D+00 -0.339683D+00
  0.246240D-01  0.345111D+00
  0.112530D-01  0.752750D+00
   s    10 1.00
  0.114200D+05  0.523000D-03
  0.171200D+04  0.404500D-02
  0.389300D+03  0.207750D-01
  0.110000D+03  0.807269D-01
  0.355700D+02  0.233074D+00
  0.125400D+02  0.433501D+00
  0.464400D+01  0.347472D+00
  0.129300D+01  0.412620D-01
  0.511800D+00 -0.850799D-02
  0.178700D+00  0.238400D-02
   s    10 1.00
  0.114200D+05 -0.115000D-03
  0.171200D+04 -0.895000D-03
  0.389300D+03 -0.462400D-02
  0.110000D+03 -0.185280D-01
  0.355700D+02 -0.573390D-01
  0.125400D+02 -0.132076D+00
  0.464400D+01 -0.172510D+00
  0.129300D+01  0.151814D+00
  0.511800D+00  0.599944D+00
  0.178700D+00  0.387462D+00
   s     1 1.00
  0.129300D+01  0.100000D+01
   s     1 1.00
  0.178700D+00  0.100000D+01
   p     5 1.00
  0.266300D+02  0.146700D-01
  0.594800D+01  0.917640D-01
  0.174200D+01  0.298683D+00
  0.555000D+00  0.498487D+00
  0.172500D+00  0.337023D+00
   p     1 1.00
  0.174200D+01  0.100000D+01
   p     1 1.00
  0.555000D+00  0.100000D+01
   d     1 1.00
  0.165400D+01  0.100000D+01
   d     1 1.00
  0.469000D+00  0.100000D+01
   f     1 1.00
  0.109300D+01  0.100000D+01
  
  2  0
   s    10 1.00
  0.823600D+04  0.531000D-03
  0.123500D+04  0.410800D-02
  0.280800D+03  0.210870D-01
  0.792700D+02  0.818530D-01
  0.255900D+02  0.234817D+00
  0.899700D+01  0.434401D+00
  0.331900D+01  0.346129D+00
  0.905900D+00  0.393780D-01
  0.364300D+00 -0.898300D-02
  0.128500D+00  0.238500D-02
   s    10 1.00
  0.823600D+04 -0.113000D-03
  0.123500D+04 -0.878000D-03
  0.280800D+03 -0.454000D-02
  0.792700D+02 -0.181330D-01
  0.255900D+02 -0.557600D-01
  0.899700D+01 -0.126895D+00
  0.331900D+01 -0.170352D+00
  0.905900D+00  0.140382D+00
  0.364300D+00  0.598684D+00
  0.128500D+00  0.395389D+00
   s     1 1.00
  0.905900D+00  0.100000D+01
   s     1 1.00
  0.364300D+00  0.100000D+01
   p     5 1.00
  0.187100D+02  0.140310D-01
  0.413300D+01  0.868660D-01
  0.120000D+01  0.290216D+00
  0.382700D+00  0.501008D+00
  0.120900D+00  0.343406D+00
   p     1 1.00
  0.382700D+00  0.100000D+01
   p     1 1.00
  0.120900D+00  0.100000D+01
   d     1 1.00
  0.109700D+01  0.100000D+01
   d     1 1.00
  0.318000D+00  0.100000D+01
   f     1 1.00
  0.761000D+00  0.100000D+01
  
  3  0
   s    10 1.00
  0.823600D+04  0.531000D-03
  0.123500D+04  0.410800D-02
  0.280800D+03  0.210870D-01
  0.792700D+02  0.818530D-01
  0.255900D+02  0.234817D+00
  0.899700D+01  0.434401D+00
  0.331900D+01  0.346129D+00
  0.905900D+00  0.393780D-01
  0.364300D+00 -0.898300D-02
  0.128500D+00  0.238500D-02
   s    10 1.00
  0.823600D+04 -0.113000D-03
  0.123500D+04 -0.878000D-03
  0.280800D+03 -0.454000D-02
  0.792700D+02 -0.181330D-01
  0.255900D+02 -0.557600D-01
  0.899700D+01 -0.126895D+00
  0.331900D+01 -0.170352D+00
  0.905900D+00  0.140382D+00
  0.364300D+00  0.598684D+00
  0.128500D+00  0.395389D+00
   s     1 1.00
  0.905900D+00  0.100000D+01
   s     1 1.00
  0.364300D+00  0.100000D+01
   p     5 1.00
  0.187100D+02  0.140310D-01
  0.413300D+01  0.868660D-01
  0.120000D+01  0.290216D+00
  0.382700D+00  0.501008D+00
  0.120900D+00  0.343406D+00
   p     1 1.00
  0.382700D+00  0.100000D+01
   p     1 1.00
  0.120900D+00  0.100000D+01
   d     1 1.00
  0.109700D+01  0.100000D+01
   d     1 1.00
  0.318000D+00  0.100000D+01
   f     1 1.00
  0.761000D+00  0.100000D+01
  
  4  0
   s    10 1.00
  0.823600D+04  0.531000D-03
  0.123500D+04  0.410800D-02
  0.280800D+03  0.210870D-01
  0.792700D+02  0.818530D-01
  0.255900D+02  0.234817D+00
  0.899700D+01  0.434401D+00
  0.331900D+01  0.346129D+00
  0.905900D+00  0.393780D-01
  0.364300D+00 -0.898300D-02
  0.128500D+00  0.238500D-02
   s    10 1.00
  0.823600D+04 -0.113000D-03
  0.123500D+04 -0.878000D-03
  0.280800D+03 -0.454000D-02
  0.792700D+02 -0.181330D-01
  0.255900D+02 -0.557600D-01
  0.899700D+01 -0.126895D+00
  0.331900D+01 -0.170352D+00
  0.905900D+00  0.140382D+00
  0.364300D+00  0.598684D+00
  0.128500D+00  0.395389D+00
   s     1 1.00
  0.905900D+00  0.100000D+01
   s     1 1.00
  0.364300D+00  0.100000D+01
   p     5 1.00
  0.187100D+02  0.140310D-01
  0.413300D+01  0.868660D-01
  0.120000D+01  0.290216D+00
  0.382700D+00  0.501008D+00
  0.120900D+00  0.343406D+00
   p     1 1.00
  0.382700D+00  0.100000D+01
   p     1 1.00
  0.120900D+00  0.100000D+01
   d     1 1.00
  0.109700D+01  0.100000D+01
   d     1 1.00
  0.318000D+00  0.100000D+01
   f     1 1.00
  0.761000D+00  0.100000D+01
  
  5  0
   s    10 1.00
  0.823600D+04  0.531000D-03
  0.123500D+04  0.410800D-02
  0.280800D+03  0.210870D-01
  0.792700D+02  0.818530D-01
  0.255900D+02  0.234817D+00
  0.899700D+01  0.434401D+00
  0.331900D+01  0.346129D+00
  0.905900D+00  0.393780D-01
  0.364300D+00 -0.898300D-02
  0.128500D+00  0.238500D-02
   s    10 1.00
  0.823600D+04 -0.113000D-03
  0.123500D+04 -0.878000D-03
  0.280800D+03 -0.454000D-02
  0.792700D+02 -0.181330D-01
  0.255900D+02 -0.557600D-01
  0.899700D+01 -0.126895D+00
  0.331900D+01 -0.170352D+00
  0.905900D+00  0.140382D+00
  0.364300D+00  0.598684D+00
  0.128500D+00  0.395389D+00
   s     1 1.00
  0.905900D+00  0.100000D+01
   s     1 1.00
  0.364300D+00  0.100000D+01
   p     5 1.00
  0.187100D+02  0.140310D-01
  0.413300D+01  0.868660D-01
  0.120000D+01  0.290216D+00
  0.382700D+00  0.501008D+00
  0.120900D+00  0.343406D+00
   p     1 1.00
  0.382700D+00  0.100000D+01
   p     1 1.00
  0.120900D+00  0.100000D+01
   d     1 1.00
  0.109700D+01  0.100000D+01
   d     1 1.00
  0.318000D+00  0.100000D+01
   f     1 1.00
  0.761000D+00  0.100000D+01
  
  6  0
   s    10 1.00
  0.823600D+04  0.531000D-03
  0.123500D+04  0.410800D-02
  0.280800D+03  0.210870D-01
  0.792700D+02  0.818530D-01
  0.255900D+02  0.234817D+00
  0.899700D+01  0.434401D+00
  0.331900D+01  0.346129D+00
  0.905900D+00  0.393780D-01
  0.364300D+00 -0.898300D-02
  0.128500D+00  0.238500D-02
   s    10 1.00
  0.823600D+04 -0.113000D-03
  0.123500D+04 -0.878000D-03
  0.280800D+03 -0.454000D-02
  0.792700D+02 -0.181330D-01
  0.255900D+02 -0.557600D-01
  0.899700D+01 -0.126895D+00
  0.331900D+01 -0.170352D+00
  0.905900D+00  0.140382D+00
  0.364300D+00  0.598684D+00
  0.128500D+00  0.395389D+00
   s     1 1.00
  0.905900D+00  0.100000D+01
   s     1 1.00
  0.364300D+00  0.100000D+01
   p     5 1.00
  0.187100D+02  0.140310D-01
  0.413300D+01  0.868660D-01
  0.120000D+01  0.290216D+00
  0.382700D+00  0.501008D+00
  0.120900D+00  0.343406D+00
   p     1 1.00
  0.382700D+00  0.100000D+01
   p     1 1.00
  0.120900D+00  0.100000D+01
   d     1 1.00
  0.109700D+01  0.100000D+01
   d     1 1.00
  0.318000D+00  0.100000D+01
   f     1 1.00
  0.761000D+00  0.100000D+01
  
  7  0
   s    10 1.00
  0.823600D+04  0.531000D-03
  0.123500D+04  0.410800D-02
  0.280800D+03  0.210870D-01
  0.792700D+02  0.818530D-01
  0.255900D+02  0.234817D+00
  0.899700D+01  0.434401D+00
  0.331900D+01  0.346129D+00
  0.905900D+00  0.393780D-01
  0.364300D+00 -0.898300D-02
  0.128500D+00  0.238500D-02
   s    10 1.00
  0.823600D+04 -0.113000D-03
  0.123500D+04 -0.878000D-03
  0.280800D+03 -0.454000D-02
  0.792700D+02 -0.181330D-01
  0.255900D+02 -0.557600D-01
  0.899700D+01 -0.126895D+00
  0.331900D+01 -0.170352D+00
  0.905900D+00  0.140382D+00
  0.364300D+00  0.598684D+00
  0.128500D+00  0.395389D+00
   s     1 1.00
  0.905900D+00  0.100000D+01
   s     1 1.00
  0.364300D+00  0.100000D+01
   p     5 1.00
  0.187100D+02  0.140310D-01
  0.413300D+01  0.868660D-01
  0.120000D+01  0.290216D+00
  0.382700D+00  0.501008D+00
  0.120900D+00  0.343406D+00
   p     1 1.00
  0.382700D+00  0.100000D+01
   p     1 1.00
  0.120900D+00  0.100000D+01
   d     1 1.00
  0.109700D+01  0.100000D+01
   d     1 1.00
  0.318000D+00  0.100000D+01
   f     1 1.00
  0.761000D+00  0.100000D+01
  
  8  0
   s     4 1.00
  0.130100D+02  0.196850D-01
  0.196200D+01  0.137977D+00
  0.444600D+00  0.478148D+00
  0.122000D+00  0.501240D+00
   s     1 1.00
  0.122000D+00  0.100000D+01
   p     1 1.00
  0.727000D+00  0.100000D+01
  
  9  0
   s     4 1.00
  0.130100D+02  0.196850D-01
  0.196200D+01  0.137977D+00
  0.444600D+00  0.478148D+00
  0.122000D+00  0.501240D+00
   s     1 1.00
  0.122000D+00  0.100000D+01
   p     1 1.00
  0.727000D+00  0.100000D+01
  
 10  0
   s     4 1.00
  0.130100D+02  0.196850D-01
  0.196200D+01  0.137977D+00
  0.444600D+00  0.478148D+00
  0.122000D+00  0.501240D+00
   s     1 1.00
  0.122000D+00  0.100000D+01
   p     1 1.00
  0.727000D+00  0.100000D+01
  
 11  0
   s     4 1.00
  0.130100D+02  0.196850D-01
  0.196200D+01  0.137977D+00
  0.444600D+00  0.478148D+00
  0.122000D+00  0.501240D+00
   s     1 1.00
  0.122000D+00  0.100000D+01
   p     1 1.00
  0.727000D+00  0.100000D+01
  
 12  0
   s     4 1.00
  0.130100D+02  0.196850D-01
  0.196200D+01  0.137977D+00
  0.444600D+00  0.478148D+00
  0.122000D+00  0.501240D+00
   s     1 1.00
  0.122000D+00  0.100000D+01
   p     1 1.00
  0.727000D+00  0.100000D+01
  
 13  0
   s     4 1.00
  0.130100D+02  0.196850D-01
  0.196200D+01  0.137977D+00
  0.444600D+00  0.478148D+00
  0.122000D+00  0.501240D+00
   s     1 1.00
  0.122000D+00  0.100000D+01
   p     1 1.00
  0.727000D+00  0.100000D+01
  
 14  0
   s     4 1.00
  0.130100D+02  0.196850D-01
  0.196200D+01  0.137977D+00
  0.444600D+00  0.478148D+00
  0.122000D+00  0.501240D+00
   s     1 1.00
  0.122000D+00  0.100000D+01
   p     1 1.00
  0.727000D+00  0.100000D+01
  
[MO]
 Sym= __1_A__
 Ene=   1.00000000000000     
 Spin= Alpha
 Occup=    1.00000000000000     
                     1  1.150999502343230E-004
                     2  0.998324030247772     
                     3 -3.242698598604517E-003
                     4  1.970563597222287E-003
                     5  6.497151353061689E-003
                     6  2.798033577196799E-003
                     7  5.822959210128768E-003
                     8  0.000000000000000E+000
                     9 -7.636925292770662E-004
                    10 -5.944668349950218E-004
                    11  0.000000000000000E+000
                    12 -2.596379491688083E-003
                    13 -1.550395871609943E-003
                    14  0.000000000000000E+000
                    15 -5.400939248022719E-005
                    16  0.000000000000000E+000
                    17  0.000000000000000E+000
                    18 -1.864556940967216E-004
                    19 -7.123621958282692E-005
                    20  1.356378256543574E-004
                    21  0.000000000000000E+000
                    22  0.000000000000000E+000
                    23 -1.761714113987301E-004
                    24  5.975019745937929E-004
                    25  0.000000000000000E+000
                    26  3.371790085808909E-006
                    27 -5.326902167259812E-005
                    28  0.000000000000000E+000
                    29  0.000000000000000E+000
                    30  1.788387995682245E-005
                    31 -1.062340978681754E-004
                    32 -3.399566242412088E-004
                    33  4.253710616252449E-004
                    34  3.241584601845391E-004
                    35 -9.445363652562294E-005
                    36  2.504506061373283E-005
                    37 -2.740329148746471E-003
                    38  0.000000000000000E+000
                    39  5.085685684428899E-004
                    40  2.058245482443931E-004
                    41  0.000000000000000E+000
                    42 -2.480964275071184E-003
                    43  5.002598078337743E-003
                    44  0.000000000000000E+000
                    45  5.134009559625090E-006
                    46  0.000000000000000E+000
                    47  0.000000000000000E+000
                    48 -1.291654864901148E-004
                    49  1.777970191534619E-005
                    50 -1.770301921999441E-004
                    51  0.000000000000000E+000
                    52  0.000000000000000E+000
                    53  1.821920183751533E-004
                    54  8.343902537926922E-004
                    55  0.000000000000000E+000
                    56 -9.395717782096039E-006
                    57 -8.715330248688401E-005
                    58  0.000000000000000E+000
                    59  0.000000000000000E+000
                    60 -2.259451669496593E-005
                    61 -1.453433588042453E-004
                    62 -5.766531586316759E-004
                    63 -2.265887594398232E-003
                    64 -9.509939820985480E-005
                    65  2.329222518166756E-003
                    66 -5.381972850253018E-004
                    67  9.923902755788392E-005
                    68  0.000000000000000E+000
                    69  4.696987947846160E-004
                    70  9.022153865376896E-004
                    71  0.000000000000000E+000
                    72 -1.774843049006657E-003
                    73  7.803505850373087E-004
                    74  0.000000000000000E+000
                    75 -4.651639742883945E-005
                    76  0.000000000000000E+000
                    77  0.000000000000000E+000
                    78 -6.900295604844586E-005
                    79 -3.055249710677534E-005
                    80 -1.582460667902204E-004
                    81  0.000000000000000E+000
                    82  0.000000000000000E+000
                    83  1.108408931283699E-004
                    84  7.118186685758193E-005
                    85  0.000000000000000E+000
                    86  6.619034120251259E-006
                    87 -4.156601855196068E-005
                    88  0.000000000000000E+000
                    89  0.000000000000000E+000
                    90 -1.292964068578767E-005
                    91 -1.614290923992277E-004
                    92 -1.045521460409440E-004
                    93 -3.367087450105459E-004
                    94  2.090113092447293E-004
                    95 -4.372632183591953E-004
                    96  1.750515286366350E-004
                    97 -1.028912988700282E-004
                    98  0.000000000000000E+000
                    99  4.185527996689399E-004
                   100  3.088901646697834E-004
                   101  0.000000000000000E+000
                   102  5.686362488243429E-004
                   103 -1.505187718504115E-003
                   104  0.000000000000000E+000
                   105 -1.298045297711621E-005
                   106  0.000000000000000E+000
                   107  0.000000000000000E+000
                   108 -2.923738230501186E-005
                   109 -1.165405303624026E-005
                   110  1.635797227579385E-004
                   111  0.000000000000000E+000
                   112  0.000000000000000E+000
                   113 -7.670909444436981E-005
                   114 -6.786295568997583E-006
                   115  0.000000000000000E+000
                   116 -2.195146347499795E-005
                   117 -2.491664212616755E-005
                   118  0.000000000000000E+000
                   119  0.000000000000000E+000
                   120  2.072601431896786E-005
                   121 -2.412508661631939E-005
                   122 -2.686044702456700E-004
                   123 -6.928060048740554E-004
                   124  1.775397418596810E-004
                   125  3.863813610804712E-004
                   126 -2.812221903250148E-005
                   127 -2.885774385678818E-004
                   128  0.000000000000000E+000
                   129  2.200696843506432E-004
                   130  6.277430257967069E-004
                   131  0.000000000000000E+000
                   132  3.767844545806674E-004
                   133  2.077347280891742E-003
                   134  0.000000000000000E+000
                   135  1.393189815986549E-005
                   136  0.000000000000000E+000
                   137  0.000000000000000E+000
                   138  5.032485990046310E-005
                   139 -2.755004114928560E-006
                   140  2.218221596731789E-004
                   141  0.000000000000000E+000
                   142  0.000000000000000E+000
                   143  3.996357732382344E-004
                   144  2.520456940865445E-004
                   145  0.000000000000000E+000
                   146 -1.073455042925226E-005
                   147 -6.550574475704970E-005
                   148  0.000000000000000E+000
                   149  0.000000000000000E+000
                   150 -1.984103271178343E-005
                   151 -5.879758563266284E-005
                   152 -1.674351533794172E-004
                   153 -5.191607645069868E-004
                   154  2.122312134127766E-005
                   155  4.283219986253939E-004
                   156  6.795958123034171E-006
                   157 -8.627716358899970E-006
                   158  0.000000000000000E+000
                   159  3.234724331758744E-005
                   160 -3.931545280081382E-005
                   161  0.000000000000000E+000
                   162  7.195266347904859E-004
                   163 -4.074572224927052E-004
                   164  0.000000000000000E+000
                   165 -4.710276894602926E-007
                   166  0.000000000000000E+000
                   167  0.000000000000000E+000
                   168 -2.653251933217014E-006
                   169  1.458999257712902E-005
                   170  5.481265737592359E-005
                   171  0.000000000000000E+000
                   172  0.000000000000000E+000
                   173  5.507458470434796E-006
                   174  5.453744210035203E-006
                   175  0.000000000000000E+000
                   176  5.535687993350494E-006
                   177 -7.742386919702466E-006
                   178  0.000000000000000E+000
                   179  0.000000000000000E+000
                   180 -3.034636404325320E-005
                   181 -1.424289943164904E-005
                   182 -1.637659927712752E-004
                   183 -4.748597664489462E-004
                   184  4.115356359656609E-005
                   185  2.512927199501366E-004
                   186 -4.430316470160663E-005
                   187 -6.804754311062263E-005
                   188  0.000000000000000E+000
                   189  2.319282223554051E-004
                   190  9.202306450899864E-005
                   191  0.000000000000000E+000
                   192  1.378746430448167E-003
                   193 -2.686450667792937E-004
                   194  0.000000000000000E+000
                   195  7.174276890656988E-009
                   196  0.000000000000000E+000
                   197  0.000000000000000E+000
                   198 -4.247268259369226E-006
                   199  8.838101044068934E-006
                   200  5.237896440089154E-006
                   201  0.000000000000000E+000
                   202  0.000000000000000E+000
                   203 -8.145575820286448E-005
                   204 -2.018374838697945E-004
                   205  0.000000000000000E+000
                   206 -6.792223168102028E-006
                   207 -4.252050265188511E-006
                   208  0.000000000000000E+000
                   209  0.000000000000000E+000
                   210  1.135794552256369E-005
                   211 -4.680060619608325E-006
                   212 -5.463578720726528E-005
                   213  1.228058918648577E-004
                   214  2.531385360392420E-005
                   215  2.711806065021296E-005
                   216  0.000000000000000E+000
                   217 -1.439621125661155E-003
                   218 -4.085407580727259E-004
                   219 -2.364592350760122E-004
                   220  5.990184364467669E-005
                   221  0.000000000000000E+000
                   222 -2.134596406287010E-004
                   223 -6.429480476015049E-004
                   224  2.809990146091763E-005
                   225 -7.142984637770826E-005
                   226  0.000000000000000E+000
                   227  1.181891099282907E-004
                   228 -6.644346777390120E-004
                   229 -3.781454459430784E-005
                   230 -1.528647518229361E-005
                   231  0.000000000000000E+000
                   232  3.448837540161552E-005
                   233 -5.861705535008875E-004
                   234  1.441306818692743E-005
                   235 -3.197050554325130E-006
                   236  0.000000000000000E+000
                   237  1.348205943750754E-005
                   238 -3.706750700068961E-004
                   239  2.415215903784265E-007
                   240  6.406187491047902E-006
                   241  0.000000000000000E+000
                   242 -6.560893339753491E-005
                   243  3.053911142987450E-005
                   244  6.893118360330131E-007
                   245  2.811873511023752E-005
                   246  0.000000000000000E+000
 Sym= __2_A__
 Ene=   2.00000000000000     
 Spin= Alpha
 Occup=    1.00000000000000     
                     1  4.367154788234101E-005
                     2  3.615530411788875E-004
                     3 -3.524170244243540E-003
                     4 -1.255855933625674E-004
                     5 -1.545771299968304E-003
                     6  8.796556156745432E-004
                     7 -3.989370245494911E-003
                     8  0.000000000000000E+000
                     9  7.390536547881463E-005
                    10  9.057498304154470E-005
                    11  0.000000000000000E+000
                    12 -1.456285402578098E-004
                    13  4.024190992544326E-004
                    14  0.000000000000000E+000
                    15 -2.273916568254052E-005
                    16  0.000000000000000E+000
                    17  0.000000000000000E+000
                    18  6.977863465103739E-005
                    19 -2.191076201344653E-005
                    20  1.474950355873242E-004
                    21  0.000000000000000E+000
                    22  0.000000000000000E+000
                    23 -8.259230558280546E-005
                    24  4.613983530623089E-005
                    25  0.000000000000000E+000
                    26  1.866323630522734E-005
                    27 -7.187747545529253E-005
                    28  0.000000000000000E+000
                    29  0.000000000000000E+000
                    30  2.912615852550052E-005
                    31 -1.325640184351755E-004
                    32  -1.00082105200380     
                    33 -9.512412859717812E-003
                    34 -2.874078528608575E-003
                    35  8.297805407986091E-003
                    36  3.986380311358451E-004
                    37  4.721420097252331E-003
                    38  0.000000000000000E+000
                    39 -1.735190678182918E-004
                    40 -4.847543657176513E-004
                    41  0.000000000000000E+000
                    42 -1.278139538717807E-004
                    43 -4.711628456063786E-003
                    44  0.000000000000000E+000
                    45  5.375732410693593E-004
                    46  0.000000000000000E+000
                    47  0.000000000000000E+000
                    48  2.390423628065488E-004
                    49  7.887903853130222E-006
                    50 -5.623929992276736E-004
                    51  0.000000000000000E+000
                    52  0.000000000000000E+000
                    53  9.068135455034106E-004
                    54 -2.238135488519604E-005
                    55  0.000000000000000E+000
                    56  1.232458601758622E-006
                    57 -1.129135351842795E-004
                    58  0.000000000000000E+000
                    59  0.000000000000000E+000
                    60 -2.657600874947484E-006
                    61 -3.962305896832092E-004
                    62 -1.430361318855653E-002
                    63  2.276914621745394E-003
                    64  2.751511373265127E-004
                    65 -3.044333620399819E-003
                    66  2.230985236813740E-004
                    67 -3.904463647140147E-004
                    68  0.000000000000000E+000
                    69 -7.441192421700984E-004
                    70 -1.227068684554921E-005
                    71  0.000000000000000E+000
                    72  2.133912434933740E-003
                    73 -7.846145430338178E-006
                    74  0.000000000000000E+000
                    75 -2.504786177238984E-005
                    76  0.000000000000000E+000
                    77  0.000000000000000E+000
                    78  2.317396645774500E-005
                    79  1.934599993540228E-006
                    80  4.186129180780850E-004
                    81  0.000000000000000E+000
                    82  0.000000000000000E+000
                    83  6.186192869952268E-004
                    84  3.467215176603392E-004
                    85  0.000000000000000E+000
                    86 -3.400205707435535E-005
                    87  6.100557188883534E-005
                    88  0.000000000000000E+000
                    89  0.000000000000000E+000
                    90 -5.894338804038888E-005
                    91 -1.448153419441786E-004
                    92 -1.585852742186138E-002
                    93  2.328927508675991E-003
                    94  2.552079718091116E-004
                    95 -3.003028031593059E-003
                    96 -4.802288708203043E-004
                    97 -5.149823088080363E-004
                    98  0.000000000000000E+000
                    99  7.082542546209657E-004
                   100 -3.299558519051514E-005
                   101  0.000000000000000E+000
                   102 -2.079601199690120E-003
                   103  9.044618281890929E-006
                   104  0.000000000000000E+000
                   105 -3.179090118114963E-005
                   106  0.000000000000000E+000
                   107  0.000000000000000E+000
                   108  2.756592920426846E-005
                   109  1.502494072713706E-005
                   110  4.015746589522875E-004
                   111  0.000000000000000E+000
                   112  0.000000000000000E+000
                   113  6.177143504446470E-004
                   114 -3.202926851614314E-004
                   115  0.000000000000000E+000
                   116  3.674002694479372E-005
                   117  6.467426477536409E-005
                   118  0.000000000000000E+000
                   119  0.000000000000000E+000
                   120  5.345188771116140E-005
                   121 -1.427167804647077E-004
                   122 -1.699042827338162E-004
                   123  5.428381593970154E-004
                   124 -2.300700434973554E-004
                   125  1.120025032541849E-004
                   126  5.806243794174887E-006
                   127  5.550945271645472E-004
                   128  0.000000000000000E+000
                   129  7.856263244102689E-005
                   130 -5.670709648291432E-004
                   131  0.000000000000000E+000
                   132 -3.206778089641765E-004
                   133 -8.278170614129314E-004
                   134  0.000000000000000E+000
                   135 -1.777944054668500E-005
                   136  0.000000000000000E+000
                   137  0.000000000000000E+000
                   138  1.122913952004845E-007
                   139 -5.778997391422428E-005
                   140 -1.398935510759965E-004
                   141  0.000000000000000E+000
                   142  0.000000000000000E+000
                   143 -2.487941682521596E-004
                   144  1.592263037967454E-004
                   145  0.000000000000000E+000
                   146 -8.892349444577946E-006
                   147  3.501117774341013E-005
                   148  0.000000000000000E+000
                   149  0.000000000000000E+000
                   150  5.323312701804525E-005
                   151 -3.169519143514795E-005
                   152 -4.040513308071275E-004
                   153  5.262851811593462E-004
                   154 -2.283231616443965E-004
                   155  1.074430605148495E-004
                   156  3.882359953859174E-005
                   157  6.123792596309688E-004
                   158  0.000000000000000E+000
                   159 -7.105492519414681E-005
                   160 -5.792458519673921E-004