[Molden Format]
[Atoms] AU
  N     1    7     0.0000000000   -4.2907334100    0.0000000000        
  C     2    6     0.0000000000   -1.7772236300    0.0000000000        
  C     3    6    -2.3389203600   -0.4111016300    0.0000000000        
  C     4    6     2.3389203600   -0.4111016300    0.0000000000        
  C     5    6    -2.2998668500    2.1639215300    0.0000000000        
  C     6    6     2.2998668500    2.1639215300    0.0000000000        
  C     7    6     0.0000000000    3.4755251800    0.0000000000        
  H     8    1    -9.6498036300  -10.2438523400    0.0000000000        
  H     9    1     1.6528040300   -5.3103747800    0.0000000000        
  H    10    1    -4.0745407300   -1.4447408500    0.0000000000        
  H    11    1     4.0745407300   -1.4447408500    0.0000000000        
  H    12    1    -4.0420632100    3.1963889500    0.0000000000        
  H    13    1     4.0420632100    3.1963889500    0.0000000000        
  H    14    1     0.0000000000    5.5020335600    0.0000000000        
[5D]
[7F]
[GTO]
  1  0
   s    12 1.00
  0.114200D+05  0.172695D-04
  0.171200D+04  0.134411D-03
  0.389300D+03  0.694561D-03
  0.110000D+03  0.278531D-02
  0.355700D+02  0.863457D-02
  0.125400D+02  0.199805D-01
  0.464400D+01  0.262908D-01
  0.129300D+01 -0.243845D-01
  0.511800D+00 -0.924934D-01
  0.178700D+00 -0.339683D+00
  0.246240D-01  0.345111D+00
  0.112530D-01  0.752750D+00
   s    10 1.00
  0.114200D+05  0.523000D-03
  0.171200D+04  0.404500D-02
  0.389300D+03  0.207750D-01
  0.110000D+03  0.807269D-01
  0.355700D+02  0.233074D+00
  0.125400D+02  0.433501D+00
  0.464400D+01  0.347472D+00
  0.129300D+01  0.412620D-01
  0.511800D+00 -0.850799D-02
  0.178700D+00  0.238400D-02
   s    10 1.00
  0.114200D+05 -0.115000D-03
  0.171200D+04 -0.895000D-03
  0.389300D+03 -0.462400D-02
  0.110000D+03 -0.185280D-01
  0.355700D+02 -0.573390D-01
  0.125400D+02 -0.132076D+00
  0.464400D+01 -0.172510D+00
  0.129300D+01  0.151814D+00
  0.511800D+00  0.599944D+00
  0.178700D+00  0.387462D+00
   s     1 1.00
  0.129300D+01  0.100000D+01
   s     1 1.00
  0.178700D+00  0.100000D+01
   p     5 1.00
  0.266300D+02  0.146700D-01
  0.594800D+01  0.917640D-01
  0.174200D+01  0.298683D+00
  0.555000D+00  0.498487D+00
  0.172500D+00  0.337023D+00
   p     1 1.00
  0.174200D+01  0.100000D+01
   p     1 1.00
  0.555000D+00  0.100000D+01
   d     1 1.00
  0.165400D+01  0.100000D+01
   d     1 1.00
  0.469000D+00  0.100000D+01
   f     1 1.00
  0.109300D+01  0.100000D+01
  
  2  0
   s    10 1.00
  0.823600D+04  0.531000D-03
  0.123500D+04  0.410800D-02
  0.280800D+03  0.210870D-01
  0.792700D+02  0.818530D-01
  0.255900D+02  0.234817D+00
  0.899700D+01  0.434401D+00
  0.331900D+01  0.346129D+00
  0.905900D+00  0.393780D-01
  0.364300D+00 -0.898300D-02
  0.128500D+00  0.238500D-02
   s    10 1.00
  0.823600D+04 -0.113000D-03
  0.123500D+04 -0.878000D-03
  0.280800D+03 -0.454000D-02
  0.792700D+02 -0.181330D-01
  0.255900D+02 -0.557600D-01
  0.899700D+01 -0.126895D+00
  0.331900D+01 -0.170352D+00
  0.905900D+00  0.140382D+00
  0.364300D+00  0.598684D+00
  0.128500D+00  0.395389D+00
   s     1 1.00
  0.905900D+00  0.100000D+01
   s     1 1.00
  0.364300D+00  0.100000D+01
   p     5 1.00
  0.187100D+02  0.140310D-01
  0.413300D+01  0.868660D-01
  0.120000D+01  0.290216D+00
  0.382700D+00  0.501008D+00
  0.120900D+00  0.343406D+00
   p     1 1.00
  0.382700D+00  0.100000D+01
   p     1 1.00
  0.120900D+00  0.100000D+01
   d     1 1.00
  0.109700D+01  0.100000D+01
   d     1 1.00
  0.318000D+00  0.100000D+01
   f     1 1.00
  0.761000D+00  0.100000D+01
  
  3  0
   s    10 1.00
  0.823600D+04  0.531000D-03
  0.123500D+04  0.410800D-02
  0.280800D+03  0.210870D-01
  0.792700D+02  0.818530D-01
  0.255900D+02  0.234817D+00
  0.899700D+01  0.434401D+00
  0.331900D+01  0.346129D+00
  0.905900D+00  0.393780D-01
  0.364300D+00 -0.898300D-02
  0.128500D+00  0.238500D-02
   s    10 1.00
  0.823600D+04 -0.113000D-03
  0.123500D+04 -0.878000D-03
  0.280800D+03 -0.454000D-02
  0.792700D+02 -0.181330D-01
  0.255900D+02 -0.557600D-01
  0.899700D+01 -0.126895D+00
  0.331900D+01 -0.170352D+00
  0.905900D+00  0.140382D+00
  0.364300D+00  0.598684D+00
  0.128500D+00  0.395389D+00
   s     1 1.00
  0.905900D+00  0.100000D+01
   s     1 1.00
  0.364300D+00  0.100000D+01
   p     5 1.00
  0.187100D+02  0.140310D-01
  0.413300D+01  0.868660D-01
  0.120000D+01  0.290216D+00
  0.382700D+00  0.501008D+00
  0.120900D+00  0.343406D+00
   p     1 1.00
  0.382700D+00  0.100000D+01
   p     1 1.00
  0.120900D+00  0.100000D+01
   d     1 1.00
  0.109700D+01  0.100000D+01
   d     1 1.00
  0.318000D+00  0.100000D+01
   f     1 1.00
  0.761000D+00  0.100000D+01
  
  4  0
   s    10 1.00
  0.823600D+04  0.531000D-03
  0.123500D+04  0.410800D-02
  0.280800D+03  0.210870D-01
  0.792700D+02  0.818530D-01
  0.255900D+02  0.234817D+00
  0.899700D+01  0.434401D+00
  0.331900D+01  0.346129D+00
  0.905900D+00  0.393780D-01
  0.364300D+00 -0.898300D-02
  0.128500D+00  0.238500D-02
   s    10 1.00
  0.823600D+04 -0.113000D-03
  0.123500D+04 -0.878000D-03
  0.280800D+03 -0.454000D-02
  0.792700D+02 -0.181330D-01
  0.255900D+02 -0.557600D-01
  0.899700D+01 -0.126895D+00
  0.331900D+01 -0.170352D+00
  0.905900D+00  0.140382D+00
  0.364300D+00  0.598684D+00
  0.128500D+00  0.395389D+00
   s     1 1.00
  0.905900D+00  0.100000D+01
   s     1 1.00
  0.364300D+00  0.100000D+01
   p     5 1.00
  0.187100D+02  0.140310D-01
  0.413300D+01  0.868660D-01
  0.120000D+01  0.290216D+00
  0.382700D+00  0.501008D+00
  0.120900D+00  0.343406D+00
   p     1 1.00
  0.382700D+00  0.100000D+01
   p     1 1.00
  0.120900D+00  0.100000D+01
   d     1 1.00
  0.109700D+01  0.100000D+01
   d     1 1.00
  0.318000D+00  0.100000D+01
   f     1 1.00
  0.761000D+00  0.100000D+01
  
  5  0
   s    10 1.00
  0.823600D+04  0.531000D-03
  0.123500D+04  0.410800D-02
  0.280800D+03  0.210870D-01
  0.792700D+02  0.818530D-01
  0.255900D+02  0.234817D+00
  0.899700D+01  0.434401D+00
  0.331900D+01  0.346129D+00
  0.905900D+00  0.393780D-01
  0.364300D+00 -0.898300D-02
  0.128500D+00  0.238500D-02
   s    10 1.00
  0.823600D+04 -0.113000D-03
  0.123500D+04 -0.878000D-03
  0.280800D+03 -0.454000D-02
  0.792700D+02 -0.181330D-01
  0.255900D+02 -0.557600D-01
  0.899700D+01 -0.126895D+00
  0.331900D+01 -0.170352D+00
  0.905900D+00  0.140382D+00
  0.364300D+00  0.598684D+00
  0.128500D+00  0.395389D+00
   s     1 1.00
  0.905900D+00  0.100000D+01
   s     1 1.00
  0.364300D+00  0.100000D+01
   p     5 1.00
  0.187100D+02  0.140310D-01
  0.413300D+01  0.868660D-01
  0.120000D+01  0.290216D+00
  0.382700D+00  0.501008D+00
  0.120900D+00  0.343406D+00
   p     1 1.00
  0.382700D+00  0.100000D+01
   p     1 1.00
  0.120900D+00  0.100000D+01
   d     1 1.00
  0.109700D+01  0.100000D+01
   d     1 1.00
  0.318000D+00  0.100000D+01
   f     1 1.00
  0.761000D+00  0.100000D+01
  
  6  0
   s    10 1.00
  0.823600D+04  0.531000D-03
  0.123500D+04  0.410800D-02
  0.280800D+03  0.210870D-01
  0.792700D+02  0.818530D-01
  0.255900D+02  0.234817D+00
  0.899700D+01  0.434401D+00
  0.331900D+01  0.346129D+00
  0.905900D+00  0.393780D-01
  0.364300D+00 -0.898300D-02
  0.128500D+00  0.238500D-02
   s    10 1.00
  0.823600D+04 -0.113000D-03
  0.123500D+04 -0.878000D-03
  0.280800D+03 -0.454000D-02
  0.792700D+02 -0.181330D-01
  0.255900D+02 -0.557600D-01
  0.899700D+01 -0.126895D+00
  0.331900D+01 -0.170352D+00
  0.905900D+00  0.140382D+00
  0.364300D+00  0.598684D+00
  0.128500D+00  0.395389D+00
   s     1 1.00
  0.905900D+00  0.100000D+01
   s     1 1.00
  0.364300D+00  0.100000D+01
   p     5 1.00
  0.187100D+02  0.140310D-01
  0.413300D+01  0.868660D-01
  0.120000D+01  0.290216D+00
  0.382700D+00  0.501008D+00
  0.120900D+00  0.343406D+00
   p     1 1.00
  0.382700D+00  0.100000D+01
   p     1 1.00
  0.120900D+00  0.100000D+01
   d     1 1.00
  0.109700D+01  0.100000D+01
   d     1 1.00
  0.318000D+00  0.100000D+01
   f     1 1.00
  0.761000D+00  0.100000D+01
  
  7  0
   s    10 1.00
  0.823600D+04  0.531000D-03
  0.123500D+04  0.410800D-02
  0.280800D+03  0.210870D-01
  0.792700D+02  0.818530D-01
  0.255900D+02  0.234817D+00
  0.899700D+01  0.434401D+00
  0.331900D+01  0.346129D+00
  0.905900D+00  0.393780D-01
  0.364300D+00 -0.898300D-02
  0.128500D+00  0.238500D-02
   s    10 1.00
  0.823600D+04 -0.113000D-03
  0.123500D+04 -0.878000D-03
  0.280800D+03 -0.454000D-02
  0.792700D+02 -0.181330D-01
  0.255900D+02 -0.557600D-01
  0.899700D+01 -0.126895D+00
  0.331900D+01 -0.170352D+00
  0.905900D+00  0.140382D+00
  0.364300D+00  0.598684D+00
  0.128500D+00  0.395389D+00
   s     1 1.00
  0.905900D+00  0.100000D+01
   s     1 1.00
  0.364300D+00  0.100000D+01
   p     5 1.00
  0.187100D+02  0.140310D-01
  0.413300D+01  0.868660D-01
  0.120000D+01  0.290216D+00
  0.382700D+00  0.501008D+00
  0.120900D+00  0.343406D+00
   p     1 1.00
  0.382700D+00  0.100000D+01
   p     1 1.00
  0.120900D+00  0.100000D+01
   d     1 1.00
  0.109700D+01  0.100000D+01
   d     1 1.00
  0.318000D+00  0.100000D+01
   f     1 1.00
  0.761000D+00  0.100000D+01
  
  8  0
   s     4 1.00
  0.130100D+02  0.196850D-01
  0.196200D+01  0.137977D+00
  0.444600D+00  0.478148D+00
  0.122000D+00  0.501240D+00
   s     1 1.00
  0.122000D+00  0.100000D+01
   p     1 1.00
  0.727000D+00  0.100000D+01
  
  9  0
   s     4 1.00
  0.130100D+02  0.196850D-01
  0.196200D+01  0.137977D+00
  0.444600D+00  0.478148D+00
  0.122000D+00  0.501240D+00
   s     1 1.00
  0.122000D+00  0.100000D+01
   p     1 1.00
  0.727000D+00  0.100000D+01
  
 10  0
   s     4 1.00
  0.130100D+02  0.196850D-01
  0.196200D+01  0.137977D+00
  0.444600D+00  0.478148D+00
  0.122000D+00  0.501240D+00
   s     1 1.00
  0.122000D+00  0.100000D+01
   p     1 1.00
  0.727000D+00  0.100000D+01
  
 11  0
   s     4 1.00
  0.130100D+02  0.196850D-01
  0.196200D+01  0.137977D+00
  0.444600D+00  0.478148D+00
  0.122000D+00  0.501240D+00
   s     1 1.00
  0.122000D+00  0.100000D+01
   p     1 1.00
  0.727000D+00  0.100000D+01
  
 12  0
   s     4 1.00
  0.130100D+02  0.196850D-01
  0.196200D+01  0.137977D+00
  0.444600D+00  0.478148D+00
  0.122000D+00  0.501240D+00
   s     1 1.00
  0.122000D+00  0.100000D+01
   p     1 1.00
  0.727000D+00  0.100000D+01
  
 13  0
   s     4 1.00
  0.130100D+02  0.196850D-01
  0.196200D+01  0.137977D+00
  0.444600D+00  0.478148D+00
  0.122000D+00  0.501240D+00
   s     1 1.00
  0.122000D+00  0.100000D+01
   p     1 1.00
  0.727000D+00  0.100000D+01
  
 14  0
   s     4 1.00
  0.130100D+02  0.196850D-01
  0.196200D+01  0.137977D+00
  0.444600D+00  0.478148D+00
  0.122000D+00  0.501240D+00
   s     1 1.00
  0.122000D+00  0.100000D+01
   p     1 1.00
  0.727000D+00  0.100000D+01
  
[MO]
 Sym= __1_A__
 Ene=   1.00000000000000     
 Spin= Alpha
 Occup=    1.00000000000000     
                     1  1.549545299666766E-004
                     2  0.998314958314260     
                     3 -3.079674782701019E-003
                     4  1.975520891789239E-003
                     5  6.543953850774910E-003
                     6  2.748106485418214E-003
                     7  5.892040386071945E-003
                     8  0.000000000000000E+000
                     9 -7.381779346997570E-004
                    10 -5.819128911269776E-004
                    11  0.000000000000000E+000
                    12 -2.570784172082406E-003
                    13 -1.522574481308481E-003
                    14  0.000000000000000E+000
                    15 -5.470545285679049E-005
                    16  0.000000000000000E+000
                    17  0.000000000000000E+000
                    18 -1.889739450021085E-004
                    19 -6.897146024575737E-005
                    20  1.257241384715367E-004
                    21  0.000000000000000E+000
                    22  0.000000000000000E+000
                    23 -1.877629660280987E-004
                    24  5.911204395810144E-004
                    25  0.000000000000000E+000
                    26  3.154938025237945E-006
                    27 -5.469950136649284E-005
                    28  0.000000000000000E+000
                    29  0.000000000000000E+000
                    30  1.748995480385610E-005
                    31 -1.099595054974964E-004
                    32 -3.975944174595365E-004
                    33  3.790005061438902E-004
                    34  3.263611755580731E-004
                    35 -6.426401983247499E-006
                    36  1.224678725270992E-004
                    37 -2.881476346492025E-003
                    38  0.000000000000000E+000
                    39  5.021202721984787E-004
                    40  2.466174248073881E-004
                    41  0.000000000000000E+000
                    42 -2.489391679873115E-003
                    43  5.039265927108895E-003
                    44  0.000000000000000E+000
                    45  4.266381187265871E-006
                    46  0.000000000000000E+000
                    47  0.000000000000000E+000
                    48 -1.328818771950531E-004
                    49  2.295775917504188E-005
                    50 -1.850655724034737E-004
                    51  0.000000000000000E+000
                    52  0.000000000000000E+000
                    53  2.068361984160956E-004
                    54  8.147061476123979E-004
                    55  0.000000000000000E+000
                    56 -8.538646620118800E-006
                    57 -8.835851666903077E-005
                    58  0.000000000000000E+000
                    59  0.000000000000000E+000
                    60 -2.181790933104621E-005
                    61 -1.431898505815863E-004
                    62 -5.992786787134603E-004
                    63 -2.383510097144831E-003
                    64 -8.415252777268083E-005
                    65  2.348746640658054E-003
                    66 -6.121947316546180E-004
                    67  1.400869779958766E-004
                    68  0.000000000000000E+000
                    69  4.493638073989312E-004
                    70  9.003663245859634E-004
                    71  0.000000000000000E+000
                    72 -1.643238415238018E-003
                    73  7.977634837031359E-004
                    74  0.000000000000000E+000
                    75 -4.398710236577544E-005
                    76  0.000000000000000E+000
                    77  0.000000000000000E+000
                    78 -7.335296012080071E-005
                    79 -2.727168721982246E-005
                    80 -1.511144888415943E-004
                    81  0.000000000000000E+000
                    82  0.000000000000000E+000
                    83  1.244812954342031E-004
                    84  8.588412174512297E-005
                    85  0.000000000000000E+000
                    86  6.530267182665015E-006
                    87 -4.033991392852933E-005
                    88  0.000000000000000E+000
                    89  0.000000000000000E+000
                    90 -1.196609994364585E-005
                    91 -1.583866794906809E-004
                    92 -1.105855638445736E-004
                    93 -3.301607875320128E-004
                    94  2.065242315395802E-004
                    95 -4.082434960503707E-004
                    96  1.645189162678272E-004
                    97 -1.699522025262894E-004
                    98  0.000000000000000E+000
                    99  4.107241750143739E-004
                   100  3.382712491164974E-004
                   101  0.000000000000000E+000
                   102  6.345023646623009E-004
                   103 -1.487014835993026E-003
                   104  0.000000000000000E+000
                   105 -1.424585758827611E-005
                   106  0.000000000000000E+000
                   107  0.000000000000000E+000
                   108 -2.967544353748786E-005
                   109 -9.804172816079272E-006
                   110  1.690820148010057E-004
                   111  0.000000000000000E+000
                   112  0.000000000000000E+000
                   113 -7.516006924317794E-005
                   114 -1.602906708624684E-005
                   115  0.000000000000000E+000
                   116 -2.324491034042427E-005
                   117 -2.516981192874032E-005
                   118  0.000000000000000E+000
                   119  0.000000000000000E+000
                   120  2.000972222486227E-005
                   121 -2.403803414151778E-005
                   122 -2.710161106513224E-004
                   123 -6.898815839716407E-004
                   124  1.682369727719028E-004
                   125  4.297554468472443E-004
                   126 -2.770260188957528E-005
                   127 -3.028831021876085E-004
                   128  0.000000000000000E+000
                   129  2.306484347177483E-004
                   130  6.195281467775520E-004
                   131  0.000000000000000E+000
                   132  3.017372256680851E-004
                   133  2.109914768228175E-003
                   134  0.000000000000000E+000
                   135  1.265554352429754E-005
                   136  0.000000000000000E+000
                   137  0.000000000000000E+000
                   138  4.877426669664206E-005
                   139 -2.066527722279011E-006
                   140  2.176244478222079E-004
                   141  0.000000000000000E+000
                   142  0.000000000000000E+000
                   143  3.983213391294504E-004
                   144  2.719161548251469E-004
                   145  0.000000000000000E+000
                   146 -1.121881352799965E-005
                   147 -6.558984437336069E-005
                   148  0.000000000000000E+000
                   149  0.000000000000000E+000
                   150 -2.024556185284305E-005
                   151 -5.679559573825703E-005
                   152 -1.665286608596693E-004
                   153 -5.342801378946949E-004
                   154  2.130337855361480E-005
                   155  4.279586521278764E-004
                   156  1.749003009417854E-005
                   157  2.404143767558768E-005
                   158  0.000000000000000E+000
                   159  3.787389804603724E-005
                   160 -3.084249956028306E-005
                   161  0.000000000000000E+000
                   162  6.885210916974702E-004
                   163 -3.911783931020195E-004
                   164  0.000000000000000E+000
                   165  4.827035297968275E-007
                   166  0.000000000000000E+000
                   167  0.000000000000000E+000
                   168 -1.354677009876866E-006
                   169  1.476023868924755E-005
                   170  5.527048829803297E-005
                   171  0.000000000000000E+000
                   172  0.000000000000000E+000
                   173  1.588163719561053E-005
                   174  2.795583942515477E-006
                   175  0.000000000000000E+000
                   176  5.251718465687137E-006
                   177 -9.218444715532949E-006
                   178  0.000000000000000E+000
                   179  0.000000000000000E+000
                   180 -2.944624151842189E-005
                   181 -1.556021784214237E-005
                   182 -1.632606802853617E-004
                   183 -4.715573017393005E-004
                   184  4.365297115697252E-005
                   185  2.351943982634194E-004
                   186 -4.937721460986927E-005
                   187 -7.184280128410549E-005
                   188  0.000000000000000E+000
                   189  2.420568548346624E-004
                   190  1.021604773159019E-004
                   191  0.000000000000000E+000
                   192  1.375334715035278E-003
                   193 -2.903038205798379E-004
                   194  0.000000000000000E+000
                   195  8.885532854682412E-007
                   196  0.000000000000000E+000
                   197  0.000000000000000E+000
                   198 -3.854917337817568E-006
                   199  8.534660386224707E-006
                   200  6.271464366686127E-006
                   201  0.000000000000000E+000
                   202  0.000000000000000E+000
                   203 -8.996388899680826E-005
                   204 -2.039131085491950E-004
                   205  0.000000000000000E+000
                   206 -7.653047710237602E-006
                   207 -4.812672930065066E-006
                   208  0.000000000000000E+000
                   209  0.000000000000000E+000
                   210  1.074402087394325E-005
                   211 -3.874033153372525E-006
                   212  1.411672744718492E-005
                   213 -2.693945447056814E-005
                   214 -9.750977671179064E-007
                   215 -5.997299690699530E-007
                   216  0.000000000000000E+000
                   217 -1.442751661393920E-003
                   218 -4.380559655329853E-004
                   219 -2.307567660094182E-004
                   220  6.355998834114420E-005
                   221  0.000000000000000E+000
                   222 -1.964587538733103E-004
                   223 -5.390150964755310E-004
                   224  3.160731752988987E-005
                   225 -6.958551428993442E-005
                   226  0.000000000000000E+000
                   227  1.365981080376104E-004
                   228 -7.204313203682193E-004
                   229 -4.090642956741958E-005
                   230 -1.681556307299420E-005
                   231  0.000000000000000E+000
                   232  2.748265467655608E-005
                   233 -6.428774348886975E-004
                   234  1.476101449368954E-005
                   235 -2.518956758891322E-006
                   236  0.000000000000000E+000
                   237  3.125917210726958E-005
                   238 -3.749961534209523E-004
                   239  9.380014892748211E-007
                   240  7.796711409407007E-006
                   241  0.000000000000000E+000
                   242 -7.337577848846416E-005
                   243  3.845771387585904E-005
                   244  6.103565685763490E-007
                   245  2.978090422299280E-005
                   246  0.000000000000000E+000
 Sym= __2_A__
 Ene=   2.00000000000000     
 Spin= Alpha
 Occup=    1.00000000000000     
                     1  1.000568905300480E-005
                     2  3.504335706237919E-004
                     3 -3.420355437949883E-003
                     4 -1.270018497025973E-004
                     5 -1.657205216310088E-003
                     6  1.203352014743575E-003
                     7 -4.356824184044069E-003
                     8  0.000000000000000E+000
                     9  5.134174031536292E-005
                    10  7.039091534409494E-005
                    11  0.000000000000000E+000
                    12 -2.046298077844033E-004
                    13  3.878786157298103E-004
                    14  0.000000000000000E+000
                    15 -2.432515090473329E-005
                    16  0.000000000000000E+000
                    17  0.000000000000000E+000
                    18  7.987246071885918E-005
                    19 -2.936620449524534E-005
                    20  1.608610942271725E-004
                    21  0.000000000000000E+000
                    22  0.000000000000000E+000
                    23 -6.262037919973098E-005
                    24  6.228290902695887E-005
                    25  0.000000000000000E+000
                    26  1.629349069425049E-005
                    27 -6.806683627128990E-005
                    28  0.000000000000000E+000
                    29  0.000000000000000E+000
                    30  3.164204791438689E-005
                    31 -1.300417597294646E-004
                    32  -1.00077552224493     
                    33 -9.539235946334617E-003
                    34 -2.887682813908124E-003
                    35  8.241988577375887E-003
                    36  4.253726964682944E-004
                    37  5.048210098722362E-003
                    38  0.000000000000000E+000
                    39 -1.631223238754704E-004
                    40 -5.334031968865354E-004
                    41  0.000000000000000E+000
                    42 -2.465416707071476E-004
                    43 -4.855509979746732E-003
                    44  0.000000000000000E+000
                    45  5.379321496844785E-004
                    46  0.000000000000000E+000
                    47  0.000000000000000E+000
                    48  2.483770724763556E-004
                    49  2.205284422822958E-006
                    50 -5.566455467171524E-004
                    51  0.000000000000000E+000
                    52  0.000000000000000E+000
                    53  8.965369820459220E-004
                    54  1.193293210821556E-005
                    55  0.000000000000000E+000
                    56 -1.182603317419524E-006
                    57 -1.140201238033692E-004
                    58  0.000000000000000E+000
                    59  0.000000000000000E+000
                    60 -2.242111451035539E-006
                    61 -4.004098651115266E-004
                    62 -1.452450963364790E-002
                    63  2.380854822904002E-003
                    64  2.619672573870981E-004
                    65 -3.035596860365513E-003
                    66  2.782843131113304E-004
                    67 -4.345475820706896E-004
                    68  0.000000000000000E+000
                    69 -7.151713550565451E-004
                    70 -4.549260822753998E-006
                    71  0.000000000000000E+000
                    72  2.008365908501022E-003
                    73  2.436956318723380E-005
                    74  0.000000000000000E+000
                    75 -2.737409603253567E-005
                    76  0.000000000000000E+000
                    77  0.000000000000000E+000
                    78  2.924300112843032E-005
                    79  5.914874875400046E-007
                    80  4.109901969660914E-004
                    81  0.000000000000000E+000
                    82  0.000000000000000E+000
                    83  6.172311568131903E-004
                    84  3.373788811384431E-004
                    85  0.000000000000000E+000
                    86 -3.378937023754989E-005
                    87  5.937885767056092E-005
                    88  0.000000000000000E+000
                    89  0.000000000000000E+000
                    90 -6.191788394087100E-005
                    91 -1.488879579234042E-004
                    92 -1.601113299403880E-002
                    93  2.387160338651875E-003
                    94  2.585062656676224E-004
                    95 -3.059448135196432E-003
                    96 -5.693742054699985E-004
                    97 -5.433353810437265E-004
                    98  0.000000000000000E+000
                    99  7.329051163330789E-004
                   100 -5.483594647378985E-005
                   101  0.000000000000000E+000
                   102 -2.192034888188808E-003
                   103 -3.893232784510462E-005
                   104  0.000000000000000E+000
                   105 -3.103782924014567E-005
                   106  0.000000000000000E+000
                   107  0.000000000000000E+000
                   108  3.177192793744950E-005
                   109  1.558453113921853E-005
                   110  3.970901945251457E-004
                   111  0.000000000000000E+000
                   112  0.000000000000000E+000
                   113  6.183990792291068E-004
                   114 -3.095089069383583E-004
                   115  0.000000000000000E+000
                   116  3.851830789468567E-005
                   117  6.590563434452034E-005
                   118  0.000000000000000E+000
                   119  0.000000000000000E+000
                   120  5.516206991787078E-005
                   121 -1.426944017271004E-004
                   122 -2.182641374315717E-004
                   123  5.331765272620298E-004
                   124 -2.216589149002920E-004
                   125  7.341608639808861E-005
                   126  9.027741564823399E-006
                   127  5.803390189859047E-004
                   128  0.000000000000000E+000
                   129  7.176235699595517E-005
                   130 -5.549485454229963E-004
                   131  0.000000000000000E+000
                   132 -2.204783616217513E-004
                   133 -8.187806148283863E-004
                   134  0.000000000000000E+000
                   135 -1.654994529092868E-005
                   136  0.000000000000000E+000
                   137  0.000000000000000E+000
                   138  1.807290326130978E-006
                   139 -5.864124172391691E-005
                   140 -1.352641737848802E-004
                   141  0.000000000000000E+000
                   142  0.000000000000000E+000
                   143 -2.432878115592808E-004
                   144  1.435298023688856E-004
                   145  0.000000000000000E+000
                   146 -8.755152191263993E-006
                   147  3.452850805821640E-005
                   148  0.000000000000000E+000
                   149  0.000000000000000E+000
                   150  5.367211382961567E-005
                   151 -3.419328556349907E-005
                   152 -4.729289511716204E-004
                   153  5.163240326606595E-004
                   154 -2.286277739719327E-004
                   155  9.790482033148418E-005
                   156  4.579590082071238E-005
                   157  6.412469230049207E-004
                   158  0.000000000000000E+000
                   159 -7.351539483708962E-005
                   160 -5.952686637236166E-004