[Molden Format]
[Atoms] AU
  N     1    7     0.0000000000   -4.2907334100    0.0000000000        
  C     2    6     0.0000000000   -1.7772236300    0.0000000000        
  C     3    6    -2.3389203600   -0.4111016300    0.0000000000        
  C     4    6     2.3389203600   -0.4111016300    0.0000000000        
  C     5    6    -2.2998668500    2.1639215300    0.0000000000        
  C     6    6     2.2998668500    2.1639215300    0.0000000000        
  C     7    6     0.0000000000    3.4755251800    0.0000000000        
  H     8    1    -9.6498036300  -10.2438523400    0.0000000000        
  H     9    1     1.6528040300   -5.3103747800    0.0000000000        
  H    10    1    -4.0745407300   -1.4447408500    0.0000000000        
  H    11    1     4.0745407300   -1.4447408500    0.0000000000        
  H    12    1    -4.0420632100    3.1963889500    0.0000000000        
  H    13    1     4.0420632100    3.1963889500    0.0000000000        
  H    14    1     0.0000000000    5.5020335600    0.0000000000        
[5D]
[7F]
[GTO]
  1  0
   s    12 1.00
  0.114200D+05  0.172695D-04
  0.171200D+04  0.134411D-03
  0.389300D+03  0.694561D-03
  0.110000D+03  0.278531D-02
  0.355700D+02  0.863457D-02
  0.125400D+02  0.199805D-01
  0.464400D+01  0.262908D-01
  0.129300D+01 -0.243845D-01
  0.511800D+00 -0.924934D-01
  0.178700D+00 -0.339683D+00
  0.246240D-01  0.345111D+00
  0.112530D-01  0.752750D+00
   s    10 1.00
  0.114200D+05  0.523000D-03
  0.171200D+04  0.404500D-02
  0.389300D+03  0.207750D-01
  0.110000D+03  0.807269D-01
  0.355700D+02  0.233074D+00
  0.125400D+02  0.433501D+00
  0.464400D+01  0.347472D+00
  0.129300D+01  0.412620D-01
  0.511800D+00 -0.850799D-02
  0.178700D+00  0.238400D-02
   s    10 1.00
  0.114200D+05 -0.115000D-03
  0.171200D+04 -0.895000D-03
  0.389300D+03 -0.462400D-02
  0.110000D+03 -0.185280D-01
  0.355700D+02 -0.573390D-01
  0.125400D+02 -0.132076D+00
  0.464400D+01 -0.172510D+00
  0.129300D+01  0.151814D+00
  0.511800D+00  0.599944D+00
  0.178700D+00  0.387462D+00
   s     1 1.00
  0.129300D+01  0.100000D+01
   s     1 1.00
  0.178700D+00  0.100000D+01
   p     5 1.00
  0.266300D+02  0.146700D-01
  0.594800D+01  0.917640D-01
  0.174200D+01  0.298683D+00
  0.555000D+00  0.498487D+00
  0.172500D+00  0.337023D+00
   p     1 1.00
  0.174200D+01  0.100000D+01
   p     1 1.00
  0.555000D+00  0.100000D+01
   d     1 1.00
  0.165400D+01  0.100000D+01
   d     1 1.00
  0.469000D+00  0.100000D+01
   f     1 1.00
  0.109300D+01  0.100000D+01
  
  2  0
   s    10 1.00
  0.823600D+04  0.531000D-03
  0.123500D+04  0.410800D-02
  0.280800D+03  0.210870D-01
  0.792700D+02  0.818530D-01
  0.255900D+02  0.234817D+00
  0.899700D+01  0.434401D+00
  0.331900D+01  0.346129D+00
  0.905900D+00  0.393780D-01
  0.364300D+00 -0.898300D-02
  0.128500D+00  0.238500D-02
   s    10 1.00
  0.823600D+04 -0.113000D-03
  0.123500D+04 -0.878000D-03
  0.280800D+03 -0.454000D-02
  0.792700D+02 -0.181330D-01
  0.255900D+02 -0.557600D-01
  0.899700D+01 -0.126895D+00
  0.331900D+01 -0.170352D+00
  0.905900D+00  0.140382D+00
  0.364300D+00  0.598684D+00
  0.128500D+00  0.395389D+00
   s     1 1.00
  0.905900D+00  0.100000D+01
   s     1 1.00
  0.364300D+00  0.100000D+01
   p     5 1.00
  0.187100D+02  0.140310D-01
  0.413300D+01  0.868660D-01
  0.120000D+01  0.290216D+00
  0.382700D+00  0.501008D+00
  0.120900D+00  0.343406D+00
   p     1 1.00
  0.382700D+00  0.100000D+01
   p     1 1.00
  0.120900D+00  0.100000D+01
   d     1 1.00
  0.109700D+01  0.100000D+01
   d     1 1.00
  0.318000D+00  0.100000D+01
   f     1 1.00
  0.761000D+00  0.100000D+01
  
  3  0
   s    10 1.00
  0.823600D+04  0.531000D-03
  0.123500D+04  0.410800D-02
  0.280800D+03  0.210870D-01
  0.792700D+02  0.818530D-01
  0.255900D+02  0.234817D+00
  0.899700D+01  0.434401D+00
  0.331900D+01  0.346129D+00
  0.905900D+00  0.393780D-01
  0.364300D+00 -0.898300D-02
  0.128500D+00  0.238500D-02
   s    10 1.00
  0.823600D+04 -0.113000D-03
  0.123500D+04 -0.878000D-03
  0.280800D+03 -0.454000D-02
  0.792700D+02 -0.181330D-01
  0.255900D+02 -0.557600D-01
  0.899700D+01 -0.126895D+00
  0.331900D+01 -0.170352D+00
  0.905900D+00  0.140382D+00
  0.364300D+00  0.598684D+00
  0.128500D+00  0.395389D+00
   s     1 1.00
  0.905900D+00  0.100000D+01
   s     1 1.00
  0.364300D+00  0.100000D+01
   p     5 1.00
  0.187100D+02  0.140310D-01
  0.413300D+01  0.868660D-01
  0.120000D+01  0.290216D+00
  0.382700D+00  0.501008D+00
  0.120900D+00  0.343406D+00
   p     1 1.00
  0.382700D+00  0.100000D+01
   p     1 1.00
  0.120900D+00  0.100000D+01
   d     1 1.00
  0.109700D+01  0.100000D+01
   d     1 1.00
  0.318000D+00  0.100000D+01
   f     1 1.00
  0.761000D+00  0.100000D+01
  
  4  0
   s    10 1.00
  0.823600D+04  0.531000D-03
  0.123500D+04  0.410800D-02
  0.280800D+03  0.210870D-01
  0.792700D+02  0.818530D-01
  0.255900D+02  0.234817D+00
  0.899700D+01  0.434401D+00
  0.331900D+01  0.346129D+00
  0.905900D+00  0.393780D-01
  0.364300D+00 -0.898300D-02
  0.128500D+00  0.238500D-02
   s    10 1.00
  0.823600D+04 -0.113000D-03
  0.123500D+04 -0.878000D-03
  0.280800D+03 -0.454000D-02
  0.792700D+02 -0.181330D-01
  0.255900D+02 -0.557600D-01
  0.899700D+01 -0.126895D+00
  0.331900D+01 -0.170352D+00
  0.905900D+00  0.140382D+00
  0.364300D+00  0.598684D+00
  0.128500D+00  0.395389D+00
   s     1 1.00
  0.905900D+00  0.100000D+01
   s     1 1.00
  0.364300D+00  0.100000D+01
   p     5 1.00
  0.187100D+02  0.140310D-01
  0.413300D+01  0.868660D-01
  0.120000D+01  0.290216D+00
  0.382700D+00  0.501008D+00
  0.120900D+00  0.343406D+00
   p     1 1.00
  0.382700D+00  0.100000D+01
   p     1 1.00
  0.120900D+00  0.100000D+01
   d     1 1.00
  0.109700D+01  0.100000D+01
   d     1 1.00
  0.318000D+00  0.100000D+01
   f     1 1.00
  0.761000D+00  0.100000D+01
  
  5  0
   s    10 1.00
  0.823600D+04  0.531000D-03
  0.123500D+04  0.410800D-02
  0.280800D+03  0.210870D-01
  0.792700D+02  0.818530D-01
  0.255900D+02  0.234817D+00
  0.899700D+01  0.434401D+00
  0.331900D+01  0.346129D+00
  0.905900D+00  0.393780D-01
  0.364300D+00 -0.898300D-02
  0.128500D+00  0.238500D-02
   s    10 1.00
  0.823600D+04 -0.113000D-03
  0.123500D+04 -0.878000D-03
  0.280800D+03 -0.454000D-02
  0.792700D+02 -0.181330D-01
  0.255900D+02 -0.557600D-01
  0.899700D+01 -0.126895D+00
  0.331900D+01 -0.170352D+00
  0.905900D+00  0.140382D+00
  0.364300D+00  0.598684D+00
  0.128500D+00  0.395389D+00
   s     1 1.00
  0.905900D+00  0.100000D+01
   s     1 1.00
  0.364300D+00  0.100000D+01
   p     5 1.00
  0.187100D+02  0.140310D-01
  0.413300D+01  0.868660D-01
  0.120000D+01  0.290216D+00
  0.382700D+00  0.501008D+00
  0.120900D+00  0.343406D+00
   p     1 1.00
  0.382700D+00  0.100000D+01
   p     1 1.00
  0.120900D+00  0.100000D+01
   d     1 1.00
  0.109700D+01  0.100000D+01
   d     1 1.00
  0.318000D+00  0.100000D+01
   f     1 1.00
  0.761000D+00  0.100000D+01
  
  6  0
   s    10 1.00
  0.823600D+04  0.531000D-03
  0.123500D+04  0.410800D-02
  0.280800D+03  0.210870D-01
  0.792700D+02  0.818530D-01
  0.255900D+02  0.234817D+00
  0.899700D+01  0.434401D+00
  0.331900D+01  0.346129D+00
  0.905900D+00  0.393780D-01
  0.364300D+00 -0.898300D-02
  0.128500D+00  0.238500D-02
   s    10 1.00
  0.823600D+04 -0.113000D-03
  0.123500D+04 -0.878000D-03
  0.280800D+03 -0.454000D-02
  0.792700D+02 -0.181330D-01
  0.255900D+02 -0.557600D-01
  0.899700D+01 -0.126895D+00
  0.331900D+01 -0.170352D+00
  0.905900D+00  0.140382D+00
  0.364300D+00  0.598684D+00
  0.128500D+00  0.395389D+00
   s     1 1.00
  0.905900D+00  0.100000D+01
   s     1 1.00
  0.364300D+00  0.100000D+01
   p     5 1.00
  0.187100D+02  0.140310D-01
  0.413300D+01  0.868660D-01
  0.120000D+01  0.290216D+00
  0.382700D+00  0.501008D+00
  0.120900D+00  0.343406D+00
   p     1 1.00
  0.382700D+00  0.100000D+01
   p     1 1.00
  0.120900D+00  0.100000D+01
   d     1 1.00
  0.109700D+01  0.100000D+01
   d     1 1.00
  0.318000D+00  0.100000D+01
   f     1 1.00
  0.761000D+00  0.100000D+01
  
  7  0
   s    10 1.00
  0.823600D+04  0.531000D-03
  0.123500D+04  0.410800D-02
  0.280800D+03  0.210870D-01
  0.792700D+02  0.818530D-01
  0.255900D+02  0.234817D+00
  0.899700D+01  0.434401D+00
  0.331900D+01  0.346129D+00
  0.905900D+00  0.393780D-01
  0.364300D+00 -0.898300D-02
  0.128500D+00  0.238500D-02
   s    10 1.00
  0.823600D+04 -0.113000D-03
  0.123500D+04 -0.878000D-03
  0.280800D+03 -0.454000D-02
  0.792700D+02 -0.181330D-01
  0.255900D+02 -0.557600D-01
  0.899700D+01 -0.126895D+00
  0.331900D+01 -0.170352D+00
  0.905900D+00  0.140382D+00
  0.364300D+00  0.598684D+00
  0.128500D+00  0.395389D+00
   s     1 1.00
  0.905900D+00  0.100000D+01
   s     1 1.00
  0.364300D+00  0.100000D+01
   p     5 1.00
  0.187100D+02  0.140310D-01
  0.413300D+01  0.868660D-01
  0.120000D+01  0.290216D+00
  0.382700D+00  0.501008D+00
  0.120900D+00  0.343406D+00
   p     1 1.00
  0.382700D+00  0.100000D+01
   p     1 1.00
  0.120900D+00  0.100000D+01
   d     1 1.00
  0.109700D+01  0.100000D+01
   d     1 1.00
  0.318000D+00  0.100000D+01
   f     1 1.00
  0.761000D+00  0.100000D+01
  
  8  0
   s     4 1.00
  0.130100D+02  0.196850D-01
  0.196200D+01  0.137977D+00
  0.444600D+00  0.478148D+00
  0.122000D+00  0.501240D+00
   s     1 1.00
  0.122000D+00  0.100000D+01
   p     1 1.00
  0.727000D+00  0.100000D+01
  
  9  0
   s     4 1.00
  0.130100D+02  0.196850D-01
  0.196200D+01  0.137977D+00
  0.444600D+00  0.478148D+00
  0.122000D+00  0.501240D+00
   s     1 1.00
  0.122000D+00  0.100000D+01
   p     1 1.00
  0.727000D+00  0.100000D+01
  
 10  0
   s     4 1.00
  0.130100D+02  0.196850D-01
  0.196200D+01  0.137977D+00
  0.444600D+00  0.478148D+00
  0.122000D+00  0.501240D+00
   s     1 1.00
  0.122000D+00  0.100000D+01
   p     1 1.00
  0.727000D+00  0.100000D+01
  
 11  0
   s     4 1.00
  0.130100D+02  0.196850D-01
  0.196200D+01  0.137977D+00
  0.444600D+00  0.478148D+00
  0.122000D+00  0.501240D+00
   s     1 1.00
  0.122000D+00  0.100000D+01
   p     1 1.00
  0.727000D+00  0.100000D+01
  
 12  0
   s     4 1.00
  0.130100D+02  0.196850D-01
  0.196200D+01  0.137977D+00
  0.444600D+00  0.478148D+00
  0.122000D+00  0.501240D+00
   s     1 1.00
  0.122000D+00  0.100000D+01
   p     1 1.00
  0.727000D+00  0.100000D+01
  
 13  0
   s     4 1.00
  0.130100D+02  0.196850D-01
  0.196200D+01  0.137977D+00
  0.444600D+00  0.478148D+00
  0.122000D+00  0.501240D+00
   s     1 1.00
  0.122000D+00  0.100000D+01
   p     1 1.00
  0.727000D+00  0.100000D+01
  
 14  0
   s     4 1.00
  0.130100D+02  0.196850D-01
  0.196200D+01  0.137977D+00
  0.444600D+00  0.478148D+00
  0.122000D+00  0.501240D+00
   s     1 1.00
  0.122000D+00  0.100000D+01
   p     1 1.00
  0.727000D+00  0.100000D+01
  
[MO]
 Sym= __1_a__
 Ene=  0.000000000000000E+000
 Spin= Alpha
 Occup=    2.00000000000000     
                     1  1.549545299666770E-004
                     2  0.998314958314260     
                     3 -3.079674782701020E-003
                     4  1.975520891789240E-003
                     5  6.543953850774910E-003
                     6  2.748106485418210E-003
                     7  5.892040386071940E-003
                     8  0.000000000000000E+000
                     9 -7.381779346997570E-004
                    10 -5.819128911269779E-004
                    11  0.000000000000000E+000
                    12 -2.570784172082410E-003
                    13 -1.522574481308480E-003
                    14  0.000000000000000E+000
                    15 -5.470545285679052E-005
                    16  0.000000000000000E+000
                    17  0.000000000000000E+000
                    18 -1.889739450021084E-004
                    19 -6.897146024575740E-005
                    20  1.257241384715365E-004
                    21  0.000000000000000E+000
                    22  0.000000000000000E+000
                    23 -1.877629660280986E-004
                    24  5.911204395810141E-004
                    25  0.000000000000000E+000
                    26  3.154938025237946E-006
                    27 -5.469950136649282E-005
                    28  0.000000000000000E+000
                    29  0.000000000000000E+000
                    30  1.748995480385607E-005
                    31 -1.099595054974963E-004
                    32 -3.975944174595360E-004
                    33  3.790005061438900E-004
                    34  3.263611755580730E-004
                    35 -6.426401983247500E-006
                    36  1.224678725270990E-004
                    37 -2.881476346492030E-003
                    38  0.000000000000000E+000
                    39  5.021202721984790E-004
                    40  2.466174248073880E-004
                    41  0.000000000000000E+000
                    42 -2.489391679873110E-003
                    43  5.039265927108900E-003
                    44  0.000000000000000E+000
                    45  4.266381187265861E-006
                    46  0.000000000000000E+000
                    47  0.000000000000000E+000
                    48 -1.328818771950530E-004
                    49  2.295775917504190E-005
                    50 -1.850655724034738E-004
                    51  0.000000000000000E+000
                    52  0.000000000000000E+000
                    53  2.068361984160960E-004
                    54  8.147061476123980E-004
                    55  0.000000000000000E+000
                    56 -8.538646620118825E-006
                    57 -8.835851666903096E-005
                    58  0.000000000000000E+000
                    59  0.000000000000000E+000
                    60 -2.181790933104626E-005
                    61 -1.431898505815863E-004
                    62 -5.992786787134600E-004
                    63 -2.383510097144830E-003
                    64 -8.415252777268080E-005
                    65  2.348746640658050E-003
                    66 -6.121947316546180E-004
                    67  1.400869779958770E-004
                    68  0.000000000000000E+000
                    69  4.493638073989310E-004
                    70  9.003663245859630E-004
                    71  0.000000000000000E+000
                    72 -1.643238415238020E-003
                    73  7.977634837031360E-004
                    74  0.000000000000000E+000
                    75 -4.398710236577530E-005
                    76  0.000000000000000E+000
                    77  0.000000000000000E+000
                    78 -7.335296012080080E-005
                    79 -2.727168721982250E-005
                    80 -1.511144888415943E-004
                    81  0.000000000000000E+000
                    82  0.000000000000000E+000
                    83  1.244812954342032E-004
                    84  8.588412174512300E-005
                    85  0.000000000000000E+000
                    86  6.530267182664989E-006
                    87 -4.033991392852935E-005
                    88  0.000000000000000E+000
                    89  0.000000000000000E+000
                    90 -1.196609994364585E-005
                    91 -1.583866794906807E-004
                    92 -1.105855638445740E-004
                    93 -3.301607875320130E-004
                    94  2.065242315395800E-004
                    95 -4.082434960503710E-004
                    96  1.645189162678270E-004
                    97 -1.699522025262890E-004
                    98  0.000000000000000E+000
                    99  4.107241750143740E-004
                   100  3.382712491164970E-004
                   101  0.000000000000000E+000
                   102  6.345023646623010E-004
                   103 -1.487014835993030E-003
                   104  0.000000000000000E+000
                   105 -1.424585758827610E-005
                   106  0.000000000000000E+000
                   107  0.000000000000000E+000
                   108 -2.967544353748780E-005
                   109 -9.804172816079270E-006
                   110  1.690820148010058E-004
                   111  0.000000000000000E+000
                   112  0.000000000000000E+000
                   113 -7.516006924317800E-005
                   114 -1.602906708624680E-005
                   115  0.000000000000000E+000
                   116 -2.324491034042426E-005
                   117 -2.516981192874035E-005
                   118  0.000000000000000E+000
                   119  0.000000000000000E+000
                   120  2.000972222486230E-005
                   121 -2.403803414151776E-005
                   122 -2.710161106513220E-004
                   123 -6.898815839716411E-004
                   124  1.682369727719030E-004
                   125  4.297554468472440E-004
                   126 -2.770260188957530E-005
                   127 -3.028831021876090E-004
                   128  0.000000000000000E+000
                   129  2.306484347177480E-004
                   130  6.195281467775520E-004
                   131  0.000000000000000E+000
                   132  3.017372256680850E-004
                   133  2.109914768228180E-003
                   134  0.000000000000000E+000
                   135  1.265554352429756E-005
                   136  0.000000000000000E+000
                   137  0.000000000000000E+000
                   138  4.877426669664200E-005
                   139 -2.066527722279010E-006
                   140  2.176244478222079E-004
                   141  0.000000000000000E+000
                   142  0.000000000000000E+000
                   143  3.983213391294500E-004
                   144  2.719161548251470E-004
                   145  0.000000000000000E+000
                   146 -1.121881352799962E-005
                   147 -6.558984437336094E-005
                   148  0.000000000000000E+000
                   149  0.000000000000000E+000
                   150 -2.024556185284312E-005
                   151 -5.679559573825679E-005
                   152 -1.665286608596690E-004
                   153 -5.342801378946951E-004
                   154  2.130337855361480E-005
                   155  4.279586521278760E-004
                   156  1.749003009417850E-005
                   157  2.404143767558770E-005
                   158  0.000000000000000E+000
                   159  3.787389804603720E-005
                   160 -3.084249956028310E-005
                   161  0.000000000000000E+000
                   162  6.885210916974700E-004
                   163 -3.911783931020200E-004
                   164  0.000000000000000E+000
                   165  4.827035297968259E-007
                   166  0.000000000000000E+000
                   167  0.000000000000000E+000
                   168 -1.354677009876866E-006
                   169  1.476023868924760E-005
                   170  5.527048829803297E-005
                   171  0.000000000000000E+000
                   172  0.000000000000000E+000
                   173  1.588163719561054E-005
                   174  2.795583942515480E-006
                   175  0.000000000000000E+000
                   176  5.251718465687139E-006
                   177 -9.218444715532919E-006
                   178  0.000000000000000E+000
                   179  0.000000000000000E+000
                   180 -2.944624151842182E-005
                   181 -1.556021784214236E-005
                   182 -1.632606802853620E-004
                   183 -4.715573017393000E-004
                   184  4.365297115697250E-005
                   185  2.351943982634190E-004
                   186 -4.937721460986930E-005
                   187 -7.184280128410549E-005
                   188  0.000000000000000E+000
                   189  2.420568548346620E-004
                   190  1.021604773159020E-004
                   191  0.000000000000000E+000
                   192  1.375334715035280E-003
                   193 -2.903038205798380E-004
                   194  0.000000000000000E+000
                   195  8.885532854682419E-007
                   196  0.000000000000000E+000
                   197  0.000000000000000E+000
                   198 -3.854917337817560E-006
                   199  8.534660386224710E-006
                   200  6.271464366686123E-006
                   201  0.000000000000000E+000
                   202  0.000000000000000E+000
                   203 -8.996388899680819E-005
                   204 -2.039131085491950E-004
                   205  0.000000000000000E+000
                   206 -7.653047710237621E-006
                   207 -4.812672930065067E-006
                   208  0.000000000000000E+000
                   209  0.000000000000000E+000
                   210  1.074402087394326E-005
                   211 -3.874033153372525E-006
                   212  1.411672744718490E-005
                   213 -2.693945447056810E-005
                   214 -9.750977671179060E-007
                   215 -5.997299690699530E-007
                   216  0.000000000000000E+000
                   217 -1.442751661393920E-003
                   218 -4.380559655329850E-004
                   219 -2.307567660094180E-004
                   220  6.355998834114420E-005
                   221  0.000000000000000E+000
                   222 -1.964587538733100E-004
                   223 -5.390150964755310E-004
                   224  3.160731752988990E-005
                   225 -6.958551428993440E-005
                   226  0.000000000000000E+000
                   227  1.365981080376100E-004
                   228 -7.204313203682190E-004
                   229 -4.090642956741960E-005
                   230 -1.681556307299420E-005
                   231  0.000000000000000E+000
                   232  2.748265467655610E-005
                   233 -6.428774348886970E-004
                   234  1.476101449368950E-005
                   235 -2.518956758891320E-006
                   236  0.000000000000000E+000
                   237  3.125917210726960E-005
                   238 -3.749961534209520E-004
                   239  9.380014892748210E-007
                   240  7.796711409407010E-006
                   241  0.000000000000000E+000
                   242 -7.337577848846420E-005
                   243  3.845771387585900E-005
                   244  6.103565685763490E-007
                   245  2.978090422299280E-005
                   246  0.000000000000000E+000
 Sym= __2_a__
 Ene=  0.000000000000000E+000
 Spin= Alpha
 Occup=    2.00000000000000     
                     1  1.000568905300480E-005
                     2  3.504335706237920E-004
                     3 -3.420355437949880E-003
                     4 -1.270018497025970E-004
                     5 -1.657205216310090E-003
                     6  1.203352014743580E-003
                     7 -4.356824184044070E-003
                     8  0.000000000000000E+000
                     9  5.134174031536290E-005
                    10  7.039091534409490E-005
                    11  0.000000000000000E+000
                    12 -2.046298077844030E-004
                    13  3.878786157298100E-004
                    14  0.000000000000000E+000
                    15 -2.432515090473330E-005
                    16  0.000000000000000E+000
                    17  0.000000000000000E+000
                    18  7.987246071885921E-005
                    19 -2.936620449524530E-005
                    20  1.608610942271725E-004
                    21  0.000000000000000E+000
                    22  0.000000000000000E+000
                    23 -6.262037919973100E-005
                    24  6.228290902695890E-005
                    25  0.000000000000000E+000
                    26  1.629349069425046E-005
                    27 -6.806683627128964E-005
                    28  0.000000000000000E+000
                    29  0.000000000000000E+000
                    30  3.164204791438683E-005
                    31 -1.300417597294647E-004
                    32  -1.00077552224493     
                    33 -9.539235946334620E-003
                    34 -2.887682813908120E-003
                    35  8.241988577375891E-003
                    36  4.253726964682940E-004
                    37  5.048210098722360E-003
                    38  0.000000000000000E+000
                    39 -1.631223238754700E-004
                    40 -5.334031968865350E-004
                    41  0.000000000000000E+000
                    42 -2.465416707071480E-004
                    43 -4.855509979746730E-003
                    44  0.000000000000000E+000
                    45  5.379321496844789E-004
                    46  0.000000000000000E+000
                    47  0.000000000000000E+000
                    48  2.483770724763560E-004
                    49  2.205284422822960E-006
                    50 -5.566455467171516E-004
                    51  0.000000000000000E+000
                    52  0.000000000000000E+000
                    53  8.965369820459220E-004
                    54  1.193293210821560E-005
                    55  0.000000000000000E+000
                    56 -1.182603317419525E-006
                    57 -1.140201238033694E-004
                    58  0.000000000000000E+000
                    59  0.000000000000000E+000
                    60 -2.242111451035547E-006
                    61 -4.004098651115268E-004
                    62 -1.452450963364790E-002
                    63  2.380854822904000E-003
                    64  2.619672573870980E-004
                    65 -3.035596860365510E-003
                    66  2.782843131113300E-004
                    67 -4.345475820706900E-004
                    68  0.000000000000000E+000
                    69 -7.151713550565451E-004
                    70 -4.549260822754000E-006
                    71  0.000000000000000E+000
                    72  2.008365908501020E-003
                    73  2.436956318723380E-005
                    74  0.000000000000000E+000
                    75 -2.737409603253567E-005
                    76  0.000000000000000E+000
                    77  0.000000000000000E+000
                    78  2.924300112843040E-005
                    79  5.914874875400050E-007
                    80  4.109901969660910E-004
                    81  0.000000000000000E+000
                    82  0.000000000000000E+000
                    83  6.172311568131900E-004
                    84  3.373788811384430E-004
                    85  0.000000000000000E+000
                    86 -3.378937023754991E-005
                    87  5.937885767056091E-005
                    88  0.000000000000000E+000
                    89  0.000000000000000E+000
                    90 -6.191788394087102E-005
                    91 -1.488879579234043E-004
                    92 -1.601113299403880E-002
                    93  2.387160338651870E-003
                    94  2.585062656676220E-004
                    95 -3.059448135196430E-003
                    96 -5.693742054699990E-004
                    97 -5.433353810437260E-004
                    98  0.000000000000000E+000
                    99  7.329051163330790E-004
                   100 -5.483594647378990E-005
                   101  0.000000000000000E+000
                   102 -2.192034888188810E-003
                   103 -3.893232784510460E-005
                   104  0.000000000000000E+000
                   105 -3.103782924014567E-005
                   106  0.000000000000000E+000
                   107  0.000000000000000E+000
                   108  3.177192793744940E-005
                   109  1.558453113921850E-005
                   110  3.970901945251461E-004
                   111  0.000000000000000E+000
                   112  0.000000000000000E+000
                   113  6.183990792291060E-004
                   114 -3.095089069383580E-004
                   115  0.000000000000000E+000
                   116  3.851830789468566E-005
                   117  6.590563434452016E-005
                   118  0.000000000000000E+000
                   119  0.000000000000000E+000
                   120  5.516206991787071E-005
                   121 -1.426944017271003E-004
                   122 -2.182641374315720E-004
                   123  5.331765272620300E-004
                   124 -2.216589149002920E-004
                   125  7.341608639808860E-005
                   126  9.027741564823399E-006
                   127  5.803390189859050E-004
                   128  0.000000000000000E+000
                   129  7.176235699595520E-005
                   130 -5.549485454229960E-004
                   131  0.000000000000000E+000
                   132 -2.204783616217510E-004
                   133 -8.187806148283860E-004
                   134  0.000000000000000E+000
                   135 -1.654994529092869E-005
                   136  0.000000000000000E+000
                   137  0.000000000000000E+000
                   138  1.807290326130978E-006
                   139 -5.864124172391690E-005
                   140 -1.352641737848803E-004
                   141  0.000000000000000E+000
                   142  0.000000000000000E+000
                   143 -2.432878115592800E-004
                   144  1.435298023688860E-004
                   145  0.000000000000000E+000
                   146 -8.755152191264006E-006
                   147  3.452850805821640E-005
                   148  0.000000000000000E+000
                   149  0.000000000000000E+000
                   150  5.367211382961570E-005
                   151 -3.419328556349906E-005
                   152 -4.729289511716200E-004
                   153  5.163240326606600E-004
                   154 -2.286277739719330E-004
                   155  9.790482033148420E-005
                   156  4.579590082071240E-005
                   157  6.412469230049210E-004
                   158  0.000000000000000E+000
                   159 -7.351539483708959E-005
                   160 -5.952686637236170E-004