[Molden Format]
[Atoms] AU
  N     1    7    -4.4519150800    0.1645695100   -0.0000004400        
  C     2    6    -1.7695092000   -0.0145096000   -0.0000001700        
  C     3    6    -0.4270927200   -0.0061402300   -2.2691546100        
  C     4    6    -0.4270931100   -0.0061391100    2.2691544900        
  C     5    6     2.1889955900   -0.0004823800   -2.2566388900        
  C     6    6     2.1889952100   -0.0004812700    2.2566392100        
  C     7    6     3.5149715000    0.0022090000    0.0000002700        
  H     8    1    -5.5282839200   -1.1224497700   -2.2847121200        
  H     9    1    -5.2412525100   -0.7792438000    1.6754551200        
  H    10    1    -1.4305344500   -0.0005073500   -4.0318143700        
  H    11    1    -1.4305351200   -0.0005053700    4.0318140800        
  H    12    1     3.1914120400   -0.0010699000   -4.0209976100        
  H    13    1     3.1914113700   -0.0010679200    4.0209980900        
  H    14    1     5.5428332300    0.0050250700    0.0000004400        
[5D]
[7F]
[GTO]
  1  0
   s    12 1.00
  0.114200D+05  0.172695D-04
  0.171200D+04  0.134411D-03
  0.389300D+03  0.694561D-03
  0.110000D+03  0.278531D-02
  0.355700D+02  0.863457D-02
  0.125400D+02  0.199805D-01
  0.464400D+01  0.262908D-01
  0.129300D+01 -0.243845D-01
  0.511800D+00 -0.924934D-01
  0.178700D+00 -0.339683D+00
  0.246240D-01  0.345111D+00
  0.112530D-01  0.752750D+00
   s    10 1.00
  0.114200D+05  0.523000D-03
  0.171200D+04  0.404500D-02
  0.389300D+03  0.207750D-01
  0.110000D+03  0.807269D-01
  0.355700D+02  0.233074D+00
  0.125400D+02  0.433501D+00
  0.464400D+01  0.347472D+00
  0.129300D+01  0.412620D-01
  0.511800D+00 -0.850799D-02
  0.178700D+00  0.238400D-02
   s    10 1.00
  0.114200D+05 -0.115000D-03
  0.171200D+04 -0.895000D-03
  0.389300D+03 -0.462400D-02
  0.110000D+03 -0.185280D-01
  0.355700D+02 -0.573390D-01
  0.125400D+02 -0.132076D+00
  0.464400D+01 -0.172510D+00
  0.129300D+01  0.151814D+00
  0.511800D+00  0.599944D+00
  0.178700D+00  0.387462D+00
   s     1 1.00
  0.129300D+01  0.100000D+01
   s     1 1.00
  0.178700D+00  0.100000D+01
   p     5 1.00
  0.266300D+02  0.146700D-01
  0.594800D+01  0.917640D-01
  0.174200D+01  0.298683D+00
  0.555000D+00  0.498487D+00
  0.172500D+00  0.337023D+00
   p     1 1.00
  0.174200D+01  0.100000D+01
   p     1 1.00
  0.555000D+00  0.100000D+01
   d     1 1.00
  0.165400D+01  0.100000D+01
   d     1 1.00
  0.469000D+00  0.100000D+01
   f     1 1.00
  0.109300D+01  0.100000D+01
  
  2  0
   s    10 1.00
  0.823600D+04  0.531000D-03
  0.123500D+04  0.410800D-02
  0.280800D+03  0.210870D-01
  0.792700D+02  0.818530D-01
  0.255900D+02  0.234817D+00
  0.899700D+01  0.434401D+00
  0.331900D+01  0.346129D+00
  0.905900D+00  0.393780D-01
  0.364300D+00 -0.898300D-02
  0.128500D+00  0.238500D-02
   s    10 1.00
  0.823600D+04 -0.113000D-03
  0.123500D+04 -0.878000D-03
  0.280800D+03 -0.454000D-02
  0.792700D+02 -0.181330D-01
  0.255900D+02 -0.557600D-01
  0.899700D+01 -0.126895D+00
  0.331900D+01 -0.170352D+00
  0.905900D+00  0.140382D+00
  0.364300D+00  0.598684D+00
  0.128500D+00  0.395389D+00
   s     1 1.00
  0.905900D+00  0.100000D+01
   s     1 1.00
  0.364300D+00  0.100000D+01
   p     5 1.00
  0.187100D+02  0.140310D-01
  0.413300D+01  0.868660D-01
  0.120000D+01  0.290216D+00
  0.382700D+00  0.501008D+00
  0.120900D+00  0.343406D+00
   p     1 1.00
  0.382700D+00  0.100000D+01
   p     1 1.00
  0.120900D+00  0.100000D+01
   d     1 1.00
  0.109700D+01  0.100000D+01
   d     1 1.00
  0.318000D+00  0.100000D+01
   f     1 1.00
  0.761000D+00  0.100000D+01
  
  3  0
   s    10 1.00
  0.823600D+04  0.531000D-03
  0.123500D+04  0.410800D-02
  0.280800D+03  0.210870D-01
  0.792700D+02  0.818530D-01
  0.255900D+02  0.234817D+00
  0.899700D+01  0.434401D+00
  0.331900D+01  0.346129D+00
  0.905900D+00  0.393780D-01
  0.364300D+00 -0.898300D-02
  0.128500D+00  0.238500D-02
   s    10 1.00
  0.823600D+04 -0.113000D-03
  0.123500D+04 -0.878000D-03
  0.280800D+03 -0.454000D-02
  0.792700D+02 -0.181330D-01
  0.255900D+02 -0.557600D-01
  0.899700D+01 -0.126895D+00
  0.331900D+01 -0.170352D+00
  0.905900D+00  0.140382D+00
  0.364300D+00  0.598684D+00
  0.128500D+00  0.395389D+00
   s     1 1.00
  0.905900D+00  0.100000D+01
   s     1 1.00
  0.364300D+00  0.100000D+01
   p     5 1.00
  0.187100D+02  0.140310D-01
  0.413300D+01  0.868660D-01
  0.120000D+01  0.290216D+00
  0.382700D+00  0.501008D+00
  0.120900D+00  0.343406D+00
   p     1 1.00
  0.382700D+00  0.100000D+01
   p     1 1.00
  0.120900D+00  0.100000D+01
   d     1 1.00
  0.109700D+01  0.100000D+01
   d     1 1.00
  0.318000D+00  0.100000D+01
   f     1 1.00
  0.761000D+00  0.100000D+01
  
  4  0
   s    10 1.00
  0.823600D+04  0.531000D-03
  0.123500D+04  0.410800D-02
  0.280800D+03  0.210870D-01
  0.792700D+02  0.818530D-01
  0.255900D+02  0.234817D+00
  0.899700D+01  0.434401D+00
  0.331900D+01  0.346129D+00
  0.905900D+00  0.393780D-01
  0.364300D+00 -0.898300D-02
  0.128500D+00  0.238500D-02
   s    10 1.00
  0.823600D+04 -0.113000D-03
  0.123500D+04 -0.878000D-03
  0.280800D+03 -0.454000D-02
  0.792700D+02 -0.181330D-01
  0.255900D+02 -0.557600D-01
  0.899700D+01 -0.126895D+00
  0.331900D+01 -0.170352D+00
  0.905900D+00  0.140382D+00
  0.364300D+00  0.598684D+00
  0.128500D+00  0.395389D+00
   s     1 1.00
  0.905900D+00  0.100000D+01
   s     1 1.00
  0.364300D+00  0.100000D+01
   p     5 1.00
  0.187100D+02  0.140310D-01
  0.413300D+01  0.868660D-01
  0.120000D+01  0.290216D+00
  0.382700D+00  0.501008D+00
  0.120900D+00  0.343406D+00
   p     1 1.00
  0.382700D+00  0.100000D+01
   p     1 1.00
  0.120900D+00  0.100000D+01
   d     1 1.00
  0.109700D+01  0.100000D+01
   d     1 1.00
  0.318000D+00  0.100000D+01
   f     1 1.00
  0.761000D+00  0.100000D+01
  
  5  0
   s    10 1.00
  0.823600D+04  0.531000D-03
  0.123500D+04  0.410800D-02
  0.280800D+03  0.210870D-01
  0.792700D+02  0.818530D-01
  0.255900D+02  0.234817D+00
  0.899700D+01  0.434401D+00
  0.331900D+01  0.346129D+00
  0.905900D+00  0.393780D-01
  0.364300D+00 -0.898300D-02
  0.128500D+00  0.238500D-02
   s    10 1.00
  0.823600D+04 -0.113000D-03
  0.123500D+04 -0.878000D-03
  0.280800D+03 -0.454000D-02
  0.792700D+02 -0.181330D-01
  0.255900D+02 -0.557600D-01
  0.899700D+01 -0.126895D+00
  0.331900D+01 -0.170352D+00
  0.905900D+00  0.140382D+00
  0.364300D+00  0.598684D+00
  0.128500D+00  0.395389D+00
   s     1 1.00
  0.905900D+00  0.100000D+01
   s     1 1.00
  0.364300D+00  0.100000D+01
   p     5 1.00
  0.187100D+02  0.140310D-01
  0.413300D+01  0.868660D-01
  0.120000D+01  0.290216D+00
  0.382700D+00  0.501008D+00
  0.120900D+00  0.343406D+00
   p     1 1.00
  0.382700D+00  0.100000D+01
   p     1 1.00
  0.120900D+00  0.100000D+01
   d     1 1.00
  0.109700D+01  0.100000D+01
   d     1 1.00
  0.318000D+00  0.100000D+01
   f     1 1.00
  0.761000D+00  0.100000D+01
  
  6  0
   s    10 1.00
  0.823600D+04  0.531000D-03
  0.123500D+04  0.410800D-02
  0.280800D+03  0.210870D-01
  0.792700D+02  0.818530D-01
  0.255900D+02  0.234817D+00
  0.899700D+01  0.434401D+00
  0.331900D+01  0.346129D+00
  0.905900D+00  0.393780D-01
  0.364300D+00 -0.898300D-02
  0.128500D+00  0.238500D-02
   s    10 1.00
  0.823600D+04 -0.113000D-03
  0.123500D+04 -0.878000D-03
  0.280800D+03 -0.454000D-02
  0.792700D+02 -0.181330D-01
  0.255900D+02 -0.557600D-01
  0.899700D+01 -0.126895D+00
  0.331900D+01 -0.170352D+00
  0.905900D+00  0.140382D+00
  0.364300D+00  0.598684D+00
  0.128500D+00  0.395389D+00
   s     1 1.00
  0.905900D+00  0.100000D+01
   s     1 1.00
  0.364300D+00  0.100000D+01
   p     5 1.00
  0.187100D+02  0.140310D-01
  0.413300D+01  0.868660D-01
  0.120000D+01  0.290216D+00
  0.382700D+00  0.501008D+00
  0.120900D+00  0.343406D+00
   p     1 1.00
  0.382700D+00  0.100000D+01
   p     1 1.00
  0.120900D+00  0.100000D+01
   d     1 1.00
  0.109700D+01  0.100000D+01
   d     1 1.00
  0.318000D+00  0.100000D+01
   f     1 1.00
  0.761000D+00  0.100000D+01
  
  7  0
   s    10 1.00
  0.823600D+04  0.531000D-03
  0.123500D+04  0.410800D-02
  0.280800D+03  0.210870D-01
  0.792700D+02  0.818530D-01
  0.255900D+02  0.234817D+00
  0.899700D+01  0.434401D+00
  0.331900D+01  0.346129D+00
  0.905900D+00  0.393780D-01
  0.364300D+00 -0.898300D-02
  0.128500D+00  0.238500D-02
   s    10 1.00
  0.823600D+04 -0.113000D-03
  0.123500D+04 -0.878000D-03
  0.280800D+03 -0.454000D-02
  0.792700D+02 -0.181330D-01
  0.255900D+02 -0.557600D-01
  0.899700D+01 -0.126895D+00
  0.331900D+01 -0.170352D+00
  0.905900D+00  0.140382D+00
  0.364300D+00  0.598684D+00
  0.128500D+00  0.395389D+00
   s     1 1.00
  0.905900D+00  0.100000D+01
   s     1 1.00
  0.364300D+00  0.100000D+01
   p     5 1.00
  0.187100D+02  0.140310D-01
  0.413300D+01  0.868660D-01
  0.120000D+01  0.290216D+00
  0.382700D+00  0.501008D+00
  0.120900D+00  0.343406D+00
   p     1 1.00
  0.382700D+00  0.100000D+01
   p     1 1.00
  0.120900D+00  0.100000D+01
   d     1 1.00
  0.109700D+01  0.100000D+01
   d     1 1.00
  0.318000D+00  0.100000D+01
   f     1 1.00
  0.761000D+00  0.100000D+01
  
  8  0
   s     4 1.00
  0.130100D+02  0.196850D-01
  0.196200D+01  0.137977D+00
  0.444600D+00  0.478148D+00
  0.122000D+00  0.501240D+00
   s     1 1.00
  0.122000D+00  0.100000D+01
   p     1 1.00
  0.727000D+00  0.100000D+01
  
  9  0
   s     4 1.00
  0.130100D+02  0.196850D-01
  0.196200D+01  0.137977D+00
  0.444600D+00  0.478148D+00
  0.122000D+00  0.501240D+00
   s     1 1.00
  0.122000D+00  0.100000D+01
   p     1 1.00
  0.727000D+00  0.100000D+01
  
 10  0
   s     4 1.00
  0.130100D+02  0.196850D-01
  0.196200D+01  0.137977D+00
  0.444600D+00  0.478148D+00
  0.122000D+00  0.501240D+00
   s     1 1.00
  0.122000D+00  0.100000D+01
   p     1 1.00
  0.727000D+00  0.100000D+01
  
 11  0
   s     4 1.00
  0.130100D+02  0.196850D-01
  0.196200D+01  0.137977D+00
  0.444600D+00  0.478148D+00
  0.122000D+00  0.501240D+00
   s     1 1.00
  0.122000D+00  0.100000D+01
   p     1 1.00
  0.727000D+00  0.100000D+01
  
 12  0
   s     4 1.00
  0.130100D+02  0.196850D-01
  0.196200D+01  0.137977D+00
  0.444600D+00  0.478148D+00
  0.122000D+00  0.501240D+00
   s     1 1.00
  0.122000D+00  0.100000D+01
   p     1 1.00
  0.727000D+00  0.100000D+01
  
 13  0
   s     4 1.00
  0.130100D+02  0.196850D-01
  0.196200D+01  0.137977D+00
  0.444600D+00  0.478148D+00
  0.122000D+00  0.501240D+00
   s     1 1.00
  0.122000D+00  0.100000D+01
   p     1 1.00
  0.727000D+00  0.100000D+01
  
 14  0
   s     4 1.00
  0.130100D+02  0.196850D-01
  0.196200D+01  0.137977D+00
  0.444600D+00  0.478148D+00
  0.122000D+00  0.501240D+00
   s     1 1.00
  0.122000D+00  0.100000D+01
   p     1 1.00
  0.727000D+00  0.100000D+01
  
[MO]
 Sym= __1_A__
 Ene=   1.00000000000000     
 Spin= Alpha
 Occup=    1.00000000000000     
                     1  1.772430358048942E-004
                     2  0.998462056034810     
                     3  1.336575889987256E-005
                     4  1.504910412795727E-003
                     5  6.577501822073267E-003
                     6  6.691957052470687E-003
                     7 -3.573789792243015E-003
                     8  2.384108614996348E-003
                     9 -1.013238523124367E-003
                    10  3.390196611813479E-004
                    11 -3.913925946117788E-004
                    12 -2.409436899364407E-003
                    13  2.482169245783084E-003
                    14 -1.736338275789785E-003
                    15 -6.719569695467782E-005
                    16 -4.304526672169308E-005
                    17  5.594543919228970E-006
                    18  7.021412387275286E-005
                    19  1.053464370751119E-005
                    20 -2.651457493476406E-004
                    21  2.963604755027413E-004
                    22  2.576190445577606E-005
                    23  8.453467282612001E-005
                    24 -3.701243085006789E-004
                    25  1.204018732976406E-005
                    26 -8.611753728470104E-005
                    27 -5.293748651431531E-006
                    28  2.848960415098090E-006
                    29 -1.795684745182223E-006
                    30 -6.013544962666611E-005
                    31 -4.736508390080864E-005
                    32 -3.411824675831017E-004
                    33  4.957667072795644E-004
                    34  2.795739356610591E-004
                    35 -2.532659191624922E-004
                    36 -3.207787534041886E-003
                    37 -1.271549082424668E-004
                    38 -1.370337535048355E-004
                    39  2.341511779177706E-006
                    40  1.292677062949006E-006
                    41  4.577592944632224E-004
                    42  5.478335758571587E-003
                    43  5.223867935414481E-004
                    44 -1.402795858962789E-003
                    45 -1.759608553971032E-004
                    46 -3.738219614355994E-006
                    47  7.760471574105241E-006
                    48  1.556693762623136E-004
                    49  2.269292137325113E-005
                    50  2.258943622220671E-004
                    51  4.777491938448193E-004
                    52 -4.590844414525974E-005
                    53  1.646140372846404E-005
                    54 -2.813213837556480E-004
                    55 -4.480633471927994E-007
                    56 -5.758634136286073E-005
                    57  4.065862859417830E-006
                    58  1.759487856586079E-005
                    59 -2.514803878652176E-006
                    60 -3.601581643569276E-005
                    61  3.232875529850128E-005
                    62 -5.389835487818810E-004
                    63 -2.170150825803348E-003
                    64 -2.833155922668730E-005
                    65  1.909352550094503E-003
                    66  2.954679790676166E-004
                    67 -1.603545021412636E-004
                    68 -4.821561913311188E-004
                    69  6.040277858211792E-004
                    70  1.424792845047823E-005
                    71  4.428177872499065E-004
                    72  1.910404860016145E-004
                    73 -1.818666190211586E-004
                    74 -1.489372612238153E-003
                    75 -4.677890272133694E-005
                    76 -2.980044780001488E-005
                    77  8.022397942109221E-006
                    78  7.084694545134247E-005
                    79 -5.500494097752268E-006
                    80  2.286255833563470E-004
                    81  3.064303766426269E-005
                    82 -2.898092261058640E-005
                    83 -1.410383940087494E-005
                    84  4.810714596152132E-005
                    85 -1.264114570802629E-005
                    86 -1.066702192635304E-004
                    87  1.268580011989431E-005
                    88 -1.825630145716519E-006
                    89  1.492365089298054E-005
                    90 -6.312701098181612E-005
                    91 -8.429140794330045E-006
                    92 -2.738883755467296E-004
                    93 -1.310663500032592E-003
                    94  1.714915462094121E-004
                    95  2.512029887900646E-004
                    96  4.150693951771830E-004
                    97 -2.645235734122074E-004
                    98  4.086370784151377E-004
                    99  3.973888311379889E-004
                   100  1.153545742164024E-004
                   101  1.695406163358831E-004
                   102 -1.301336672147529E-003
                   103 -2.944734360260964E-004
                   104  8.070524963181717E-004
                   105 -5.504022296076829E-005
                   106 -4.706552074921200E-006
                   107 -1.324581690080372E-005
                   108  4.739938107787464E-005
                   109 -1.468602206320318E-005
                   110 -1.885332358571007E-005
                   111 -5.771485810815017E-005
                   112  1.483233041334367E-005
                   113 -9.724559309024488E-005
                   114  5.266533998799931E-005
                   115  9.360787892542073E-007
                   116 -2.537194498231740E-005
                   117  1.434887525763082E-005
                   118  1.187356494279140E-005
                   119 -6.256067836876388E-006
                   120 -3.721880857387255E-005
                   121 -1.018926539883476E-005
                   122 -2.726939180548202E-004
                   123 -6.671690359567678E-004
                   124  1.001672197799942E-004
                   125  7.018421993001960E-004
                   126 -4.075652506311929E-004
                   127 -1.075522820033276E-004
                   128 -1.408986600479249E-005
                   129  3.971506366657743E-004
                   130 -1.504636153497790E-005
                   131  1.615601697336681E-004
                   132  1.663894718988227E-003
                   133  9.210940110947165E-005
                   134  4.960166117566501E-005
                   135  2.134833669425645E-005
                   136  7.356240933856622E-007
                   137 -5.253291781064750E-006
                   138 -1.093477762872685E-005
                   139  5.325710223950814E-006
                   140  1.446231829195348E-004
                   141  2.190683126153655E-004
                   142  4.654478076897846E-006
                   143 -2.922493201334152E-004
                   144 -3.746174461026823E-007
                   145 -2.091438832540596E-005
                   146 -2.228263630728689E-005
                   147  7.563922574215995E-007
                   148 -7.273199516571584E-006
                   149 -1.166390619314022E-006
                   150 -6.367381360725748E-005
                   151 -1.891078407847927E-006
                   152 -2.062168297044126E-004
                   153 -4.530431489043140E-004
                   154  2.564540950621857E-005
                   155  6.012149719917645E-004
                   156 -3.690636325403757E-004
                   157 -1.505995876710181E-004
                   158 -1.155359119602280E-005
                   159  8.225883077383290E-005
                   160 -3.975516009352287E-005
                   161  4.490569868857430E-006
                   162  1.587106890198272E-004
                   163  1.528242028356351E-004
                   164  5.600142488021118E-004
                   165 -1.348047507667242E-006
                   166  3.709240197093631E-006
                   167  5.721939488649242E-006
                   168  8.244750286118987E-006
                   169  1.274684318855815E-005
                   170  1.940720722781822E-005
                   171 -8.013101896196922E-005
                   172 -9.471024164364194E-006
                   173 -1.180861685450492E-004
                   174 -3.972223109802523E-006
                   175 -2.944524895206646E-006
                   176 -1.033924770451758E-005
                   177  3.064971410132612E-006
                   178 -7.925454240468154E-006
                   179  7.196475345329200E-007
                   180 -2.731265879114695E-005
                   181 -6.284686722209962E-006
                   182 -1.580668448650970E-004
                   183 -4.890578581261667E-004
                   184  4.213466692504987E-005
                   185  2.286485927058990E-004
                   186 -2.738799881776678E-005
                   187 -1.229389338204474E-004
                   188 -2.784206118138795E-005
                   189  1.127163510889168E-004
                   190  1.083166378149422E-005
                   191  1.367171752789561E-004
                   192 -3.937622571266834E-004
                   193 -6.802239331668617E-005
                   194  8.360437820372319E-004
                   195 -7.409114692169259E-006
                   196  3.100887665434622E-006
                   197  1.561592745869524E-006
                   198  3.126030917324402E-006
                   199  1.036346917304828E-006
                   200 -1.128562646676604E-004
                   201 -1.217040907474153E-004
                   202 -8.949949289839719E-006
                   203  4.620091754264650E-005
                   204  1.598286567638542E-005
                   205  3.464228007012491E-006
                   206  5.974128806656926E-006
                   207  9.499893616023689E-007
                   208  8.998613626697117E-006
                   209  8.776157565948888E-007
                   210 -6.310253254562048E-006
                   211 -3.216881656639659E-006
                   212  6.332687104975245E-006
                   213 -1.630937492024910E-004
                   214  5.985382267641245E-005
                   215  1.486972528611015E-004
                   216  8.610845679292871E-005
                   217  9.078765504661062E-004
                   218 -1.357253938925142E-003
                   219  1.331083185673140E-004
                   220  2.339602651334749E-004
                   221 -3.205310981215444E-004
                   222 -3.627683090349909E-004
                   223 -6.101314714792796E-004
                   224 -7.381998641144527E-005
                   225  5.187953486311791E-006
                   226  3.544622192035761E-005
                   227 -2.677536382168549E-004
                   228 -5.592232153114794E-004
                   229 -3.923876855557765E-005
                   230  8.772925473903957E-006
                   231 -3.979288197855309E-005
                   232 -2.749375756945022E-005
                   233 -5.588346339890795E-004
                   234 -4.448995421314392E-006
                   235 -1.070481285058276E-006
                   236 -9.549582294390929E-007
                   237 -9.086420336945279E-005
                   238 -4.240098675791767E-004
                   239  3.124851405705805E-006
                   240 -4.083239663300460E-006
                   241  9.583554272052595E-006
                   242 -5.142050651347052E-006
                   243  1.149939250413181E-004
                   244  3.100992393333679E-005
                   245  3.615294277500549E-007
                   246 -2.597161663544772E-007
 Sym= __2_A__
 Ene=   2.00000000000000     
 Spin= Alpha
 Occup=    1.00000000000000     
                     1 -3.659089447110716E-005
                     2 -1.518607713234877E-004
                     3  2.080099498051488E-003
                     4  2.733278620572082E-005
                     5  1.173509104360413E-003
                     6  2.282513315135619E-003
                     7 -1.068871580083234E-004
                     8 -2.375084535083732E-004
                     9 -1.273196090477165E-004
                    10  9.071093182915284E-005
                    11 -3.173774415324043E-005
                    12 -3.458600206218135E-005
                    13  4.805365138937093E-005
                    14  3.839461062724167E-005
                    15 -7.265921605069074E-005
                    16  1.517489952292456E-006
                    17  4.444658262660156E-006
                    18  3.856743197729064E-005
                    19 -1.140188094610835E-005
                    20  1.210132476531337E-004
                    21  1.702049922064389E-005
                    22 -1.104112475214970E-005
                    23  1.001236222817343E-004
                    24 -1.725045626081523E-005
                    25 -6.996849044954666E-006
                    26  1.370375144327294E-004
                    27 -4.231427916094771E-005
                    28 -4.519044464797584E-006
                    29 -1.551853119482195E-007
                    30  1.173133012206941E-004
                    31  2.946585246287555E-005
                    32   1.00087469520200     
                    33  9.001588517366953E-003
                    34  2.807273826260492E-003
                    35 -8.306871349391048E-003
                    36 -2.427996604860607E-003
                    37  4.642018532186897E-004
                    38 -2.114227788999231E-005
                    39  5.450686172698143E-004
                    40 -2.560234065579356E-004
                    41  1.504461367707295E-005
                    42  3.406874888528310E-003
                    43 -1.274656663439211E-004
                    44  6.690141247023958E-005
                    45  2.749899632905699E-004
                    46 -5.778699619399450E-006
                    47 -4.761495802598706E-006
                    48  4.193996995170750E-004
                    49 -2.618006336795650E-005
                    50 -1.071466268686827E-003
                    51  3.079606539556462E-005
                    52  4.020998866873415E-006
                    53 -9.408727922447546E-005
                    54  4.923919077119984E-005
                    55  3.496652574569360E-008
                    56  3.083303605670871E-004
                    57 -1.056977272424614E-005
                    58 -9.924202121332837E-007
                    59 -4.737698358568385E-006
                    60  1.050520760830265E-004
                    61  1.379039220771453E-005
                    62  1.499892637942878E-002
                    63 -1.913923289102924E-003
                    64 -3.096822298563418E-004
                    65  3.170206611821472E-003
                    66 -5.787311487109175E-005
                    67  2.599646532552032E-005
                    68  1.767979991391638E-004
                    69 -2.451467700276967E-006
                    70 -4.183198712959901E-010
                    71  6.115481841169405E-004
                    72  1.159087096177890E-004
                    73 -1.865815877446785E-005
                    74 -1.812149209166799E-003
                    75 -1.311651539927598E-005
                    76  1.568167504453359E-005
                    77  4.722714781165184E-006
                    78 -2.984429426699188E-005
                    79 -2.447728073697114E-006
                    80 -3.766591756334196E-004
                    81 -4.269222613731207E-004
                    82 -6.311239979339029E-006
                    83  7.376236842626454E-004
                    84 -2.971568057836072E-006
                    85  4.838567080687931E-005
                    86  1.177748618310933E-004
                    87 -1.197122374051999E-006
                    88 -1.721526579457952E-005
                    89 -6.595125992995043E-006
                    90 -3.071574487138631E-005
                    91  4.095879774364533E-006
                    92  1.630679528273912E-002
                    93 -1.906334574487690E-003
                    94 -3.043058975847328E-004
                    95  3.154231855309911E-003
                    96 -7.250235340858808E-005
                    97  7.399861890072709E-006
                    98 -1.677304235309572E-004
                    99  1.213745123212791E-005
                   100 -7.325716225168160E-007
                   101 -5.944018665530236E-004
                   102  1.680114919454198E-004
                   103 -1.897053119649738E-005
                   104  1.832670785166593E-003
                   105 -1.321928937045055E-005
                   106 -1.770075462366599E-005
                   107 -5.207373081300338E-006
                   108 -3.098055073625278E-005
                   109 -2.602818563683273E-006
                   110 -3.843203113278507E-004
                   111  4.308089519663849E-004
                   112  7.353536485653734E-006
                   113  7.466760038706612E-004
                   114 -1.965399454412116E-006
                   115 -4.687183773384010E-005
                   116  1.153099488078213E-004
                   117 -1.106293228351240E-007
                   118  1.614843924066233E-005
                   119  6.318232184064999E-006
                   120 -3.087039859845635E-005
                   121  3.484285936061302E-006
                   122 -3.672802894696171E-005
                   123 -6.582659045251673E-004
                   124  2.471625125965821E-004
                   125 -2.831901799076778E-004
                   126 -2.655007731663822E-004
                   127  7.963244519854871E-006
                   128 -2.888644665482239E-005
                   129  5.957631961796618E-004
                   130  1.364811214912459E-007
                   131  4.507896412899913E-006
                   132  5.810761098888043E-004
                   133  1.186173563479808E-005
                   134  2.983400923078655E-004
                   135 -8.532621762347312E-007
                   136  4.199887108016805E-005
                   137  3.059282924911006E-007
                   138 -3.164416641795124E-005
                   139  1.252720235396321E-007
                   140  1.774610032979919E-004
                   141 -2.181857880515724E-004
                   142  8.994848956436575E-007
                   143 -2.558976557599028E-004
                   144 -2.906616191379750E-006
                   145 -2.075171097717718E-005
                   146  1.857365887352798E-005
                   147 -6.179363106249266E-008
                   148 -1.746658812307407E-005
                   149 -1.784214270698505E-006
                   150 -2.708952173679122E-005
                   151 -8.574806902190213E-007
                   152  3.329596081724440E-005
                   153 -6.710912432482208E-004
                   154  2.483290472631583E-004
                   155 -2.821415247492343E-004
                   156 -2.578405499065672E-004
                   157 -7.080386350774809E-006
                   158  2.992706500753761E-005
                   159  6.065926197215964E-004
                   160  1.400938419346546E-008