[Molden Format]
[Atoms] AU
  N     1    7    -4.4519150800    0.1645695100   -0.0000004400        
  C     2    6    -1.7695092000   -0.0145096000   -0.0000001700        
  C     3    6    -0.4270927200   -0.0061402300   -2.2691546100        
  C     4    6    -0.4270931100   -0.0061391100    2.2691544900        
  C     5    6     2.1889955900   -0.0004823800   -2.2566388900        
  C     6    6     2.1889952100   -0.0004812700    2.2566392100        
  C     7    6     3.5149715000    0.0022090000    0.0000002700        
  H     8    1    -5.4565260000   -1.0366484800   -2.1323980000        
  H     9    1    -5.2412525100   -0.7792438000    1.6754551200        
  H    10    1    -1.4305344500   -0.0005073500   -4.0318143700        
  H    11    1    -1.4305351200   -0.0005053700    4.0318140800        
  H    12    1     3.1914120400   -0.0010699000   -4.0209976100        
  H    13    1     3.1914113700   -0.0010679200    4.0209980900        
  H    14    1     5.5428332300    0.0050250700    0.0000004400        
[5D]
[7F]
[GTO]
  1  0
   s    12 1.00
  0.114200D+05  0.172695D-04
  0.171200D+04  0.134411D-03
  0.389300D+03  0.694561D-03
  0.110000D+03  0.278531D-02
  0.355700D+02  0.863457D-02
  0.125400D+02  0.199805D-01
  0.464400D+01  0.262908D-01
  0.129300D+01 -0.243845D-01
  0.511800D+00 -0.924934D-01
  0.178700D+00 -0.339683D+00
  0.246240D-01  0.345111D+00
  0.112530D-01  0.752750D+00
   s    10 1.00
  0.114200D+05  0.523000D-03
  0.171200D+04  0.404500D-02
  0.389300D+03  0.207750D-01
  0.110000D+03  0.807269D-01
  0.355700D+02  0.233074D+00
  0.125400D+02  0.433501D+00
  0.464400D+01  0.347472D+00
  0.129300D+01  0.412620D-01
  0.511800D+00 -0.850799D-02
  0.178700D+00  0.238400D-02
   s    10 1.00
  0.114200D+05 -0.115000D-03
  0.171200D+04 -0.895000D-03
  0.389300D+03 -0.462400D-02
  0.110000D+03 -0.185280D-01
  0.355700D+02 -0.573390D-01
  0.125400D+02 -0.132076D+00
  0.464400D+01 -0.172510D+00
  0.129300D+01  0.151814D+00
  0.511800D+00  0.599944D+00
  0.178700D+00  0.387462D+00
   s     1 1.00
  0.129300D+01  0.100000D+01
   s     1 1.00
  0.178700D+00  0.100000D+01
   p     5 1.00
  0.266300D+02  0.146700D-01
  0.594800D+01  0.917640D-01
  0.174200D+01  0.298683D+00
  0.555000D+00  0.498487D+00
  0.172500D+00  0.337023D+00
   p     1 1.00
  0.174200D+01  0.100000D+01
   p     1 1.00
  0.555000D+00  0.100000D+01
   d     1 1.00
  0.165400D+01  0.100000D+01
   d     1 1.00
  0.469000D+00  0.100000D+01
   f     1 1.00
  0.109300D+01  0.100000D+01
  
  2  0
   s    10 1.00
  0.823600D+04  0.531000D-03
  0.123500D+04  0.410800D-02
  0.280800D+03  0.210870D-01
  0.792700D+02  0.818530D-01
  0.255900D+02  0.234817D+00
  0.899700D+01  0.434401D+00
  0.331900D+01  0.346129D+00
  0.905900D+00  0.393780D-01
  0.364300D+00 -0.898300D-02
  0.128500D+00  0.238500D-02
   s    10 1.00
  0.823600D+04 -0.113000D-03
  0.123500D+04 -0.878000D-03
  0.280800D+03 -0.454000D-02
  0.792700D+02 -0.181330D-01
  0.255900D+02 -0.557600D-01
  0.899700D+01 -0.126895D+00
  0.331900D+01 -0.170352D+00
  0.905900D+00  0.140382D+00
  0.364300D+00  0.598684D+00
  0.128500D+00  0.395389D+00
   s     1 1.00
  0.905900D+00  0.100000D+01
   s     1 1.00
  0.364300D+00  0.100000D+01
   p     5 1.00
  0.187100D+02  0.140310D-01
  0.413300D+01  0.868660D-01
  0.120000D+01  0.290216D+00
  0.382700D+00  0.501008D+00
  0.120900D+00  0.343406D+00
   p     1 1.00
  0.382700D+00  0.100000D+01
   p     1 1.00
  0.120900D+00  0.100000D+01
   d     1 1.00
  0.109700D+01  0.100000D+01
   d     1 1.00
  0.318000D+00  0.100000D+01
   f     1 1.00
  0.761000D+00  0.100000D+01
  
  3  0
   s    10 1.00
  0.823600D+04  0.531000D-03
  0.123500D+04  0.410800D-02
  0.280800D+03  0.210870D-01
  0.792700D+02  0.818530D-01
  0.255900D+02  0.234817D+00
  0.899700D+01  0.434401D+00
  0.331900D+01  0.346129D+00
  0.905900D+00  0.393780D-01
  0.364300D+00 -0.898300D-02
  0.128500D+00  0.238500D-02
   s    10 1.00
  0.823600D+04 -0.113000D-03
  0.123500D+04 -0.878000D-03
  0.280800D+03 -0.454000D-02
  0.792700D+02 -0.181330D-01
  0.255900D+02 -0.557600D-01
  0.899700D+01 -0.126895D+00
  0.331900D+01 -0.170352D+00
  0.905900D+00  0.140382D+00
  0.364300D+00  0.598684D+00
  0.128500D+00  0.395389D+00
   s     1 1.00
  0.905900D+00  0.100000D+01
   s     1 1.00
  0.364300D+00  0.100000D+01
   p     5 1.00
  0.187100D+02  0.140310D-01
  0.413300D+01  0.868660D-01
  0.120000D+01  0.290216D+00
  0.382700D+00  0.501008D+00
  0.120900D+00  0.343406D+00
   p     1 1.00
  0.382700D+00  0.100000D+01
   p     1 1.00
  0.120900D+00  0.100000D+01
   d     1 1.00
  0.109700D+01  0.100000D+01
   d     1 1.00
  0.318000D+00  0.100000D+01
   f     1 1.00
  0.761000D+00  0.100000D+01
  
  4  0
   s    10 1.00
  0.823600D+04  0.531000D-03
  0.123500D+04  0.410800D-02
  0.280800D+03  0.210870D-01
  0.792700D+02  0.818530D-01
  0.255900D+02  0.234817D+00
  0.899700D+01  0.434401D+00
  0.331900D+01  0.346129D+00
  0.905900D+00  0.393780D-01
  0.364300D+00 -0.898300D-02
  0.128500D+00  0.238500D-02
   s    10 1.00
  0.823600D+04 -0.113000D-03
  0.123500D+04 -0.878000D-03
  0.280800D+03 -0.454000D-02
  0.792700D+02 -0.181330D-01
  0.255900D+02 -0.557600D-01
  0.899700D+01 -0.126895D+00
  0.331900D+01 -0.170352D+00
  0.905900D+00  0.140382D+00
  0.364300D+00  0.598684D+00
  0.128500D+00  0.395389D+00
   s     1 1.00
  0.905900D+00  0.100000D+01
   s     1 1.00
  0.364300D+00  0.100000D+01
   p     5 1.00
  0.187100D+02  0.140310D-01
  0.413300D+01  0.868660D-01
  0.120000D+01  0.290216D+00
  0.382700D+00  0.501008D+00
  0.120900D+00  0.343406D+00
   p     1 1.00
  0.382700D+00  0.100000D+01
   p     1 1.00
  0.120900D+00  0.100000D+01
   d     1 1.00
  0.109700D+01  0.100000D+01
   d     1 1.00
  0.318000D+00  0.100000D+01
   f     1 1.00
  0.761000D+00  0.100000D+01
  
  5  0
   s    10 1.00
  0.823600D+04  0.531000D-03
  0.123500D+04  0.410800D-02
  0.280800D+03  0.210870D-01
  0.792700D+02  0.818530D-01
  0.255900D+02  0.234817D+00
  0.899700D+01  0.434401D+00
  0.331900D+01  0.346129D+00
  0.905900D+00  0.393780D-01
  0.364300D+00 -0.898300D-02
  0.128500D+00  0.238500D-02
   s    10 1.00
  0.823600D+04 -0.113000D-03
  0.123500D+04 -0.878000D-03
  0.280800D+03 -0.454000D-02
  0.792700D+02 -0.181330D-01
  0.255900D+02 -0.557600D-01
  0.899700D+01 -0.126895D+00
  0.331900D+01 -0.170352D+00
  0.905900D+00  0.140382D+00
  0.364300D+00  0.598684D+00
  0.128500D+00  0.395389D+00
   s     1 1.00
  0.905900D+00  0.100000D+01
   s     1 1.00
  0.364300D+00  0.100000D+01
   p     5 1.00
  0.187100D+02  0.140310D-01
  0.413300D+01  0.868660D-01
  0.120000D+01  0.290216D+00
  0.382700D+00  0.501008D+00
  0.120900D+00  0.343406D+00
   p     1 1.00
  0.382700D+00  0.100000D+01
   p     1 1.00
  0.120900D+00  0.100000D+01
   d     1 1.00
  0.109700D+01  0.100000D+01
   d     1 1.00
  0.318000D+00  0.100000D+01
   f     1 1.00
  0.761000D+00  0.100000D+01
  
  6  0
   s    10 1.00
  0.823600D+04  0.531000D-03
  0.123500D+04  0.410800D-02
  0.280800D+03  0.210870D-01
  0.792700D+02  0.818530D-01
  0.255900D+02  0.234817D+00
  0.899700D+01  0.434401D+00
  0.331900D+01  0.346129D+00
  0.905900D+00  0.393780D-01
  0.364300D+00 -0.898300D-02
  0.128500D+00  0.238500D-02
   s    10 1.00
  0.823600D+04 -0.113000D-03
  0.123500D+04 -0.878000D-03
  0.280800D+03 -0.454000D-02
  0.792700D+02 -0.181330D-01
  0.255900D+02 -0.557600D-01
  0.899700D+01 -0.126895D+00
  0.331900D+01 -0.170352D+00
  0.905900D+00  0.140382D+00
  0.364300D+00  0.598684D+00
  0.128500D+00  0.395389D+00
   s     1 1.00
  0.905900D+00  0.100000D+01
   s     1 1.00
  0.364300D+00  0.100000D+01
   p     5 1.00
  0.187100D+02  0.140310D-01
  0.413300D+01  0.868660D-01
  0.120000D+01  0.290216D+00
  0.382700D+00  0.501008D+00
  0.120900D+00  0.343406D+00
   p     1 1.00
  0.382700D+00  0.100000D+01
   p     1 1.00
  0.120900D+00  0.100000D+01
   d     1 1.00
  0.109700D+01  0.100000D+01
   d     1 1.00
  0.318000D+00  0.100000D+01
   f     1 1.00
  0.761000D+00  0.100000D+01
  
  7  0
   s    10 1.00
  0.823600D+04  0.531000D-03
  0.123500D+04  0.410800D-02
  0.280800D+03  0.210870D-01
  0.792700D+02  0.818530D-01
  0.255900D+02  0.234817D+00
  0.899700D+01  0.434401D+00
  0.331900D+01  0.346129D+00
  0.905900D+00  0.393780D-01
  0.364300D+00 -0.898300D-02
  0.128500D+00  0.238500D-02
   s    10 1.00
  0.823600D+04 -0.113000D-03
  0.123500D+04 -0.878000D-03
  0.280800D+03 -0.454000D-02
  0.792700D+02 -0.181330D-01
  0.255900D+02 -0.557600D-01
  0.899700D+01 -0.126895D+00
  0.331900D+01 -0.170352D+00
  0.905900D+00  0.140382D+00
  0.364300D+00  0.598684D+00
  0.128500D+00  0.395389D+00
   s     1 1.00
  0.905900D+00  0.100000D+01
   s     1 1.00
  0.364300D+00  0.100000D+01
   p     5 1.00
  0.187100D+02  0.140310D-01
  0.413300D+01  0.868660D-01
  0.120000D+01  0.290216D+00
  0.382700D+00  0.501008D+00
  0.120900D+00  0.343406D+00
   p     1 1.00
  0.382700D+00  0.100000D+01
   p     1 1.00
  0.120900D+00  0.100000D+01
   d     1 1.00
  0.109700D+01  0.100000D+01
   d     1 1.00
  0.318000D+00  0.100000D+01
   f     1 1.00
  0.761000D+00  0.100000D+01
  
  8  0
   s     4 1.00
  0.130100D+02  0.196850D-01
  0.196200D+01  0.137977D+00
  0.444600D+00  0.478148D+00
  0.122000D+00  0.501240D+00
   s     1 1.00
  0.122000D+00  0.100000D+01
   p     1 1.00
  0.727000D+00  0.100000D+01
  
  9  0
   s     4 1.00
  0.130100D+02  0.196850D-01
  0.196200D+01  0.137977D+00
  0.444600D+00  0.478148D+00
  0.122000D+00  0.501240D+00
   s     1 1.00
  0.122000D+00  0.100000D+01
   p     1 1.00
  0.727000D+00  0.100000D+01
  
 10  0
   s     4 1.00
  0.130100D+02  0.196850D-01
  0.196200D+01  0.137977D+00
  0.444600D+00  0.478148D+00
  0.122000D+00  0.501240D+00
   s     1 1.00
  0.122000D+00  0.100000D+01
   p     1 1.00
  0.727000D+00  0.100000D+01
  
 11  0
   s     4 1.00
  0.130100D+02  0.196850D-01
  0.196200D+01  0.137977D+00
  0.444600D+00  0.478148D+00
  0.122000D+00  0.501240D+00
   s     1 1.00
  0.122000D+00  0.100000D+01
   p     1 1.00
  0.727000D+00  0.100000D+01
  
 12  0
   s     4 1.00
  0.130100D+02  0.196850D-01
  0.196200D+01  0.137977D+00
  0.444600D+00  0.478148D+00
  0.122000D+00  0.501240D+00
   s     1 1.00
  0.122000D+00  0.100000D+01
   p     1 1.00
  0.727000D+00  0.100000D+01
  
 13  0
   s     4 1.00
  0.130100D+02  0.196850D-01
  0.196200D+01  0.137977D+00
  0.444600D+00  0.478148D+00
  0.122000D+00  0.501240D+00
   s     1 1.00
  0.122000D+00  0.100000D+01
   p     1 1.00
  0.727000D+00  0.100000D+01
  
 14  0
   s     4 1.00
  0.130100D+02  0.196850D-01
  0.196200D+01  0.137977D+00
  0.444600D+00  0.478148D+00
  0.122000D+00  0.501240D+00
   s     1 1.00
  0.122000D+00  0.100000D+01
   p     1 1.00
  0.727000D+00  0.100000D+01
  
[MO]
 Sym= __1_A__
 Ene=   1.00000000000000     
 Spin= Alpha
 Occup=    1.00000000000000     
                     1  1.594548098019342E-004
                     2  0.998534871135949     
                     3 -1.295677890233935E-003
                     4  1.458380202517156E-003
                     5  6.496501956712944E-003
                     6  6.291465752077318E-003
                     7 -3.808677897692280E-003
                     8  1.249077725848650E-003
                     9 -9.493815879192436E-004
                    10  3.681670782263229E-004
                    11 -2.113827808391532E-004
                    12 -2.251471457371034E-003
                    13  2.778992345790828E-003
                    14 -1.045848487596128E-003
                    15 -7.750175576479495E-005
                    16 -3.330011522358027E-005
                    17 -1.496724616268423E-005
                    18  6.463114152561422E-005
                    19  9.709991668405261E-006
                    20 -2.768229999533696E-004
                    21  1.829336758829363E-004
                    22  2.428651776993771E-005
                    23  4.813044319237292E-005
                    24 -3.998070400654166E-004
                    25  9.506073848474450E-006
                    26 -7.905847864334215E-005
                    27 -2.675574254992062E-006
                    28 -3.114021605909980E-006
                    29 -1.686937352778945E-006
                    30 -5.395260432092596E-005
                    31 -4.912155580658306E-005
                    32 -3.260755222423458E-004
                    33  3.220801615724893E-004
                    34  2.691241588948803E-004
                    35 -1.855710950667146E-004
                    36 -2.651448410574338E-003
                    37 -3.947779287570049E-005
                    38 -7.653541465591334E-005
                    39 -4.698714634213460E-005
                    40  9.543785913803268E-007
                    41  2.442846790442162E-004
                    42  5.165080045186355E-003
                    43  6.338514616864446E-004
                    44 -7.141179007268392E-004
                    45 -1.600225155208234E-004
                    46 -2.360328400425986E-006
                    47  5.309306414766770E-006
                    48  1.403502596045834E-004
                    49  3.197923995657855E-005
                    50  2.710311434514420E-004
                    51  2.792886300726760E-004
                    52 -2.871637748140607E-005
                    53 -1.125940093087571E-005
                    54 -3.130478265719550E-004
                    55 -4.717197537552950E-008
                    56 -5.916974766225892E-005
                    57  5.369361282707104E-006
                    58  1.112564932166221E-005
                    59 -1.693264690853314E-006
                    60 -4.150295720909948E-005
                    61  3.871703431254507E-005
                    62 -4.634973766400206E-004
                    63 -1.807931490795432E-003
                    64  1.358420576049704E-005
                    65  1.488590904886934E-003
                    66  1.713278378443432E-004
                    67 -1.188465405152377E-004
                    68 -3.774259709468651E-004
                    69  5.769851693203506E-004
                    70  4.185197363662725E-005
                    71  3.044914047834488E-004
                    72 -1.464050664448051E-004
                    73 -2.580764964405028E-004
                    74 -1.283154559912526E-003
                    75 -4.021640295777794E-005
                    76 -2.259270678052024E-005
                    77  1.388753621855397E-005
                    78  6.227432653622538E-005
                    79 -7.945054937537059E-006
                    80  1.910496843034535E-004
                    81  3.767768774449871E-005
                    82 -3.193967078673402E-005
                    83 -4.651351284041784E-005
                    84  5.066834344630905E-005
                    85 -1.500460707593760E-005
                    86 -8.887193391482751E-005
                    87  1.554922325335696E-005
                    88 -6.930671158674562E-006
                    89  1.397125895057830E-005
                    90 -5.648662898466109E-005
                    91 -9.107341393296626E-006
                    92 -3.278963982131083E-004
                    93 -1.351685116619991E-003
                    94  1.269967716070129E-004
                    95  5.815641268762238E-004
                    96  2.209392011631259E-004
                    97 -1.519803981931675E-004
                    98  3.352216707650365E-004
                    99  4.705636470646347E-004
                   100  1.031380009507617E-004
                   101  4.043381174539137E-005
                   102 -9.287452144585288E-004
                   103 -3.209013937734308E-004
                   104  8.954074481478275E-004
                   105 -4.687778844391590E-005
                   106  2.828687586023188E-006
                   107 -1.693288850615798E-005
                   108  4.943471193142920E-005
                   109 -1.298115765798689E-005
                   110  6.099999526743625E-005
                   111 -4.777557823202097E-005
                   112  2.151325972320302E-005
                   113 -8.916774686351088E-005
                   114  5.308367814620826E-005
                   115  7.522175134204394E-006
                   116 -4.576129342973622E-005
                   117  1.687675937853954E-005
                   118  1.012330409279742E-005
                   119 -8.219110685056325E-006
                   120 -4.157589815858451E-005
                   121 -9.283396289711620E-006
                   122 -2.420797125089508E-004
                   123 -6.262384468687705E-004
                   124  8.175428077302856E-005
                   125  6.415229013132334E-004
                   126 -3.024507981204277E-004
                   127 -8.949567525402220E-005
                   128 -1.137872824300843E-005
                   129  3.167708723700280E-004
                   130 -1.965927254478698E-005
                   131  1.196557599521324E-004
                   132  1.256757598165042E-003
                   133  1.180027619146130E-004
                   134 -9.023519845169359E-005
                   135  1.733971199096983E-005
                   136 -2.093449643812730E-006
                   137 -4.967433309278413E-006
                   138 -8.862025339879130E-006
                   139  6.823837548709855E-006
                   140  1.168906979214727E-004
                   141  1.801204745349082E-004
                   142  7.373550697731871E-006
                   143 -2.498150693530502E-004
                   144 -6.751486843240757E-006
                   145 -1.394671653231188E-005
                   146 -2.134206415096581E-005
                   147  1.663883326896104E-006
                   148 -2.093069998296798E-006
                   149 -1.887940381140041E-006
                   150 -5.616466925282283E-005
                   151 -1.931685866876488E-006
                   152 -2.055419323095928E-004
                   153 -5.160644181178974E-004
                   154  4.072798885735753E-005
                   155  5.932122971931018E-004
                   156 -2.718475306870081E-004
                   157 -8.707161733414537E-005
                   158 -1.706104135773906E-006
                   159  1.431070945511936E-004
                   160 -3.410209233006355E-005
                   161 -3.778679307789327E-005
                   162  4.848081065746213E-004
                   163  1.542147776953566E-004
                   164  4.338247233772447E-004
                   165  5.353088091276740E-006
                   166  4.592381921780154E-006
                   167  5.079345759585578E-006
                   168  2.092687261765060E-006
                   169  1.070138915781585E-005
                   170  4.808079034824157E-005
                   171 -1.065990175671047E-004
                   172 -9.166517533090141E-006
                   173 -1.596626731450274E-004
                   174 -9.731782284317511E-006
                   175  1.404518740251362E-006
                   176 -1.525765342280690E-005
                   177  3.017171809558402E-006
                   178 -5.751145088827068E-006
                   179  1.708640119629928E-006
                   180 -3.693818296171103E-005
                   181 -4.355666341437090E-006
                   182 -1.436995862583627E-004
                   183 -4.417549994564986E-004
                   184  3.758276347914264E-005
                   185  2.054235181341290E-004
                   186 -3.283120113844310E-005
                   187 -9.560056864835344E-005
                   188 -1.386240104886533E-005
                   189  1.147470634955062E-004
                   190  1.537931330925561E-005
                   191  7.359314607847484E-005
                   192 -3.970210097374220E-004
                   193 -8.855103523955303E-005
                   194  4.306098739367687E-004
                   195 -5.389448341135993E-006
                   196  1.582016025412918E-006
                   197  1.303540316334387E-006
                   198  2.069577716392746E-006
                   199 -5.264898937507579E-007
                   200 -1.080439044277645E-004
                   201 -6.299355876957237E-005
                   202 -3.916699086411859E-006
                   203  4.551105082100370E-005
                   204  1.714098441876531E-005
                   205  1.641831293951140E-006
                   206  5.723479807211716E-006
                   207  1.958985092620800E-006
                   208  4.567710214707558E-006
                   209  2.626856407484351E-007
                   210 -6.008866590003773E-006
                   211 -3.118737954040417E-006
                   212 -6.764581180239982E-005
                   213 -2.779796089909009E-004
                   214  7.194751520779175E-005
                   215  1.679552834818029E-004
                   216  1.116845688620068E-004
                   217  4.034192086851977E-004
                   218 -1.046710970865035E-003
                   219  1.132374918195361E-004
                   220  2.273545655141450E-004
                   221 -2.598819237759468E-004
                   222 -2.696081072071391E-004
                   223 -5.894480011340565E-004
                   224 -6.375062288374049E-005
                   225  7.424236071000590E-006
                   226  4.201280907285705E-005
                   227 -2.070853499167245E-004
                   228 -5.380519323485533E-004
                   229 -4.584190118009193E-005
                   230  1.018365622580536E-005
                   231 -4.660290353350139E-005
                   232 -9.017531393615153E-006
                   233 -5.077276322183475E-004
                   234 -1.713988267811708E-006
                   235 -1.513636166523457E-006
                   236 -6.853561651926453E-007
                   237 -3.786115590831800E-005
                   238 -4.530362941015952E-004
                   239  1.322047726068001E-006
                   240 -2.796486990197201E-006
                   241  4.242724207207258E-006
                   242 -2.590903793179461E-005
                   243  1.191261190365700E-004
                   244  3.095884469835787E-005
                   245  7.697889276060026E-007
                   246 -1.932042134792584E-007
 Sym= __2_A__
 Ene=   2.00000000000000     
 Spin= Alpha
 Occup=    1.00000000000000     
                     1 -3.455206265168024E-005
                     2 -1.466512289675840E-004
                     3  2.312944222672871E-003
                     4  1.207672090128898E-005
                     5  1.177885620343870E-003
                     6  2.194560954279612E-003
                     7 -8.800004593428123E-006
                     8 -1.672416391645297E-004
                     9 -1.333801646047834E-004
                    10  9.084602062181597E-005
                    11 -1.971747689494360E-005
                    12 -1.412331492724495E-005
                    13  4.242869736675811E-005
                    14  2.582721642101609E-005
                    15 -7.360461565184666E-005
                    16 -1.104858120303837E-006
                    17  1.325018758840241E-006
                    18  4.123709169069598E-005
                    19 -9.811955342945567E-006
                    20  1.310702451027263E-004
                    21  1.750365656871024E-005
                    22 -3.059576884628203E-006
                    23  1.032435364873170E-004
                    24 -1.811915802803882E-005
                    25 -5.947098428484256E-006
                    26  1.366998443226448E-004
                    27 -4.644185403862534E-005
                    28 -3.290945935211206E-006
                    29 -1.609006308635460E-006
                    30  1.190931029208319E-004
                    31  2.998977109420336E-005
                    32   1.00091100914270     
                    33  8.946777648583277E-003
                    34  2.799942315885215E-003
                    35 -8.270394314172345E-003
                    36 -2.615182035235314E-003
                    37  5.608483478541064E-004
                    38  1.865866726266890E-005
                    39  7.790938920497445E-004
                    40 -2.536679208014328E-004
                    41 -3.380621814655310E-005
                    42  3.479043956474220E-003
                    43 -1.284755413783380E-004
                    44  2.447577702803576E-005
                    45  2.791697223274513E-004
                    46 -5.475521925165452E-006
                    47 -1.601244349286719E-006
                    48  4.252129657226440E-004
                    49 -2.673266193659670E-005
                    50 -1.058120574879644E-003
                    51  1.550031862980516E-005
                    52  8.056059214745534E-007
                    53 -9.769361149228748E-005
                    54  4.897098765050402E-005
                    55  8.612450009550072E-007
                    56  3.117219528292936E-004
                    57 -9.232602627210654E-006
                    58 -2.369381835401516E-006
                    59 -3.017751322782767E-006
                    60  9.829290703932769E-005
                    61  1.426512670611388E-005
                    62  1.361265925567035E-002
                    63 -1.915211696288563E-003
                    64 -3.085147426006746E-004
                    65  3.156993341815849E-003
                    66 -7.745049667296487E-005
                    67  6.032436829094274E-005
                    68  1.940752317388938E-004
                    69  2.260975029027405E-005
                    70 -5.767434214956460E-007
                    71  5.675030985769411E-004
                    72  1.367955002977736E-004
                    73 -2.476110287994387E-005
                    74 -1.829176890133336E-003
                    75 -1.451156074274808E-005
                    76  2.007294668676381E-005
                    77  6.295661682090727E-006
                    78 -3.210923394769904E-005
                    79 -3.314835481407149E-006
                    80 -3.952509244220295E-004
                    81 -4.357876879141754E-004
                    82 -5.101581676650392E-006
                    83  7.466364988900376E-004
                    84 -2.632350956546053E-006
                    85  4.955268794278679E-005
                    86  1.138520068079831E-004
                    87 -6.033745636923796E-007
                    88 -1.726396567339685E-005
                    89 -6.540064578166328E-006
                    90 -3.085172508753808E-005
                    91  4.358135028024405E-006
                    92  1.499674329683356E-002
                    93 -1.913418780512573E-003
                    94 -3.064010322328465E-004
                    95  3.154951833407341E-003
                    96 -7.656944533351852E-005
                    97  5.642879605606624E-005
                    98 -1.807170155680491E-004
                    99  1.290965182321949E-005
                   100  1.502787471514897E-008
                   101 -5.713050311492738E-004
                   102  1.564861597794675E-004
                   103 -2.302272596660415E-005
                   104  1.832448694167056E-003
                   105 -1.302829183670997E-005
                   106 -2.053300153615732E-005
                   107 -6.355915073662243E-006
                   108 -3.228067295878182E-005
                   109 -3.247862109993350E-006
                   110 -3.979283605516240E-004
                   111  4.464344634111223E-004
                   112  4.572762795621636E-006
                   113  7.516275608455656E-004
                   114 -3.662078227976561E-006
                   115 -4.911006284948803E-005
                   116  1.133755934670130E-004
                   117  1.055353517581211E-007
                   118  1.572811726719788E-005
                   119  6.773179665023841E-006
                   120 -3.008674910187177E-005
                   121  4.211694390065331E-006
                   122 -9.293589315291570E-005
                   123 -6.761427281932908E-004
                   124  2.500133674141378E-004
                   125 -2.984667358817788E-004
                   126 -2.493948071082974E-004
                   127  8.690177207867588E-006
                   128 -3.378198900825335E-005
                   129  6.032051895182835E-004
                   130 -1.951889487059256E-007
                   131  1.896048157382863E-005
                   132  5.897638508764776E-004
                   133  8.916846836543051E-006
                   134  3.167717500674051E-004
                   135 -6.005969685748052E-007
                   136  4.223598747661759E-005
                   137  2.074606059786998E-007
                   138 -3.265961926545196E-005
                   139 -5.173710648063541E-007
                   140  1.859776694336193E-004
                   141 -2.326105163513057E-004
                   142  1.406679887033837E-006
                   143 -2.614671657518408E-004
                   144 -3.603008650146303E-006
                   145 -1.966883454745766E-005
                   146  1.650720081341377E-005
                   147 -3.512642628286638E-008
                   148 -1.572228495156672E-005
                   149 -1.899814702556690E-006
                   150 -2.683930346784641E-005
                   151 -7.378403011466394E-007
                   152 -5.666712510627165E-005
                   153 -6.825930140676773E-004
                   154  2.494956783985024E-004
                   155 -2.934993153271014E-004
                   156 -2.450725123228527E-004
                   157  6.056190638555748E-006
                   158  3.385978982391945E-005
                   159  6.017373090684596E-004
                   160  7.175520316032373E-008