[Molden Format]
[Atoms] AU
  N     1    7    -4.4519150800    0.1645695100   -0.0000004400        
  C     2    6    -1.7695092000   -0.0145096000   -0.0000001700        
  C     3    6    -0.4270927200   -0.0061402300   -2.2691546100        
  C     4    6    -0.4270931100   -0.0061391100    2.2691544900        
  C     5    6     2.1889955900   -0.0004823800   -2.2566388900        
  C     6    6     2.1889952100   -0.0004812700    2.2566392100        
  C     7    6     3.5149715000    0.0022090000    0.0000002700        
  H     8    1    -5.3847680700   -0.9508472000   -1.9800838900        
  H     9    1    -5.3130104600   -0.8650450100    1.8277692600        
  H    10    1    -1.4305344500   -0.0005073500   -4.0318143700        
  H    11    1    -1.4305351200   -0.0005053700    4.0318140800        
  H    12    1     3.1914120400   -0.0010699000   -4.0209976100        
  H    13    1     3.1914113700   -0.0010679200    4.0209980900        
  H    14    1     5.5428332300    0.0050250700    0.0000004400        
[5D]
[7F]
[GTO]
  1  0
   s    12 1.00
  0.114200D+05  0.172695D-04
  0.171200D+04  0.134411D-03
  0.389300D+03  0.694561D-03
  0.110000D+03  0.278531D-02
  0.355700D+02  0.863457D-02
  0.125400D+02  0.199805D-01
  0.464400D+01  0.262908D-01
  0.129300D+01 -0.243845D-01
  0.511800D+00 -0.924934D-01
  0.178700D+00 -0.339683D+00
  0.246240D-01  0.345111D+00
  0.112530D-01  0.752750D+00
   s    10 1.00
  0.114200D+05  0.523000D-03
  0.171200D+04  0.404500D-02
  0.389300D+03  0.207750D-01
  0.110000D+03  0.807269D-01
  0.355700D+02  0.233074D+00
  0.125400D+02  0.433501D+00
  0.464400D+01  0.347472D+00
  0.129300D+01  0.412620D-01
  0.511800D+00 -0.850799D-02
  0.178700D+00  0.238400D-02
   s    10 1.00
  0.114200D+05 -0.115000D-03
  0.171200D+04 -0.895000D-03
  0.389300D+03 -0.462400D-02
  0.110000D+03 -0.185280D-01
  0.355700D+02 -0.573390D-01
  0.125400D+02 -0.132076D+00
  0.464400D+01 -0.172510D+00
  0.129300D+01  0.151814D+00
  0.511800D+00  0.599944D+00
  0.178700D+00  0.387462D+00
   s     1 1.00
  0.129300D+01  0.100000D+01
   s     1 1.00
  0.178700D+00  0.100000D+01
   p     5 1.00
  0.266300D+02  0.146700D-01
  0.594800D+01  0.917640D-01
  0.174200D+01  0.298683D+00
  0.555000D+00  0.498487D+00
  0.172500D+00  0.337023D+00
   p     1 1.00
  0.174200D+01  0.100000D+01
   p     1 1.00
  0.555000D+00  0.100000D+01
   d     1 1.00
  0.165400D+01  0.100000D+01
   d     1 1.00
  0.469000D+00  0.100000D+01
   f     1 1.00
  0.109300D+01  0.100000D+01
  
  2  0
   s    10 1.00
  0.823600D+04  0.531000D-03
  0.123500D+04  0.410800D-02
  0.280800D+03  0.210870D-01
  0.792700D+02  0.818530D-01
  0.255900D+02  0.234817D+00
  0.899700D+01  0.434401D+00
  0.331900D+01  0.346129D+00
  0.905900D+00  0.393780D-01
  0.364300D+00 -0.898300D-02
  0.128500D+00  0.238500D-02
   s    10 1.00
  0.823600D+04 -0.113000D-03
  0.123500D+04 -0.878000D-03
  0.280800D+03 -0.454000D-02
  0.792700D+02 -0.181330D-01
  0.255900D+02 -0.557600D-01
  0.899700D+01 -0.126895D+00
  0.331900D+01 -0.170352D+00
  0.905900D+00  0.140382D+00
  0.364300D+00  0.598684D+00
  0.128500D+00  0.395389D+00
   s     1 1.00
  0.905900D+00  0.100000D+01
   s     1 1.00
  0.364300D+00  0.100000D+01
   p     5 1.00
  0.187100D+02  0.140310D-01
  0.413300D+01  0.868660D-01
  0.120000D+01  0.290216D+00
  0.382700D+00  0.501008D+00
  0.120900D+00  0.343406D+00
   p     1 1.00
  0.382700D+00  0.100000D+01
   p     1 1.00
  0.120900D+00  0.100000D+01
   d     1 1.00
  0.109700D+01  0.100000D+01
   d     1 1.00
  0.318000D+00  0.100000D+01
   f     1 1.00
  0.761000D+00  0.100000D+01
  
  3  0
   s    10 1.00
  0.823600D+04  0.531000D-03
  0.123500D+04  0.410800D-02
  0.280800D+03  0.210870D-01
  0.792700D+02  0.818530D-01
  0.255900D+02  0.234817D+00
  0.899700D+01  0.434401D+00
  0.331900D+01  0.346129D+00
  0.905900D+00  0.393780D-01
  0.364300D+00 -0.898300D-02
  0.128500D+00  0.238500D-02
   s    10 1.00
  0.823600D+04 -0.113000D-03
  0.123500D+04 -0.878000D-03
  0.280800D+03 -0.454000D-02
  0.792700D+02 -0.181330D-01
  0.255900D+02 -0.557600D-01
  0.899700D+01 -0.126895D+00
  0.331900D+01 -0.170352D+00
  0.905900D+00  0.140382D+00
  0.364300D+00  0.598684D+00
  0.128500D+00  0.395389D+00
   s     1 1.00
  0.905900D+00  0.100000D+01
   s     1 1.00
  0.364300D+00  0.100000D+01
   p     5 1.00
  0.187100D+02  0.140310D-01
  0.413300D+01  0.868660D-01
  0.120000D+01  0.290216D+00
  0.382700D+00  0.501008D+00
  0.120900D+00  0.343406D+00
   p     1 1.00
  0.382700D+00  0.100000D+01
   p     1 1.00
  0.120900D+00  0.100000D+01
   d     1 1.00
  0.109700D+01  0.100000D+01
   d     1 1.00
  0.318000D+00  0.100000D+01
   f     1 1.00
  0.761000D+00  0.100000D+01
  
  4  0
   s    10 1.00
  0.823600D+04  0.531000D-03
  0.123500D+04  0.410800D-02
  0.280800D+03  0.210870D-01
  0.792700D+02  0.818530D-01
  0.255900D+02  0.234817D+00
  0.899700D+01  0.434401D+00
  0.331900D+01  0.346129D+00
  0.905900D+00  0.393780D-01
  0.364300D+00 -0.898300D-02
  0.128500D+00  0.238500D-02
   s    10 1.00
  0.823600D+04 -0.113000D-03
  0.123500D+04 -0.878000D-03
  0.280800D+03 -0.454000D-02
  0.792700D+02 -0.181330D-01
  0.255900D+02 -0.557600D-01
  0.899700D+01 -0.126895D+00
  0.331900D+01 -0.170352D+00
  0.905900D+00  0.140382D+00
  0.364300D+00  0.598684D+00
  0.128500D+00  0.395389D+00
   s     1 1.00
  0.905900D+00  0.100000D+01
   s     1 1.00
  0.364300D+00  0.100000D+01
   p     5 1.00
  0.187100D+02  0.140310D-01
  0.413300D+01  0.868660D-01
  0.120000D+01  0.290216D+00
  0.382700D+00  0.501008D+00
  0.120900D+00  0.343406D+00
   p     1 1.00
  0.382700D+00  0.100000D+01
   p     1 1.00
  0.120900D+00  0.100000D+01
   d     1 1.00
  0.109700D+01  0.100000D+01
   d     1 1.00
  0.318000D+00  0.100000D+01
   f     1 1.00
  0.761000D+00  0.100000D+01
  
  5  0
   s    10 1.00
  0.823600D+04  0.531000D-03
  0.123500D+04  0.410800D-02
  0.280800D+03  0.210870D-01
  0.792700D+02  0.818530D-01
  0.255900D+02  0.234817D+00
  0.899700D+01  0.434401D+00
  0.331900D+01  0.346129D+00
  0.905900D+00  0.393780D-01
  0.364300D+00 -0.898300D-02
  0.128500D+00  0.238500D-02
   s    10 1.00
  0.823600D+04 -0.113000D-03
  0.123500D+04 -0.878000D-03
  0.280800D+03 -0.454000D-02
  0.792700D+02 -0.181330D-01
  0.255900D+02 -0.557600D-01
  0.899700D+01 -0.126895D+00
  0.331900D+01 -0.170352D+00
  0.905900D+00  0.140382D+00
  0.364300D+00  0.598684D+00
  0.128500D+00  0.395389D+00
   s     1 1.00
  0.905900D+00  0.100000D+01
   s     1 1.00
  0.364300D+00  0.100000D+01
   p     5 1.00
  0.187100D+02  0.140310D-01
  0.413300D+01  0.868660D-01
  0.120000D+01  0.290216D+00
  0.382700D+00  0.501008D+00
  0.120900D+00  0.343406D+00
   p     1 1.00
  0.382700D+00  0.100000D+01
   p     1 1.00
  0.120900D+00  0.100000D+01
   d     1 1.00
  0.109700D+01  0.100000D+01
   d     1 1.00
  0.318000D+00  0.100000D+01
   f     1 1.00
  0.761000D+00  0.100000D+01
  
  6  0
   s    10 1.00
  0.823600D+04  0.531000D-03
  0.123500D+04  0.410800D-02
  0.280800D+03  0.210870D-01
  0.792700D+02  0.818530D-01
  0.255900D+02  0.234817D+00
  0.899700D+01  0.434401D+00
  0.331900D+01  0.346129D+00
  0.905900D+00  0.393780D-01
  0.364300D+00 -0.898300D-02
  0.128500D+00  0.238500D-02
   s    10 1.00
  0.823600D+04 -0.113000D-03
  0.123500D+04 -0.878000D-03
  0.280800D+03 -0.454000D-02
  0.792700D+02 -0.181330D-01
  0.255900D+02 -0.557600D-01
  0.899700D+01 -0.126895D+00
  0.331900D+01 -0.170352D+00
  0.905900D+00  0.140382D+00
  0.364300D+00  0.598684D+00
  0.128500D+00  0.395389D+00
   s     1 1.00
  0.905900D+00  0.100000D+01
   s     1 1.00
  0.364300D+00  0.100000D+01
   p     5 1.00
  0.187100D+02  0.140310D-01
  0.413300D+01  0.868660D-01
  0.120000D+01  0.290216D+00
  0.382700D+00  0.501008D+00
  0.120900D+00  0.343406D+00
   p     1 1.00
  0.382700D+00  0.100000D+01
   p     1 1.00
  0.120900D+00  0.100000D+01
   d     1 1.00
  0.109700D+01  0.100000D+01
   d     1 1.00
  0.318000D+00  0.100000D+01
   f     1 1.00
  0.761000D+00  0.100000D+01
  
  7  0
   s    10 1.00
  0.823600D+04  0.531000D-03
  0.123500D+04  0.410800D-02
  0.280800D+03  0.210870D-01
  0.792700D+02  0.818530D-01
  0.255900D+02  0.234817D+00
  0.899700D+01  0.434401D+00
  0.331900D+01  0.346129D+00
  0.905900D+00  0.393780D-01
  0.364300D+00 -0.898300D-02
  0.128500D+00  0.238500D-02
   s    10 1.00
  0.823600D+04 -0.113000D-03
  0.123500D+04 -0.878000D-03
  0.280800D+03 -0.454000D-02
  0.792700D+02 -0.181330D-01
  0.255900D+02 -0.557600D-01
  0.899700D+01 -0.126895D+00
  0.331900D+01 -0.170352D+00
  0.905900D+00  0.140382D+00
  0.364300D+00  0.598684D+00
  0.128500D+00  0.395389D+00
   s     1 1.00
  0.905900D+00  0.100000D+01
   s     1 1.00
  0.364300D+00  0.100000D+01
   p     5 1.00
  0.187100D+02  0.140310D-01
  0.413300D+01  0.868660D-01
  0.120000D+01  0.290216D+00
  0.382700D+00  0.501008D+00
  0.120900D+00  0.343406D+00
   p     1 1.00
  0.382700D+00  0.100000D+01
   p     1 1.00
  0.120900D+00  0.100000D+01
   d     1 1.00
  0.109700D+01  0.100000D+01
   d     1 1.00
  0.318000D+00  0.100000D+01
   f     1 1.00
  0.761000D+00  0.100000D+01
  
  8  0
   s     4 1.00
  0.130100D+02  0.196850D-01
  0.196200D+01  0.137977D+00
  0.444600D+00  0.478148D+00
  0.122000D+00  0.501240D+00
   s     1 1.00
  0.122000D+00  0.100000D+01
   p     1 1.00
  0.727000D+00  0.100000D+01
  
  9  0
   s     4 1.00
  0.130100D+02  0.196850D-01
  0.196200D+01  0.137977D+00
  0.444600D+00  0.478148D+00
  0.122000D+00  0.501240D+00
   s     1 1.00
  0.122000D+00  0.100000D+01
   p     1 1.00
  0.727000D+00  0.100000D+01
  
 10  0
   s     4 1.00
  0.130100D+02  0.196850D-01
  0.196200D+01  0.137977D+00
  0.444600D+00  0.478148D+00
  0.122000D+00  0.501240D+00
   s     1 1.00
  0.122000D+00  0.100000D+01
   p     1 1.00
  0.727000D+00  0.100000D+01
  
 11  0
   s     4 1.00
  0.130100D+02  0.196850D-01
  0.196200D+01  0.137977D+00
  0.444600D+00  0.478148D+00
  0.122000D+00  0.501240D+00
   s     1 1.00
  0.122000D+00  0.100000D+01
   p     1 1.00
  0.727000D+00  0.100000D+01
  
 12  0
   s     4 1.00
  0.130100D+02  0.196850D-01
  0.196200D+01  0.137977D+00
  0.444600D+00  0.478148D+00
  0.122000D+00  0.501240D+00
   s     1 1.00
  0.122000D+00  0.100000D+01
   p     1 1.00
  0.727000D+00  0.100000D+01
  
 13  0
   s     4 1.00
  0.130100D+02  0.196850D-01
  0.196200D+01  0.137977D+00
  0.444600D+00  0.478148D+00
  0.122000D+00  0.501240D+00
   s     1 1.00
  0.122000D+00  0.100000D+01
   p     1 1.00
  0.727000D+00  0.100000D+01
  
 14  0
   s     4 1.00
  0.130100D+02  0.196850D-01
  0.196200D+01  0.137977D+00
  0.444600D+00  0.478148D+00
  0.122000D+00  0.501240D+00
   s     1 1.00
  0.122000D+00  0.100000D+01
   p     1 1.00
  0.727000D+00  0.100000D+01
  
[MO]
 Sym= __1_A__
 Ene=   1.00000000000000     
 Spin= Alpha
 Occup=    1.00000000000000     
                     1  1.545719477245961E-004
                     2  0.998621510632032     
                     3 -2.657310131634912E-004
                     4  1.328763778147118E-003
                     5  6.181812329570652E-003
                     6  6.239672616741651E-003
                     7 -4.414115488659965E-003
                     8  3.995323456847256E-004
                     9 -8.945182554922593E-004
                    10  4.028389533219603E-004
                    11 -5.202111557823398E-005
                    12 -2.158563036269435E-003
                    13  3.033156339800414E-003
                    14 -3.176677557209522E-004
                    15 -9.503763057494982E-005
                    16 -1.220647640745723E-005
                    17 -8.780679373070499E-006
                    18  7.301337457788364E-005
                    19  3.362320527074259E-006
                    20 -3.014416433306767E-004
                    21  6.532073642227500E-005
                    22  1.398250414702160E-005
                    23  4.208060976361886E-005
                    24 -4.405895873971218E-004
                    25  4.363531246719055E-006
                    26 -7.790505783825522E-005
                    27  5.170304893809938E-006
                    28 -8.414503906394470E-007
                    29 -2.571044791358920E-006
                    30 -5.602034266720181E-005
                    31 -5.629446621162185E-005
                    32 -3.510619928136244E-004
                    33  4.100954367613657E-004
                    34  2.615818570062100E-004
                    35 -1.514395873821770E-004
                    36 -2.989553059982570E-003
                    37 -1.066182601306960E-004
                    38 -2.702914479399061E-005
                    39 -2.749581700091649E-005
                    40 -2.811046658253284E-006
                    41  7.724094430733652E-005
                    42  5.177590538622796E-003
                    43  7.635574906933290E-004
                    44 -2.100307978725797E-004
                    45 -1.732138375076389E-004
                    46 -1.846055252686104E-006
                    47  1.904993119695948E-006
                    48  1.540202744534894E-004
                    49  4.008935365592239E-005
                    50  2.880476135633199E-004
                    51  9.099980558269738E-005
                    52 -1.228436707225414E-005
                    53  2.172316945017494E-006
                    54 -3.412965394821825E-004
                    55  3.731037483200213E-008
                    56 -5.526146590097503E-005
                    57  4.105109586387150E-006
                    58  3.832958588252062E-006
                    59  9.609231662242978E-009
                    60 -3.505449861227353E-005
                    61  4.415840160597161E-005
                    62 -4.143321786879365E-004
                    63 -1.700079632841470E-003
                    64  5.806453519493988E-005
                    65  1.154712506468220E-003
                    66  2.600504607274470E-004
                    67 -1.456899027871430E-004
                    68 -4.070584282542181E-004
                    69  5.443377498412055E-004
                    70  6.966298467559209E-005
                    71  1.871390026073959E-004
                    72 -4.221770486536114E-004
                    73 -3.284574191610816E-004
                    74 -1.106633098043235E-003
                    75 -4.850964691121749E-005
                    76 -1.494272753386813E-005
                    77  1.770220434528126E-005
                    78  5.942958990374986E-005
                    79 -9.920584468294727E-006
                    80  1.555961540786841E-004
                    81  5.337166542783933E-005
                    82 -3.922084803912122E-005
                    83 -7.201677420162292E-005
                    84  5.665575951196048E-005
                    85 -1.248578005162724E-005
                    86 -7.202993538701830E-005
                    87  1.747036084213218E-005
                    88 -8.321012597526213E-006
                    89  1.284408947542675E-005
                    90 -5.079646506901536E-005
                    91 -1.000028887025313E-005
                    92 -3.769678288425178E-004
                    93 -1.583876234218813E-003
                    94  9.365594886432794E-005
                    95  8.810066864127530E-004
                    96  2.836086301199363E-004
                    97 -1.562973846841483E-004
                    98  3.977903388183847E-004
                    99  5.179258134440241E-004
                   100  9.083012598730522E-005
                   101 -7.513161094192404E-005
                   102 -6.614786401802438E-004
                   103 -3.471823246538420E-004
                   104  9.869528256210012E-004
                   105 -5.123038122203857E-005
                   106  8.436666947552121E-006
                   107 -1.848246953088456E-005
                   108  5.532998105232820E-005
                   109 -1.135233278923497E-005
                   110  1.115166269221817E-004
                   111 -5.667215148775587E-005
                   112  3.401452154318188E-005
                   113 -7.986452587928704E-005
                   114  5.556048906656229E-005
                   115  9.922147764276354E-006
                   116 -5.890745754830810E-005
                   117  1.792466068254429E-005
                   118  8.975371101677767E-006
                   119 -1.061022780410241E-005
                   120 -4.616532872206036E-005
                   121 -9.845885664917053E-006
                   122 -2.222285885378814E-004
                   123 -5.375118549576305E-004
                   124  6.484458181858286E-005
                   125  6.173857074343926E-004
                   126 -3.396269617257605E-004
                   127 -8.436149130509401E-005
                   128 -2.365123874917652E-006
                   129  2.518422049982548E-004
                   130 -2.544424291517262E-005
                   131  8.470588604178237E-005
                   132  9.911913638636243E-004
                   133  1.523912341572822E-004
                   134 -2.183072721565891E-004
                   135  1.198521967357976E-005
                   136 -2.300270346105122E-006
                   137 -5.112145974127216E-006
                   138 -3.833378265777964E-006
                   139  9.326300229223185E-006
                   140  9.070018753800029E-005
                   141  1.603910256887072E-004
                   142  9.589643980261900E-006
                   143 -2.155569572426430E-004
                   144 -1.035381198715183E-005
                   145 -1.008182076434030E-005
                   146 -1.842466440689057E-005
                   147  2.454415530408925E-006
                   148 -1.587005221758644E-007
                   149 -2.675835758247799E-006
                   150 -4.928547392209018E-005
                   151 -2.884936140301664E-006
                   152 -2.117360680310862E-004
                   153 -5.027699836880566E-004
                   154  5.321342987675474E-005
                   155  6.000096689114428E-004
                   156 -3.349022066896712E-004
                   157 -8.284568034290760E-005
                   158 -1.019751655362699E-006
                   159  2.043497113384389E-004
                   160 -2.966266848594897E-005
                   161 -6.255021763693731E-005
                   162  7.579352907097727E-004
                   163  1.637652095198799E-004
                   164  3.249115120873643E-004
                   165  8.475218382309463E-006
                   166  2.912702309228276E-006
                   167  5.071058358017057E-006
                   168 -5.605242323064180E-007
                   169  1.055425024285038E-005
                   170  7.101370809061936E-005
                   171 -1.384663574783764E-004
                   172 -9.471790138686113E-006
                   173 -1.897491923682177E-004
                   174 -1.188069153174587E-005
                   175  6.297039697998827E-006
                   176 -1.656824603283531E-005
                   177  2.828874561812225E-006
                   178 -2.280342436660564E-006
                   179  2.679844676839434E-006
                   180 -4.355004150351281E-005
                   181 -3.641528772288121E-006
                   182 -1.382113267061184E-004
                   183 -4.246496472620261E-004
                   184  3.636943015116347E-005
                   185  1.908502110828848E-004
                   186 -3.071605483090519E-005
                   187 -8.970121378339255E-005
                   188 -4.230043300113137E-006
                   189  1.140635359660006E-004
                   190  1.922211304560717E-005
                   191  2.098627178612800E-005
                   192 -3.978998841881382E-004
                   193 -1.048497136942362E-004
                   194  1.307276561788348E-004
                   195 -6.412553805712649E-006
                   196  4.754764773539699E-007
                   197  3.947475914335769E-007
                   198  2.552912302844760E-006
                   199 -1.306514812077497E-006
                   200 -1.103406094377461E-004
                   201 -1.821574845301839E-005
                   202 -7.806581018930700E-007
                   203  4.722553591130248E-005
                   204  1.960440189044490E-005
                   205  5.590745668864403E-007
                   206  5.746899009905355E-006
                   207  2.748364292356504E-006
                   208  1.333367196645385E-006
                   209  7.469140802217669E-009
                   210 -6.084914712055983E-006
                   211 -3.407210082114054E-006
                   212  2.417927167672127E-004
                   213 -5.915062320768649E-004
                   214  1.006010807825252E-004
                   215  2.042333416743812E-004
                   216  1.763377951213464E-004
                   217  5.372807720230835E-004
                   218 -8.958653079380389E-004
                   219  1.231475323636909E-004
                   220  2.342173569836301E-004
                   221 -2.407145032244675E-004
                   222 -2.886638670270782E-004
                   223 -5.366282524874063E-004
                   224 -5.788352084832857E-005
                   225  8.616154876639618E-006
                   226  4.352818929753786E-005
                   227 -2.749095536564627E-004
                   228 -5.150481322329508E-004
                   229 -5.206632462534428E-005
                   230  9.527450003412409E-006
                   231 -4.436863709048531E-005
                   232 -3.611338106516853E-005
                   233 -4.920599196001191E-004
                   234 -5.213460531968762E-007
                   235 -2.092776268886911E-006
                   236 -3.070658272111482E-006
                   237 -4.569094787118739E-005
                   238 -4.770325770100904E-004
                   239  2.379605816907650E-007
                   240 -2.555287561830420E-006
                   241  3.972742111591081E-006
                   242 -1.640263644121023E-005
                   243  1.207066337966301E-004
                   244  3.089349483916531E-005
                   245  1.031551813236219E-006
                   246 -1.543036895066598E-007
 Sym= __2_A__
 Ene=   2.00000000000000     
 Spin= Alpha
 Occup=    1.00000000000000     
                     1 -3.437631709703558E-005
                     2 -1.295541792474646E-004
                     3  2.361314743674855E-003
                     4  3.054428372103219E-006
                     5  1.177520621552242E-003
                     6  2.120005136738794E-003
                     7  2.115888213102449E-005
                     8 -5.244217966782125E-005
                     9 -1.368626406843865E-004
                    10  9.328858025293655E-005
                    11 -6.658592265168911E-006
                    12 -7.793803286916588E-006
                    13  3.789980054392695E-005
                    14  9.467340935964232E-006
                    15 -7.409653759492213E-005
                    16 -8.318981192065103E-007
                    17  1.850992249231039E-007
                    18  4.269827741439102E-005
                    19 -9.587341941809677E-006
                    20  1.354393470126599E-004
                    21  5.770577170311777E-006
                    22 -1.420702225272373E-006
                    23  1.035711145739821E-004
                    24 -1.433712840911544E-005
                    25 -1.932726445209410E-006
                    26  1.367234069568031E-004
                    27 -4.806735756473270E-005
                    28 -1.108052685399218E-006
                    29 -4.639195670942371E-007
                    30  1.204631514747526E-004
                    31  2.946519965435858E-005
                    32   1.00093675103879     
                    33  8.892141559740462E-003
                    34  2.787067398249387E-003
                    35 -8.237644880394834E-003
                    36 -2.706326005059500E-003
                    37  5.823783872399066E-004
                    38  9.018530433338492E-006
                    39  9.401133296313280E-004
                    40 -2.447189515852284E-004
                    41 -1.503829813576647E-005
                    42  3.509396062743850E-003
                    43 -1.234761974938289E-004
                    44  5.881767240447249E-006
                    45  2.832522319401121E-004
                    46 -2.001626542956237E-006
                    47 -2.150976159791235E-007
                    48  4.272184905800584E-004
                    49 -2.839984353447350E-005
                    50 -1.047259552842249E-003
                    51  4.927385829644724E-006
                    52  1.857843478434892E-007
                    53 -1.003150872760506E-004
                    54  5.086216503224260E-005
                    55  2.340540111037610E-007
                    56  3.138285440479983E-004
                    57 -8.145869170815703E-006
                    58 -1.073568420932623E-006
                    59 -1.023295690295235E-006
                    60  9.388566901164727E-005
                    61  1.392649163889759E-005
                    62  1.321893929590988E-002
                    63 -1.907460899479763E-003
                    64 -3.076120782521044E-004
                    65  3.146552359781923E-003
                    66 -8.911890899012366E-005
                    67  7.234873152305790E-005
                    68  2.082454905406334E-004
                    69  2.887880139826486E-005
                    70 -1.370776797552428E-006
                    71  5.429806878962728E-004
                    72  1.479775481581487E-004
                    73 -2.701992596915197E-005
                    74 -1.832995511190562E-003
                    75 -1.415330177779489E-005
                    76  2.283257649845992E-005
                    77  6.763374778497639E-006
                    78 -3.355538816056682E-005
                    79 -3.558439613783176E-006
                    80 -4.072962890515180E-004
                    81 -4.482475493527930E-004
                    82 -5.629652516441391E-006
                    83  7.528828923529137E-004
                    84 -3.268141051259871E-006
                    85  5.038142511630411E-005
                    86  1.114130022602060E-004
                    87 -5.415924627084133E-007
                    88 -1.673454314078209E-005
                    89 -6.527337801531755E-006
                    90 -3.045999030528764E-005
                    91  4.414795323121299E-006
                    92  1.366487845089108E-002
                    93 -1.907476853337255E-003
                    94 -3.073998816725274E-004
                    95  3.147651011144619E-003
                    96 -8.832829172870779E-005
                    97  7.141676688355038E-005
                    98 -2.031403655785022E-004
                    99  2.431000122365969E-005
                   100 -1.207217997027878E-006
                   101 -5.456039252040889E-004
                   102  1.524641633973280E-004
                   103 -2.639145488830824E-005
                   104  1.832864965191174E-003
                   105 -1.351060002856351E-005
                   106 -2.293491606940085E-005
                   107 -6.749693960607627E-006
                   108 -3.359854590677458E-005
                   109 -3.527261504715498E-006
                   110 -4.080034106282923E-004
                   111  4.527144629562728E-004
                   112  5.394993828201546E-006
                   113  7.546494549966512E-004
                   114 -3.736042971306228E-006
                   115 -5.018279480942548E-005
                   116  1.112884484600110E-004
                   117 -3.280527635001001E-007
                   118  1.618975183281261E-005
                   119  6.617585940378499E-006
                   120 -3.015901497271588E-005
                   121  4.372659997108417E-006
                   122 -1.153370605513901E-004
                   123 -6.890309166527215E-004
                   124  2.511226527189341E-004
                   125 -3.064310226913251E-004
                   126 -2.358200756194521E-004
                   127  6.529814795237767E-006
                   128 -3.729887585709380E-005
                   129  6.036562805646265E-004
                   130 -4.497163099958724E-009
                   131  2.979516497062871E-005
                   132  5.914052987607033E-004
                   133  8.398810608246547E-006
                   134  3.275505605276905E-004
                   135 -5.188415359374939E-007
                   136  4.240001977192531E-005
                   137  8.508865988791057E-008
                   138 -3.299899827626314E-005
                   139 -7.821352293837981E-007
                   140  1.902375614974925E-004
                   141 -2.447377393994613E-004
                   142  1.503572677050823E-006
                   143 -2.634493403489766E-004
                   144 -4.289498893331120E-006
                   145 -1.903963540425569E-005
                   146  1.522531732936152E-005
                   147 -9.865280504383460E-008
                   148 -1.456306528258686E-005
                   149 -1.999217429390528E-006
                   150 -2.625216853788598E-005
                   151 -6.596837369990510E-007
                   152 -1.062523110135813E-004
                   153 -6.907025270505859E-004
                   154  2.509859559998675E-004
                   155 -3.053380431773318E-004
                   156 -2.344677684145366E-004
                   157  5.806848195902828E-006
                   158  3.710875923944749E-005
                   159  6.027495519852140E-004
                   160  1.158757122430055E-007