[Molden Format]
[Atoms] AU
  N     1    7    -4.4519150800    0.1645695100   -0.0000004400        
  C     2    6    -1.7695092000   -0.0145096000   -0.0000001700        
  C     3    6    -0.4270927200   -0.0061402300   -2.2691546100        
  C     4    6    -0.4270931100   -0.0061391100    2.2691544900        
  C     5    6     2.1889955900   -0.0004823800   -2.2566388900        
  C     6    6     2.1889952100   -0.0004812700    2.2566392100        
  C     7    6     3.5149715000    0.0022090000    0.0000002700        
  H     8    1    -5.3847680700   -0.9508472000   -1.9800838900        
  H     9    1    -5.3130104600   -0.8650450100    1.8277692600        
  H    10    1    -1.4305344500   -0.0005073500   -4.0318143700        
  H    11    1    -1.4305351200   -0.0005053700    4.0318140800        
  H    12    1     3.1914120400   -0.0010699000   -4.0209976100        
  H    13    1     3.1914113700   -0.0010679200    4.0209980900        
  H    14    1     5.5428332300    0.0050250700    0.0000004400        
[5D]
[7F]
[GTO]
  1  0
   s    12 1.00
  0.114200D+05  0.172695D-04
  0.171200D+04  0.134411D-03
  0.389300D+03  0.694561D-03
  0.110000D+03  0.278531D-02
  0.355700D+02  0.863457D-02
  0.125400D+02  0.199805D-01
  0.464400D+01  0.262908D-01
  0.129300D+01 -0.243845D-01
  0.511800D+00 -0.924934D-01
  0.178700D+00 -0.339683D+00
  0.246240D-01  0.345111D+00
  0.112530D-01  0.752750D+00
   s    10 1.00
  0.114200D+05  0.523000D-03
  0.171200D+04  0.404500D-02
  0.389300D+03  0.207750D-01
  0.110000D+03  0.807269D-01
  0.355700D+02  0.233074D+00
  0.125400D+02  0.433501D+00
  0.464400D+01  0.347472D+00
  0.129300D+01  0.412620D-01
  0.511800D+00 -0.850799D-02
  0.178700D+00  0.238400D-02
   s    10 1.00
  0.114200D+05 -0.115000D-03
  0.171200D+04 -0.895000D-03
  0.389300D+03 -0.462400D-02
  0.110000D+03 -0.185280D-01
  0.355700D+02 -0.573390D-01
  0.125400D+02 -0.132076D+00
  0.464400D+01 -0.172510D+00
  0.129300D+01  0.151814D+00
  0.511800D+00  0.599944D+00
  0.178700D+00  0.387462D+00
   s     1 1.00
  0.129300D+01  0.100000D+01
   s     1 1.00
  0.178700D+00  0.100000D+01
   p     5 1.00
  0.266300D+02  0.146700D-01
  0.594800D+01  0.917640D-01
  0.174200D+01  0.298683D+00
  0.555000D+00  0.498487D+00
  0.172500D+00  0.337023D+00
   p     1 1.00
  0.174200D+01  0.100000D+01
   p     1 1.00
  0.555000D+00  0.100000D+01
   d     1 1.00
  0.165400D+01  0.100000D+01
   d     1 1.00
  0.469000D+00  0.100000D+01
   f     1 1.00
  0.109300D+01  0.100000D+01
  
  2  0
   s    10 1.00
  0.823600D+04  0.531000D-03
  0.123500D+04  0.410800D-02
  0.280800D+03  0.210870D-01
  0.792700D+02  0.818530D-01
  0.255900D+02  0.234817D+00
  0.899700D+01  0.434401D+00
  0.331900D+01  0.346129D+00
  0.905900D+00  0.393780D-01
  0.364300D+00 -0.898300D-02
  0.128500D+00  0.238500D-02
   s    10 1.00
  0.823600D+04 -0.113000D-03
  0.123500D+04 -0.878000D-03
  0.280800D+03 -0.454000D-02
  0.792700D+02 -0.181330D-01
  0.255900D+02 -0.557600D-01
  0.899700D+01 -0.126895D+00
  0.331900D+01 -0.170352D+00
  0.905900D+00  0.140382D+00
  0.364300D+00  0.598684D+00
  0.128500D+00  0.395389D+00
   s     1 1.00
  0.905900D+00  0.100000D+01
   s     1 1.00
  0.364300D+00  0.100000D+01
   p     5 1.00
  0.187100D+02  0.140310D-01
  0.413300D+01  0.868660D-01
  0.120000D+01  0.290216D+00
  0.382700D+00  0.501008D+00
  0.120900D+00  0.343406D+00
   p     1 1.00
  0.382700D+00  0.100000D+01
   p     1 1.00
  0.120900D+00  0.100000D+01
   d     1 1.00
  0.109700D+01  0.100000D+01
   d     1 1.00
  0.318000D+00  0.100000D+01
   f     1 1.00
  0.761000D+00  0.100000D+01
  
  3  0
   s    10 1.00
  0.823600D+04  0.531000D-03
  0.123500D+04  0.410800D-02
  0.280800D+03  0.210870D-01
  0.792700D+02  0.818530D-01
  0.255900D+02  0.234817D+00
  0.899700D+01  0.434401D+00
  0.331900D+01  0.346129D+00
  0.905900D+00  0.393780D-01
  0.364300D+00 -0.898300D-02
  0.128500D+00  0.238500D-02
   s    10 1.00
  0.823600D+04 -0.113000D-03
  0.123500D+04 -0.878000D-03
  0.280800D+03 -0.454000D-02
  0.792700D+02 -0.181330D-01
  0.255900D+02 -0.557600D-01
  0.899700D+01 -0.126895D+00
  0.331900D+01 -0.170352D+00
  0.905900D+00  0.140382D+00
  0.364300D+00  0.598684D+00
  0.128500D+00  0.395389D+00
   s     1 1.00
  0.905900D+00  0.100000D+01
   s     1 1.00
  0.364300D+00  0.100000D+01
   p     5 1.00
  0.187100D+02  0.140310D-01
  0.413300D+01  0.868660D-01
  0.120000D+01  0.290216D+00
  0.382700D+00  0.501008D+00
  0.120900D+00  0.343406D+00
   p     1 1.00
  0.382700D+00  0.100000D+01
   p     1 1.00
  0.120900D+00  0.100000D+01
   d     1 1.00
  0.109700D+01  0.100000D+01
   d     1 1.00
  0.318000D+00  0.100000D+01
   f     1 1.00
  0.761000D+00  0.100000D+01
  
  4  0
   s    10 1.00
  0.823600D+04  0.531000D-03
  0.123500D+04  0.410800D-02
  0.280800D+03  0.210870D-01
  0.792700D+02  0.818530D-01
  0.255900D+02  0.234817D+00
  0.899700D+01  0.434401D+00
  0.331900D+01  0.346129D+00
  0.905900D+00  0.393780D-01
  0.364300D+00 -0.898300D-02
  0.128500D+00  0.238500D-02
   s    10 1.00
  0.823600D+04 -0.113000D-03
  0.123500D+04 -0.878000D-03
  0.280800D+03 -0.454000D-02
  0.792700D+02 -0.181330D-01
  0.255900D+02 -0.557600D-01
  0.899700D+01 -0.126895D+00
  0.331900D+01 -0.170352D+00
  0.905900D+00  0.140382D+00
  0.364300D+00  0.598684D+00
  0.128500D+00  0.395389D+00
   s     1 1.00
  0.905900D+00  0.100000D+01
   s     1 1.00
  0.364300D+00  0.100000D+01
   p     5 1.00
  0.187100D+02  0.140310D-01
  0.413300D+01  0.868660D-01
  0.120000D+01  0.290216D+00
  0.382700D+00  0.501008D+00
  0.120900D+00  0.343406D+00
   p     1 1.00
  0.382700D+00  0.100000D+01
   p     1 1.00
  0.120900D+00  0.100000D+01
   d     1 1.00
  0.109700D+01  0.100000D+01
   d     1 1.00
  0.318000D+00  0.100000D+01
   f     1 1.00
  0.761000D+00  0.100000D+01
  
  5  0
   s    10 1.00
  0.823600D+04  0.531000D-03
  0.123500D+04  0.410800D-02
  0.280800D+03  0.210870D-01
  0.792700D+02  0.818530D-01
  0.255900D+02  0.234817D+00
  0.899700D+01  0.434401D+00
  0.331900D+01  0.346129D+00
  0.905900D+00  0.393780D-01
  0.364300D+00 -0.898300D-02
  0.128500D+00  0.238500D-02
   s    10 1.00
  0.823600D+04 -0.113000D-03
  0.123500D+04 -0.878000D-03
  0.280800D+03 -0.454000D-02
  0.792700D+02 -0.181330D-01
  0.255900D+02 -0.557600D-01
  0.899700D+01 -0.126895D+00
  0.331900D+01 -0.170352D+00
  0.905900D+00  0.140382D+00
  0.364300D+00  0.598684D+00
  0.128500D+00  0.395389D+00
   s     1 1.00
  0.905900D+00  0.100000D+01
   s     1 1.00
  0.364300D+00  0.100000D+01
   p     5 1.00
  0.187100D+02  0.140310D-01
  0.413300D+01  0.868660D-01
  0.120000D+01  0.290216D+00
  0.382700D+00  0.501008D+00
  0.120900D+00  0.343406D+00
   p     1 1.00
  0.382700D+00  0.100000D+01
   p     1 1.00
  0.120900D+00  0.100000D+01
   d     1 1.00
  0.109700D+01  0.100000D+01
   d     1 1.00
  0.318000D+00  0.100000D+01
   f     1 1.00
  0.761000D+00  0.100000D+01
  
  6  0
   s    10 1.00
  0.823600D+04  0.531000D-03
  0.123500D+04  0.410800D-02
  0.280800D+03  0.210870D-01
  0.792700D+02  0.818530D-01
  0.255900D+02  0.234817D+00
  0.899700D+01  0.434401D+00
  0.331900D+01  0.346129D+00
  0.905900D+00  0.393780D-01
  0.364300D+00 -0.898300D-02
  0.128500D+00  0.238500D-02
   s    10 1.00
  0.823600D+04 -0.113000D-03
  0.123500D+04 -0.878000D-03
  0.280800D+03 -0.454000D-02
  0.792700D+02 -0.181330D-01
  0.255900D+02 -0.557600D-01
  0.899700D+01 -0.126895D+00
  0.331900D+01 -0.170352D+00
  0.905900D+00  0.140382D+00
  0.364300D+00  0.598684D+00
  0.128500D+00  0.395389D+00
   s     1 1.00
  0.905900D+00  0.100000D+01
   s     1 1.00
  0.364300D+00  0.100000D+01
   p     5 1.00
  0.187100D+02  0.140310D-01
  0.413300D+01  0.868660D-01
  0.120000D+01  0.290216D+00
  0.382700D+00  0.501008D+00
  0.120900D+00  0.343406D+00
   p     1 1.00
  0.382700D+00  0.100000D+01
   p     1 1.00
  0.120900D+00  0.100000D+01
   d     1 1.00
  0.109700D+01  0.100000D+01
   d     1 1.00
  0.318000D+00  0.100000D+01
   f     1 1.00
  0.761000D+00  0.100000D+01
  
  7  0
   s    10 1.00
  0.823600D+04  0.531000D-03
  0.123500D+04  0.410800D-02
  0.280800D+03  0.210870D-01
  0.792700D+02  0.818530D-01
  0.255900D+02  0.234817D+00
  0.899700D+01  0.434401D+00
  0.331900D+01  0.346129D+00
  0.905900D+00  0.393780D-01
  0.364300D+00 -0.898300D-02
  0.128500D+00  0.238500D-02
   s    10 1.00
  0.823600D+04 -0.113000D-03
  0.123500D+04 -0.878000D-03
  0.280800D+03 -0.454000D-02
  0.792700D+02 -0.181330D-01
  0.255900D+02 -0.557600D-01
  0.899700D+01 -0.126895D+00
  0.331900D+01 -0.170352D+00
  0.905900D+00  0.140382D+00
  0.364300D+00  0.598684D+00
  0.128500D+00  0.395389D+00
   s     1 1.00
  0.905900D+00  0.100000D+01
   s     1 1.00
  0.364300D+00  0.100000D+01
   p     5 1.00
  0.187100D+02  0.140310D-01
  0.413300D+01  0.868660D-01
  0.120000D+01  0.290216D+00
  0.382700D+00  0.501008D+00
  0.120900D+00  0.343406D+00
   p     1 1.00
  0.382700D+00  0.100000D+01
   p     1 1.00
  0.120900D+00  0.100000D+01
   d     1 1.00
  0.109700D+01  0.100000D+01
   d     1 1.00
  0.318000D+00  0.100000D+01
   f     1 1.00
  0.761000D+00  0.100000D+01
  
  8  0
   s     4 1.00
  0.130100D+02  0.196850D-01
  0.196200D+01  0.137977D+00
  0.444600D+00  0.478148D+00
  0.122000D+00  0.501240D+00
   s     1 1.00
  0.122000D+00  0.100000D+01
   p     1 1.00
  0.727000D+00  0.100000D+01
  
  9  0
   s     4 1.00
  0.130100D+02  0.196850D-01
  0.196200D+01  0.137977D+00
  0.444600D+00  0.478148D+00
  0.122000D+00  0.501240D+00
   s     1 1.00
  0.122000D+00  0.100000D+01
   p     1 1.00
  0.727000D+00  0.100000D+01
  
 10  0
   s     4 1.00
  0.130100D+02  0.196850D-01
  0.196200D+01  0.137977D+00
  0.444600D+00  0.478148D+00
  0.122000D+00  0.501240D+00
   s     1 1.00
  0.122000D+00  0.100000D+01
   p     1 1.00
  0.727000D+00  0.100000D+01
  
 11  0
   s     4 1.00
  0.130100D+02  0.196850D-01
  0.196200D+01  0.137977D+00
  0.444600D+00  0.478148D+00
  0.122000D+00  0.501240D+00
   s     1 1.00
  0.122000D+00  0.100000D+01
   p     1 1.00
  0.727000D+00  0.100000D+01
  
 12  0
   s     4 1.00
  0.130100D+02  0.196850D-01
  0.196200D+01  0.137977D+00
  0.444600D+00  0.478148D+00
  0.122000D+00  0.501240D+00
   s     1 1.00
  0.122000D+00  0.100000D+01
   p     1 1.00
  0.727000D+00  0.100000D+01
  
 13  0
   s     4 1.00
  0.130100D+02  0.196850D-01
  0.196200D+01  0.137977D+00
  0.444600D+00  0.478148D+00
  0.122000D+00  0.501240D+00
   s     1 1.00
  0.122000D+00  0.100000D+01
   p     1 1.00
  0.727000D+00  0.100000D+01
  
 14  0
   s     4 1.00
  0.130100D+02  0.196850D-01
  0.196200D+01  0.137977D+00
  0.444600D+00  0.478148D+00
  0.122000D+00  0.501240D+00
   s     1 1.00
  0.122000D+00  0.100000D+01
   p     1 1.00
  0.727000D+00  0.100000D+01
  
[MO]
 Sym= __1_a__
 Ene=  0.000000000000000E+000
 Spin= Alpha
 Occup=    2.00000000000000     
                     1  1.545719477245960E-004
                     2  0.998621510632032     
                     3 -2.657310131634910E-004
                     4  1.328763778147120E-003
                     5  6.181812329570650E-003
                     6  6.239672616741650E-003
                     7 -4.414115488659960E-003
                     8  3.995323456847260E-004
                     9 -8.945182554922590E-004
                    10  4.028389533219600E-004
                    11 -5.202111557823400E-005
                    12 -2.158563036269430E-003
                    13  3.033156339800410E-003
                    14 -3.176677557209520E-004
                    15 -9.503763057494964E-005
                    16 -1.220647640745720E-005
                    17 -8.780679373070499E-006
                    18  7.301337457788360E-005
                    19  3.362320527074260E-006
                    20 -3.014416433306768E-004
                    21  6.532073642227500E-005
                    22  1.398250414702160E-005
                    23  4.208060976361880E-005
                    24 -4.405895873971220E-004
                    25  4.363531246719058E-006
                    26 -7.790505783825522E-005
                    27  5.170304893809940E-006
                    28 -8.414503906394480E-007
                    29 -2.571044791358920E-006
                    30 -5.602034266720179E-005
                    31 -5.629446621162204E-005
                    32 -3.510619928136240E-004
                    33  4.100954367613660E-004
                    34  2.615818570062100E-004
                    35 -1.514395873821770E-004
                    36 -2.989553059982570E-003
                    37 -1.066182601306960E-004
                    38 -2.702914479399060E-005
                    39 -2.749581700091650E-005
                    40 -2.811046658253280E-006
                    41  7.724094430733649E-005
                    42  5.177590538622800E-003
                    43  7.635574906933290E-004
                    44 -2.100307978725800E-004
                    45 -1.732138375076388E-004
                    46 -1.846055252686100E-006
                    47  1.904993119695950E-006
                    48  1.540202744534894E-004
                    49  4.008935365592240E-005
                    50  2.880476135633198E-004
                    51  9.099980558269741E-005
                    52 -1.228436707225410E-005
                    53  2.172316945017500E-006
                    54 -3.412965394821820E-004
                    55  3.731037483200224E-008
                    56 -5.526146590097503E-005
                    57  4.105109586387150E-006
                    58  3.832958588252060E-006
                    59  9.609231662242980E-009
                    60 -3.505449861227355E-005
                    61  4.415840160597162E-005
                    62 -4.143321786879370E-004
                    63 -1.700079632841470E-003
                    64  5.806453519493990E-005
                    65  1.154712506468220E-003
                    66  2.600504607274470E-004
                    67 -1.456899027871430E-004
                    68 -4.070584282542180E-004
                    69  5.443377498412060E-004
                    70  6.966298467559211E-005
                    71  1.871390026073960E-004
                    72 -4.221770486536110E-004
                    73 -3.284574191610820E-004
                    74 -1.106633098043240E-003
                    75 -4.850964691121763E-005
                    76 -1.494272753386810E-005
                    77  1.770220434528130E-005
                    78  5.942958990374980E-005
                    79 -9.920584468294731E-006
                    80  1.555961540786842E-004
                    81  5.337166542783930E-005
                    82 -3.922084803912120E-005
                    83 -7.201677420162300E-005
                    84  5.665575951196050E-005
                    85 -1.248578005162724E-005
                    86 -7.202993538701835E-005
                    87  1.747036084213217E-005
                    88 -8.321012597526220E-006
                    89  1.284408947542680E-005
                    90 -5.079646506901540E-005
                    91 -1.000028887025314E-005
                    92 -3.769678288425180E-004
                    93 -1.583876234218810E-003
                    94  9.365594886432790E-005
                    95  8.810066864127530E-004
                    96  2.836086301199360E-004
                    97 -1.562973846841480E-004
                    98  3.977903388183850E-004
                    99  5.179258134440240E-004
                   100  9.083012598730521E-005
                   101 -7.513161094192400E-005
                   102 -6.614786401802440E-004
                   103 -3.471823246538420E-004
                   104  9.869528256210010E-004
                   105 -5.123038122203871E-005
                   106  8.436666947552119E-006
                   107 -1.848246953088460E-005
                   108  5.532998105232820E-005
                   109 -1.135233278923500E-005
                   110  1.115166269221816E-004
                   111 -5.667215148775590E-005
                   112  3.401452154318190E-005
                   113 -7.986452587928700E-005
                   114  5.556048906656230E-005
                   115  9.922147764276361E-006
                   116 -5.890745754830807E-005
                   117  1.792466068254432E-005
                   118  8.975371101677760E-006
                   119 -1.061022780410240E-005
                   120 -4.616532872206033E-005
                   121 -9.845885664917046E-006
                   122 -2.222285885378810E-004
                   123 -5.375118549576300E-004
                   124  6.484458181858290E-005
                   125  6.173857074343930E-004
                   126 -3.396269617257600E-004
                   127 -8.436149130509399E-005
                   128 -2.365123874917650E-006
                   129  2.518422049982550E-004
                   130 -2.544424291517260E-005
                   131  8.470588604178239E-005
                   132  9.911913638636239E-004
                   133  1.523912341572820E-004
                   134 -2.183072721565890E-004
                   135  1.198521967357977E-005
                   136 -2.300270346105120E-006
                   137 -5.112145974127220E-006
                   138 -3.833378265777960E-006
                   139  9.326300229223179E-006
                   140  9.070018753800026E-005
                   141  1.603910256887070E-004
                   142  9.589643980261900E-006
                   143 -2.155569572426440E-004
                   144 -1.035381198715180E-005
                   145 -1.008182076434030E-005
                   146 -1.842466440689059E-005
                   147  2.454415530408922E-006
                   148 -1.587005221758644E-007
                   149 -2.675835758247800E-006
                   150 -4.928547392209014E-005
                   151 -2.884936140301664E-006
                   152 -2.117360680310860E-004
                   153 -5.027699836880570E-004
                   154  5.321342987675470E-005
                   155  6.000096689114430E-004
                   156 -3.349022066896710E-004
                   157 -8.284568034290760E-005
                   158 -1.019751655362700E-006
                   159  2.043497113384390E-004
                   160 -2.966266848594900E-005
                   161 -6.255021763693730E-005
                   162  7.579352907097730E-004
                   163  1.637652095198800E-004
                   164  3.249115120873640E-004
                   165  8.475218382309473E-006
                   166  2.912702309228280E-006
                   167  5.071058358017060E-006
                   168 -5.605242323064180E-007
                   169  1.055425024285040E-005
                   170  7.101370809061936E-005
                   171 -1.384663574783760E-004
                   172 -9.471790138686110E-006
                   173 -1.897491923682176E-004
                   174 -1.188069153174590E-005
                   175  6.297039697998817E-006
                   176 -1.656824603283528E-005
                   177  2.828874561812227E-006
                   178 -2.280342436660560E-006
                   179  2.679844676839430E-006
                   180 -4.355004150351285E-005
                   181 -3.641528772288122E-006
                   182 -1.382113267061180E-004
                   183 -4.246496472620260E-004
                   184  3.636943015116350E-005
                   185  1.908502110828850E-004
                   186 -3.071605483090520E-005
                   187 -8.970121378339251E-005
                   188 -4.230043300113140E-006
                   189  1.140635359660010E-004
                   190  1.922211304560720E-005
                   191  2.098627178612800E-005
                   192 -3.978998841881380E-004
                   193 -1.048497136942360E-004
                   194  1.307276561788350E-004
                   195 -6.412553805712653E-006
                   196  4.754764773539700E-007
                   197  3.947475914335770E-007
                   198  2.552912302844760E-006
                   199 -1.306514812077500E-006
                   200 -1.103406094377459E-004
                   201 -1.821574845301840E-005
                   202 -7.806581018930700E-007
                   203  4.722553591130240E-005
                   204  1.960440189044490E-005
                   205  5.590745668864409E-007
                   206  5.746899009905354E-006
                   207  2.748364292356507E-006
                   208  1.333367196645384E-006
                   209  7.469140802217670E-009
                   210 -6.084914712055990E-006
                   211 -3.407210082114051E-006
                   212  2.417927167672130E-004
                   213 -5.915062320768650E-004
                   214  1.006010807825250E-004
                   215  2.042333416743810E-004
                   216  1.763377951213460E-004
                   217  5.372807720230829E-004
                   218 -8.958653079380390E-004
                   219  1.231475323636910E-004
                   220  2.342173569836300E-004
                   221 -2.407145032244670E-004
                   222 -2.886638670270780E-004
                   223 -5.366282524874060E-004
                   224 -5.788352084832860E-005
                   225  8.616154876639620E-006
                   226  4.352818929753790E-005
                   227 -2.749095536564630E-004
                   228 -5.150481322329510E-004
                   229 -5.206632462534430E-005
                   230  9.527450003412409E-006
                   231 -4.436863709048530E-005
                   232 -3.611338106516850E-005
                   233 -4.920599196001190E-004
                   234 -5.213460531968760E-007
                   235 -2.092776268886910E-006
                   236 -3.070658272111480E-006
                   237 -4.569094787118740E-005
                   238 -4.770325770100900E-004
                   239  2.379605816907650E-007
                   240 -2.555287561830420E-006
                   241  3.972742111591080E-006
                   242 -1.640263644121020E-005
                   243  1.207066337966300E-004
                   244  3.089349483916530E-005
                   245  1.031551813236220E-006
                   246 -1.543036895066600E-007
 Sym= __2_a__
 Ene=  0.000000000000000E+000
 Spin= Alpha
 Occup=    2.00000000000000     
                     1 -3.437631709703560E-005
                     2 -1.295541792474650E-004
                     3  2.361314743674850E-003
                     4  3.054428372103220E-006
                     5  1.177520621552240E-003
                     6  2.120005136738790E-003
                     7  2.115888213102450E-005
                     8 -5.244217966782120E-005
                     9 -1.368626406843870E-004
                    10  9.328858025293661E-005
                    11 -6.658592265168910E-006
                    12 -7.793803286916590E-006
                    13  3.789980054392690E-005
                    14  9.467340935964230E-006
                    15 -7.409653759492226E-005
                    16 -8.318981192065100E-007
                    17  1.850992249231040E-007
                    18  4.269827741439100E-005
                    19 -9.587341941809681E-006
                    20  1.354393470126600E-004
                    21  5.770577170311780E-006
                    22 -1.420702225272370E-006
                    23  1.035711145739820E-004
                    24 -1.433712840911540E-005
                    25 -1.932726445209411E-006
                    26  1.367234069568029E-004
                    27 -4.806735756473270E-005
                    28 -1.108052685399218E-006
                    29 -4.639195670942370E-007
                    30  1.204631514747526E-004
                    31  2.946519965435858E-005
                    32   1.00093675103879     
                    33  8.892141559740460E-003
                    34  2.787067398249390E-003
                    35 -8.237644880394831E-003
                    36 -2.706326005059500E-003
                    37  5.823783872399070E-004
                    38  9.018530433338490E-006
                    39  9.401133296313280E-004
                    40 -2.447189515852280E-004
                    41 -1.503829813576650E-005
                    42  3.509396062743850E-003
                    43 -1.234761974938290E-004
                    44  5.881767240447250E-006
                    45  2.832522319401120E-004
                    46 -2.001626542956240E-006
                    47 -2.150976159791230E-007
                    48  4.272184905800580E-004
                    49 -2.839984353447350E-005
                    50 -1.047259552842249E-003
                    51  4.927385829644720E-006
                    52  1.857843478434890E-007
                    53 -1.003150872760506E-004
                    54  5.086216503224260E-005
                    55  2.340540111037610E-007
                    56  3.138285440479985E-004
                    57 -8.145869170815696E-006
                    58 -1.073568420932622E-006
                    59 -1.023295690295240E-006
                    60  9.388566901164726E-005
                    61  1.392649163889758E-005
                    62  1.321893929590990E-002
                    63 -1.907460899479760E-003
                    64 -3.076120782521040E-004
                    65  3.146552359781920E-003
                    66 -8.911890899012370E-005
                    67  7.234873152305790E-005
                    68  2.082454905406330E-004
                    69  2.887880139826490E-005
                    70 -1.370776797552430E-006
                    71  5.429806878962730E-004
                    72  1.479775481581490E-004
                    73 -2.701992596915200E-005
                    74 -1.832995511190560E-003
                    75 -1.415330177779487E-005
                    76  2.283257649845990E-005
                    77  6.763374778497640E-006
                    78 -3.355538816056680E-005
                    79 -3.558439613783180E-006
                    80 -4.072962890515187E-004
                    81 -4.482475493527930E-004
                    82 -5.629652516441390E-006
                    83  7.528828923529140E-004
                    84 -3.268141051259870E-006
                    85  5.038142511630414E-005
                    86  1.114130022602058E-004
                    87 -5.415924627084135E-007
                    88 -1.673454314078208E-005
                    89 -6.527337801531750E-006
                    90 -3.045999030528768E-005
                    91  4.414795323121298E-006
                    92  1.366487845089110E-002
                    93 -1.907476853337250E-003
                    94 -3.073998816725270E-004
                    95  3.147651011144620E-003
                    96 -8.832829172870780E-005
                    97  7.141676688355041E-005
                    98 -2.031403655785020E-004
                    99  2.431000122365970E-005
                   100 -1.207217997027880E-006
                   101 -5.456039252040890E-004
                   102  1.524641633973280E-004
                   103 -2.639145488830820E-005
                   104  1.832864965191170E-003
                   105 -1.351060002856349E-005
                   106 -2.293491606940080E-005
                   107 -6.749693960607630E-006
                   108 -3.359854590677460E-005
                   109 -3.527261504715500E-006
                   110 -4.080034106282923E-004
                   111  4.527144629562730E-004
                   112  5.394993828201550E-006
                   113  7.546494549966520E-004
                   114 -3.736042971306230E-006
                   115 -5.018279480942550E-005
                   116  1.112884484600107E-004
                   117 -3.280527635001003E-007
                   118  1.618975183281260E-005
                   119  6.617585940378500E-006
                   120 -3.015901497271595E-005
                   121  4.372659997108418E-006
                   122 -1.153370605513900E-004
                   123 -6.890309166527210E-004
                   124  2.511226527189340E-004
                   125 -3.064310226913250E-004
                   126 -2.358200756194520E-004
                   127  6.529814795237770E-006
                   128 -3.729887585709380E-005
                   129  6.036562805646261E-004
                   130 -4.497163099958720E-009
                   131  2.979516497062870E-005
                   132  5.914052987607030E-004
                   133  8.398810608246550E-006
                   134  3.275505605276910E-004
                   135 -5.188415359374956E-007
                   136  4.240001977192530E-005
                   137  8.508865988791059E-008
                   138 -3.299899827626320E-005
                   139 -7.821352293837980E-007
                   140  1.902375614974927E-004
                   141 -2.447377393994610E-004
                   142  1.503572677050820E-006
                   143 -2.634493403489760E-004
                   144 -4.289498893331120E-006
                   145 -1.903963540425569E-005
                   146  1.522531732936151E-005
                   147 -9.865280504383442E-008
                   148 -1.456306528258686E-005
                   149 -1.999217429390530E-006
                   150 -2.625216853788592E-005
                   151 -6.596837369990529E-007
                   152 -1.062523110135810E-004
                   153 -6.907025270505860E-004
                   154  2.509859559998670E-004
                   155 -3.053380431773320E-004
                   156 -2.344677684145370E-004
                   157  5.806848195902830E-006
                   158  3.710875923944750E-005
                   159  6.027495519852140E-004
                   160  1.158757122430060E-007