[Molden Format]
[Atoms] AU
  N     1    7    -0.1128869000   -4.3598204900    0.0000000000        
  C     2    6     0.0331465600   -1.8110394600    0.0000000000        
  C     3    6    -2.2889565500   -0.4292526100    0.0000000000        
  C     4    6     2.3335564500   -0.3907234000    0.0000000000        
  C     5    6    -2.2785492100    2.1543278900    0.0000000000        
  C     6    6     2.3004388000    2.1862336300    0.0000000000        
  C     7    6     0.0035862500    3.4880417700    0.0000000000        
  H     8    1    -6.3902663900   -8.5707045500    0.0000000000        
  H     9    1     1.6899127000   -5.1121731100    0.0000000000        
  H    10    1    -4.0240040400   -1.4738320500    0.0000000000        
  H    11    1     4.0963084700   -1.3979484800    0.0000000000        
  H    12    1    -4.0310847100    3.1769871600    0.0000000000        
  H    13    1     4.0389530700    3.2330460400    0.0000000000        
  H    14    1    -0.0095293100    5.5163510000    0.0000000000        
[5D]
[7F]
[GTO]
  1  0
   s    12 1.00
  0.114200D+05  0.172695D-04
  0.171200D+04  0.134411D-03
  0.389300D+03  0.694561D-03
  0.110000D+03  0.278531D-02
  0.355700D+02  0.863457D-02
  0.125400D+02  0.199805D-01
  0.464400D+01  0.262908D-01
  0.129300D+01 -0.243845D-01
  0.511800D+00 -0.924934D-01
  0.178700D+00 -0.339683D+00
  0.246240D-01  0.345111D+00
  0.112530D-01  0.752750D+00
   s    10 1.00
  0.114200D+05  0.523000D-03
  0.171200D+04  0.404500D-02
  0.389300D+03  0.207750D-01
  0.110000D+03  0.807269D-01
  0.355700D+02  0.233074D+00
  0.125400D+02  0.433501D+00
  0.464400D+01  0.347472D+00
  0.129300D+01  0.412620D-01
  0.511800D+00 -0.850799D-02
  0.178700D+00  0.238400D-02
   s    10 1.00
  0.114200D+05 -0.115000D-03
  0.171200D+04 -0.895000D-03
  0.389300D+03 -0.462400D-02
  0.110000D+03 -0.185280D-01
  0.355700D+02 -0.573390D-01
  0.125400D+02 -0.132076D+00
  0.464400D+01 -0.172510D+00
  0.129300D+01  0.151814D+00
  0.511800D+00  0.599944D+00
  0.178700D+00  0.387462D+00
   s     1 1.00
  0.129300D+01  0.100000D+01
   s     1 1.00
  0.178700D+00  0.100000D+01
   p     5 1.00
  0.266300D+02  0.146700D-01
  0.594800D+01  0.917640D-01
  0.174200D+01  0.298683D+00
  0.555000D+00  0.498487D+00
  0.172500D+00  0.337023D+00
   p     1 1.00
  0.174200D+01  0.100000D+01
   p     1 1.00
  0.555000D+00  0.100000D+01
   d     1 1.00
  0.165400D+01  0.100000D+01
   d     1 1.00
  0.469000D+00  0.100000D+01
   f     1 1.00
  0.109300D+01  0.100000D+01
  
  2  0
   s    10 1.00
  0.823600D+04  0.531000D-03
  0.123500D+04  0.410800D-02
  0.280800D+03  0.210870D-01
  0.792700D+02  0.818530D-01
  0.255900D+02  0.234817D+00
  0.899700D+01  0.434401D+00
  0.331900D+01  0.346129D+00
  0.905900D+00  0.393780D-01
  0.364300D+00 -0.898300D-02
  0.128500D+00  0.238500D-02
   s    10 1.00
  0.823600D+04 -0.113000D-03
  0.123500D+04 -0.878000D-03
  0.280800D+03 -0.454000D-02
  0.792700D+02 -0.181330D-01
  0.255900D+02 -0.557600D-01
  0.899700D+01 -0.126895D+00
  0.331900D+01 -0.170352D+00
  0.905900D+00  0.140382D+00
  0.364300D+00  0.598684D+00
  0.128500D+00  0.395389D+00
   s     1 1.00
  0.905900D+00  0.100000D+01
   s     1 1.00
  0.364300D+00  0.100000D+01
   p     5 1.00
  0.187100D+02  0.140310D-01
  0.413300D+01  0.868660D-01
  0.120000D+01  0.290216D+00
  0.382700D+00  0.501008D+00
  0.120900D+00  0.343406D+00
   p     1 1.00
  0.382700D+00  0.100000D+01
   p     1 1.00
  0.120900D+00  0.100000D+01
   d     1 1.00
  0.109700D+01  0.100000D+01
   d     1 1.00
  0.318000D+00  0.100000D+01
   f     1 1.00
  0.761000D+00  0.100000D+01
  
  3  0
   s    10 1.00
  0.823600D+04  0.531000D-03
  0.123500D+04  0.410800D-02
  0.280800D+03  0.210870D-01
  0.792700D+02  0.818530D-01
  0.255900D+02  0.234817D+00
  0.899700D+01  0.434401D+00
  0.331900D+01  0.346129D+00
  0.905900D+00  0.393780D-01
  0.364300D+00 -0.898300D-02
  0.128500D+00  0.238500D-02
   s    10 1.00
  0.823600D+04 -0.113000D-03
  0.123500D+04 -0.878000D-03
  0.280800D+03 -0.454000D-02
  0.792700D+02 -0.181330D-01
  0.255900D+02 -0.557600D-01
  0.899700D+01 -0.126895D+00
  0.331900D+01 -0.170352D+00
  0.905900D+00  0.140382D+00
  0.364300D+00  0.598684D+00
  0.128500D+00  0.395389D+00
   s     1 1.00
  0.905900D+00  0.100000D+01
   s     1 1.00
  0.364300D+00  0.100000D+01
   p     5 1.00
  0.187100D+02  0.140310D-01
  0.413300D+01  0.868660D-01
  0.120000D+01  0.290216D+00
  0.382700D+00  0.501008D+00
  0.120900D+00  0.343406D+00
   p     1 1.00
  0.382700D+00  0.100000D+01
   p     1 1.00
  0.120900D+00  0.100000D+01
   d     1 1.00
  0.109700D+01  0.100000D+01
   d     1 1.00
  0.318000D+00  0.100000D+01
   f     1 1.00
  0.761000D+00  0.100000D+01
  
  4  0
   s    10 1.00
  0.823600D+04  0.531000D-03
  0.123500D+04  0.410800D-02
  0.280800D+03  0.210870D-01
  0.792700D+02  0.818530D-01
  0.255900D+02  0.234817D+00
  0.899700D+01  0.434401D+00
  0.331900D+01  0.346129D+00
  0.905900D+00  0.393780D-01
  0.364300D+00 -0.898300D-02
  0.128500D+00  0.238500D-02
   s    10 1.00
  0.823600D+04 -0.113000D-03
  0.123500D+04 -0.878000D-03
  0.280800D+03 -0.454000D-02
  0.792700D+02 -0.181330D-01
  0.255900D+02 -0.557600D-01
  0.899700D+01 -0.126895D+00
  0.331900D+01 -0.170352D+00
  0.905900D+00  0.140382D+00
  0.364300D+00  0.598684D+00
  0.128500D+00  0.395389D+00
   s     1 1.00
  0.905900D+00  0.100000D+01
   s     1 1.00
  0.364300D+00  0.100000D+01
   p     5 1.00
  0.187100D+02  0.140310D-01
  0.413300D+01  0.868660D-01
  0.120000D+01  0.290216D+00
  0.382700D+00  0.501008D+00
  0.120900D+00  0.343406D+00
   p     1 1.00
  0.382700D+00  0.100000D+01
   p     1 1.00
  0.120900D+00  0.100000D+01
   d     1 1.00
  0.109700D+01  0.100000D+01
   d     1 1.00
  0.318000D+00  0.100000D+01
   f     1 1.00
  0.761000D+00  0.100000D+01
  
  5  0
   s    10 1.00
  0.823600D+04  0.531000D-03
  0.123500D+04  0.410800D-02
  0.280800D+03  0.210870D-01
  0.792700D+02  0.818530D-01
  0.255900D+02  0.234817D+00
  0.899700D+01  0.434401D+00
  0.331900D+01  0.346129D+00
  0.905900D+00  0.393780D-01
  0.364300D+00 -0.898300D-02
  0.128500D+00  0.238500D-02
   s    10 1.00
  0.823600D+04 -0.113000D-03
  0.123500D+04 -0.878000D-03
  0.280800D+03 -0.454000D-02
  0.792700D+02 -0.181330D-01
  0.255900D+02 -0.557600D-01
  0.899700D+01 -0.126895D+00
  0.331900D+01 -0.170352D+00
  0.905900D+00  0.140382D+00
  0.364300D+00  0.598684D+00
  0.128500D+00  0.395389D+00
   s     1 1.00
  0.905900D+00  0.100000D+01
   s     1 1.00
  0.364300D+00  0.100000D+01
   p     5 1.00
  0.187100D+02  0.140310D-01
  0.413300D+01  0.868660D-01
  0.120000D+01  0.290216D+00
  0.382700D+00  0.501008D+00
  0.120900D+00  0.343406D+00
   p     1 1.00
  0.382700D+00  0.100000D+01
   p     1 1.00
  0.120900D+00  0.100000D+01
   d     1 1.00
  0.109700D+01  0.100000D+01
   d     1 1.00
  0.318000D+00  0.100000D+01
   f     1 1.00
  0.761000D+00  0.100000D+01
  
  6  0
   s    10 1.00
  0.823600D+04  0.531000D-03
  0.123500D+04  0.410800D-02
  0.280800D+03  0.210870D-01
  0.792700D+02  0.818530D-01
  0.255900D+02  0.234817D+00
  0.899700D+01  0.434401D+00
  0.331900D+01  0.346129D+00
  0.905900D+00  0.393780D-01
  0.364300D+00 -0.898300D-02
  0.128500D+00  0.238500D-02
   s    10 1.00
  0.823600D+04 -0.113000D-03
  0.123500D+04 -0.878000D-03
  0.280800D+03 -0.454000D-02
  0.792700D+02 -0.181330D-01
  0.255900D+02 -0.557600D-01
  0.899700D+01 -0.126895D+00
  0.331900D+01 -0.170352D+00
  0.905900D+00  0.140382D+00
  0.364300D+00  0.598684D+00
  0.128500D+00  0.395389D+00
   s     1 1.00
  0.905900D+00  0.100000D+01
   s     1 1.00
  0.364300D+00  0.100000D+01
   p     5 1.00
  0.187100D+02  0.140310D-01
  0.413300D+01  0.868660D-01
  0.120000D+01  0.290216D+00
  0.382700D+00  0.501008D+00
  0.120900D+00  0.343406D+00
   p     1 1.00
  0.382700D+00  0.100000D+01
   p     1 1.00
  0.120900D+00  0.100000D+01
   d     1 1.00
  0.109700D+01  0.100000D+01
   d     1 1.00
  0.318000D+00  0.100000D+01
   f     1 1.00
  0.761000D+00  0.100000D+01
  
  7  0
   s    10 1.00
  0.823600D+04  0.531000D-03
  0.123500D+04  0.410800D-02
  0.280800D+03  0.210870D-01
  0.792700D+02  0.818530D-01
  0.255900D+02  0.234817D+00
  0.899700D+01  0.434401D+00
  0.331900D+01  0.346129D+00
  0.905900D+00  0.393780D-01
  0.364300D+00 -0.898300D-02
  0.128500D+00  0.238500D-02
   s    10 1.00
  0.823600D+04 -0.113000D-03
  0.123500D+04 -0.878000D-03
  0.280800D+03 -0.454000D-02
  0.792700D+02 -0.181330D-01
  0.255900D+02 -0.557600D-01
  0.899700D+01 -0.126895D+00
  0.331900D+01 -0.170352D+00
  0.905900D+00  0.140382D+00
  0.364300D+00  0.598684D+00
  0.128500D+00  0.395389D+00
   s     1 1.00
  0.905900D+00  0.100000D+01
   s     1 1.00
  0.364300D+00  0.100000D+01
   p     5 1.00
  0.187100D+02  0.140310D-01
  0.413300D+01  0.868660D-01
  0.120000D+01  0.290216D+00
  0.382700D+00  0.501008D+00
  0.120900D+00  0.343406D+00
   p     1 1.00
  0.382700D+00  0.100000D+01
   p     1 1.00
  0.120900D+00  0.100000D+01
   d     1 1.00
  0.109700D+01  0.100000D+01
   d     1 1.00
  0.318000D+00  0.100000D+01
   f     1 1.00
  0.761000D+00  0.100000D+01
  
  8  0
   s     4 1.00
  0.130100D+02  0.196850D-01
  0.196200D+01  0.137977D+00
  0.444600D+00  0.478148D+00
  0.122000D+00  0.501240D+00
   s     1 1.00
  0.122000D+00  0.100000D+01
   p     1 1.00
  0.727000D+00  0.100000D+01
  
  9  0
   s     4 1.00
  0.130100D+02  0.196850D-01
  0.196200D+01  0.137977D+00
  0.444600D+00  0.478148D+00
  0.122000D+00  0.501240D+00
   s     1 1.00
  0.122000D+00  0.100000D+01
   p     1 1.00
  0.727000D+00  0.100000D+01
  
 10  0
   s     4 1.00
  0.130100D+02  0.196850D-01
  0.196200D+01  0.137977D+00
  0.444600D+00  0.478148D+00
  0.122000D+00  0.501240D+00
   s     1 1.00
  0.122000D+00  0.100000D+01
   p     1 1.00
  0.727000D+00  0.100000D+01
  
 11  0
   s     4 1.00
  0.130100D+02  0.196850D-01
  0.196200D+01  0.137977D+00
  0.444600D+00  0.478148D+00
  0.122000D+00  0.501240D+00
   s     1 1.00
  0.122000D+00  0.100000D+01
   p     1 1.00
  0.727000D+00  0.100000D+01
  
 12  0
   s     4 1.00
  0.130100D+02  0.196850D-01
  0.196200D+01  0.137977D+00
  0.444600D+00  0.478148D+00
  0.122000D+00  0.501240D+00
   s     1 1.00
  0.122000D+00  0.100000D+01
   p     1 1.00
  0.727000D+00  0.100000D+01
  
 13  0
   s     4 1.00
  0.130100D+02  0.196850D-01
  0.196200D+01  0.137977D+00
  0.444600D+00  0.478148D+00
  0.122000D+00  0.501240D+00
   s     1 1.00
  0.122000D+00  0.100000D+01
   p     1 1.00
  0.727000D+00  0.100000D+01
  
 14  0
   s     4 1.00
  0.130100D+02  0.196850D-01
  0.196200D+01  0.137977D+00
  0.444600D+00  0.478148D+00
  0.122000D+00  0.501240D+00
   s     1 1.00
  0.122000D+00  0.100000D+01
   p     1 1.00
  0.727000D+00  0.100000D+01
  
[MO]
 Sym= __1_A__
 Ene=  0.000000000000000E+000
 Spin= Alpha
 Occup=    2.00000000000000     
                     1  1.383659993327753E-004
                     2  0.998338714546607     
                     3 -2.632670244680017E-003
                     4  1.839120077345481E-003
                     5  6.599817282421924E-003
                     6  2.831345384354914E-003
                     7  5.958047316068084E-003
                     8  0.000000000000000E+000
                     9 -6.940699506356969E-004
                    10 -7.260239541265296E-004
                    11  0.000000000000000E+000
                    12 -2.485395835165869E-003
                    13 -1.909351879915628E-003
                    14  0.000000000000000E+000
                    15 -2.689254417665454E-005
                    16  0.000000000000000E+000
                    17  0.000000000000000E+000
                    18 -1.534458256597655E-004
                    19 -5.775982545860631E-005
                    20  8.894406002801204E-005
                    21  0.000000000000000E+000
                    22  0.000000000000000E+000
                    23 -2.063771672828360E-004
                    24  5.029458628169459E-004
                    25  0.000000000000000E+000
                    26 -5.673512302090139E-006
                    27 -4.874668807090300E-005
                    28  0.000000000000000E+000
                    29  0.000000000000000E+000
                    30  3.808710956398366E-005
                    31 -1.077931185180239E-004
                    32 -4.005369151067651E-004
                    33  1.403263360938289E-004
                    34  3.157877972149858E-004
                    35 -5.577930436014656E-005
                    36 -4.992861525586936E-005
                    37 -2.732531896314858E-003
                    38  0.000000000000000E+000
                    39  3.750635440765029E-004
                    40  2.016565915324577E-004
                    41  0.000000000000000E+000
                    42 -2.067341882549206E-003
                    43  5.137160593264813E-003
                    44  0.000000000000000E+000
                    45  1.621437200845680E-006
                    46  0.000000000000000E+000
                    47  0.000000000000000E+000
                    48 -1.373015556248598E-004
                    49  2.051478698647594E-005
                    50 -2.006690874428922E-004
                    51  0.000000000000000E+000
                    52  0.000000000000000E+000
                    53  4.850777910563612E-005
                    54  7.744691083544111E-004
                    55  0.000000000000000E+000
                    56 -3.002568141360713E-006
                    57 -7.061547587974296E-005
                    58  0.000000000000000E+000
                    59  0.000000000000000E+000
                    60  2.478799289351532E-005
                    61 -1.226536636300809E-004
                    62 -5.639105548879371E-004
                    63 -2.259789525848786E-003
                    64 -8.522234545561501E-005
                    65  2.270127717687668E-003
                    66 -5.260427687704959E-004
                    67  1.620864865757196E-004
                    68  0.000000000000000E+000
                    69  3.892015146262419E-004
                    70  8.936326277623494E-004
                    71  0.000000000000000E+000
                    72 -1.698980891310500E-003
                    73  6.873961587515627E-004
                    74  0.000000000000000E+000
                    75 -4.305268267017646E-005
                    76  0.000000000000000E+000
                    77  0.000000000000000E+000
                    78 -6.496807142907373E-005
                    79 -2.009240964286013E-005
                    80 -1.327566547843443E-004
                    81  0.000000000000000E+000
                    82  0.000000000000000E+000
                    83  4.093696950604026E-005
                    84  1.639789378033485E-005
                    85  0.000000000000000E+000
                    86  8.187397103714305E-006
                    87 -4.623696910650327E-005
                    88  0.000000000000000E+000
                    89  0.000000000000000E+000
                    90 -2.462333619267757E-005
                    91 -1.539772951801136E-004
                    92 -1.827934169084192E-004
                    93 -6.680604930657298E-004
                    94  1.562705441410904E-004
                    95 -5.006816798048283E-005
                    96  2.251529359928081E-004
                    97  9.294500062761161E-006
                    98  0.000000000000000E+000
                    99  3.375333783829206E-004
                   100  3.960349444474102E-004
                   101  0.000000000000000E+000
                   102  6.545765370965450E-004
                   103 -1.785938410384136E-003
                   104  0.000000000000000E+000
                   105 -1.197585246592779E-005
                   106  0.000000000000000E+000
                   107  0.000000000000000E+000
                   108 -4.662496641684460E-005
                   109 -1.323820822159576E-005
                   110  8.465748858916615E-005
                   111  0.000000000000000E+000
                   112  0.000000000000000E+000
                   113 -1.666839048942240E-004
                   114  8.539630551509566E-005
                   115  0.000000000000000E+000
                   116 -1.986354197843847E-005
                   117 -2.258312763547935E-005
                   118  0.000000000000000E+000
                   119  0.000000000000000E+000
                   120 -1.215047140195853E-005
                   121 -3.720948991710802E-005
                   122 -2.428458961391766E-004
                   123 -5.863435846464929E-004
                   124  1.654399284912804E-004
                   125  3.285711819090168E-004
                   126 -3.313986502294073E-005
                   127 -3.431323422333642E-004
                   128  0.000000000000000E+000
                   129  2.464729797321380E-004
                   130  6.540869446011099E-004
                   131  0.000000000000000E+000
                   132  3.872476749113277E-004
                   133  2.031514541898057E-003
                   134  0.000000000000000E+000
                   135  1.325279261629834E-005
                   136  0.000000000000000E+000
                   137  0.000000000000000E+000
                   138  4.569444735775542E-005
                   139 -1.651158321643232E-006
                   140  2.051938791310277E-004
                   141  0.000000000000000E+000
                   142  0.000000000000000E+000
                   143  4.054772635314214E-004
                   144  2.393023062074371E-004
                   145  0.000000000000000E+000
                   146 -1.258102046246709E-005
                   147 -6.522027566363848E-005
                   148  0.000000000000000E+000
                   149  0.000000000000000E+000
                   150 -1.355456852002482E-005
                   151 -5.333882423827723E-005
                   152 -1.300158191610308E-004
                   153 -3.528024596045114E-004
                   154  5.510098330874111E-005
                   155  1.884319745275164E-004
                   156  1.028243993120350E-005
                   157 -8.943534347523201E-005
                   158  0.000000000000000E+000
                   159  1.208809808274767E-005
                   160  6.205628434783678E-005
                   161  0.000000000000000E+000
                   162  7.313239049506677E-004
                   163 -3.654056121351500E-004
                   164  0.000000000000000E+000
                   165  1.900702165676268E-006
                   166  0.000000000000000E+000
                   167  0.000000000000000E+000
                   168  3.080938998246748E-006
                   169  9.665005016151611E-006
                   170  1.077651087079438E-004
                   171  0.000000000000000E+000
                   172  0.000000000000000E+000
                   173  5.573418942943736E-005
                   174  2.663353687565981E-005
                   175  0.000000000000000E+000
                   176  3.052435534403169E-006
                   177 -1.494644124427659E-005
                   178  0.000000000000000E+000
                   179  0.000000000000000E+000
                   180 -2.077234696268435E-005
                   181 -3.041234336879519E-005
                   182 -1.341129644946125E-004
                   183 -3.901626735202768E-004
                   184  3.317164181844518E-005
                   185  1.850148985185718E-004
                   186 -5.069587153785548E-005
                   187 -6.474528724776938E-005
                   188  0.000000000000000E+000
                   189  2.741469430670130E-004
                   190  1.255883478144542E-004
                   191  0.000000000000000E+000
                   192  1.349767477096729E-003
                   193 -3.496533315982343E-004
                   194  0.000000000000000E+000
                   195  1.755996286454561E-006
                   196  0.000000000000000E+000
                   197  0.000000000000000E+000
                   198 -3.759273414132680E-006
                   199  4.129701756197844E-006
                   200 -7.292111398228965E-006
                   201  0.000000000000000E+000
                   202  0.000000000000000E+000
                   203 -8.275647851850232E-005
                   204 -2.041226800290583E-004
                   205  0.000000000000000E+000
                   206 -1.055785001260057E-005
                   207 -4.527559923268887E-006
                   208  0.000000000000000E+000
                   209  0.000000000000000E+000
                   210  7.517862021962218E-006
                   211 -2.948850951395928E-006
                   212 -2.322942051785480E-005
                   213  1.726681776396534E-005
                   214  8.848326819306701E-007
                   215  1.539386367919167E-006
                   216  0.000000000000000E+000
                   217 -8.627712623273308E-004
                   218 -6.602881532234618E-004
                   219 -2.398231390368180E-004
                   220  6.482785659546042E-005
                   221  0.000000000000000E+000
                   222 -2.105666841510699E-004
                   223 -5.570859958487169E-004
                   224  2.486412757120823E-005
                   225 -5.823840439403511E-005
                   226  0.000000000000000E+000
                   227  6.814899382808073E-005
                   228 -7.087028402472778E-004
                   229 -4.602680012269676E-005
                   230 -1.333983211988947E-005
                   231  0.000000000000000E+000
                   232  4.192639052505036E-006
                   233 -5.351997572423974E-004
                   234  1.257685613533132E-005
                   235 -3.735576342203758E-006
                   236  0.000000000000000E+000
                   237  7.756374528106831E-006
                   238 -3.715745893475490E-004
                   239 -6.126065207424806E-006
                   240 -1.601898957613480E-006
                   241  0.000000000000000E+000
                   242 -6.420171008308972E-005
                   243  9.894139190324152E-005
                   244  2.423739702810579E-007
                   245  3.152353386044340E-005
                   246  0.000000000000000E+000
 Sym= __2_A__
 Ene=  0.000000000000000E+000
 Spin= Alpha
 Occup=    2.00000000000000     
                     1  2.482783081156461E-005
                     2  2.824624896822035E-004
                     3 -3.567568029434722E-003
                     4 -9.736192061332778E-005
                     5 -1.468458994077865E-003
                     6  9.696566596658461E-004
                     7 -3.873712699576171E-003
                     8  0.000000000000000E+000
                     9 -7.827469557081033E-006
                    10  8.743055427373330E-005
                    11  0.000000000000000E+000
                    12 -3.079434512537618E-005
                    13  2.330429822754253E-004
                    14  0.000000000000000E+000
                    15 -1.830667615829858E-005
                    16  0.000000000000000E+000
                    17  0.000000000000000E+000
                    18  7.994994022158223E-005
                    19 -3.322427030288835E-005
                    20  1.471593456539477E-004
                    21  0.000000000000000E+000
                    22  0.000000000000000E+000
                    23 -2.853405157248228E-005
                    24  1.545595835815844E-004
                    25  0.000000000000000E+000
                    26  1.261098787871816E-005
                    27 -8.151545682795794E-005
                    28  0.000000000000000E+000
                    29  0.000000000000000E+000
                    30  7.349161587179209E-005
                    31 -1.346315804005204E-004
                    32  -1.00075387837098     
                    33 -9.327677997314099E-003
                    34 -2.842311844392105E-003
                    35  8.140641317231937E-003
                    36  3.936328314041711E-004
                    37  4.431188697915652E-003
                    38  0.000000000000000E+000
                    39  2.216252461684864E-004
                    40 -3.710004184520709E-004
                    41  0.000000000000000E+000
                    42 -2.712772504886526E-005
                    43 -4.451864852642178E-003
                    44  0.000000000000000E+000
                    45  5.177358385012529E-004
                    46  0.000000000000000E+000
                    47  0.000000000000000E+000
                    48  2.106983635974824E-004
                    49 -5.025325442312387E-005
                    50 -5.628863336523659E-004
                    51  0.000000000000000E+000
                    52  0.000000000000000E+000
                    53  6.914616962568148E-004
                    54  4.872969682052540E-004
                    55  0.000000000000000E+000
                    56 -2.209131412793657E-005
                    57 -9.948615860601461E-005
                    58  0.000000000000000E+000
                    59  0.000000000000000E+000
                    60  4.343018354041677E-005
                    61 -3.758676636108833E-004
                    62 -1.430380976684956E-002
                    63  2.269708322197527E-003
                    64  2.076767204487908E-004
                    65 -2.655802018896731E-003
                    66  1.235715554177913E-004
                    67 -3.472899331887206E-004
                    68  0.000000000000000E+000
                    69 -4.486347701779514E-004
                    70 -1.468128600965358E-004
                    71  0.000000000000000E+000
                    72  2.068533512337392E-003
                    73 -2.559755803172290E-004
                    74  0.000000000000000E+000
                    75 -3.852418895270572E-005
                    76  0.000000000000000E+000
                    77  0.000000000000000E+000
                    78  2.868994754919202E-005
                    79 -5.793001968985165E-006
                    80  4.191963462482189E-004
                    81  0.000000000000000E+000
                    82  0.000000000000000E+000
                    83  7.171690407086444E-004
                    84  2.391604048861985E-004
                    85  0.000000000000000E+000
                    86 -3.126533605840911E-005
                    87  5.681321952069486E-005
                    88  0.000000000000000E+000
                    89  0.000000000000000E+000
                    90 -5.361292424753052E-005
                    91 -1.531782751355051E-004
                    92 -1.848313603891689E-002
                    93  2.357106585086953E-003
                    94  2.990452402574192E-004
                    95 -3.287662715010955E-003
                    96 -5.610992960958490E-004
                    97 -5.417049365421197E-004
                    98  0.000000000000000E+000
                    99  9.975181158129352E-004
                   100  1.003667866568678E-005
                   101  0.000000000000000E+000
                   102 -1.788807272939684E-003
                   103  5.668496623722503E-005
                   104  0.000000000000000E+000
                   105 -2.282197325556146E-005
                   106  0.000000000000000E+000
                   107  0.000000000000000E+000
                   108  2.605142162003258E-005
                   109  2.538391195989485E-006
                   110  4.162295757000118E-004
                   111  0.000000000000000E+000
                   112  0.000000000000000E+000
                   113  3.977096925393730E-004
                   114 -2.442231994194524E-004
                   115  0.000000000000000E+000
                   116  3.664627801221962E-005
                   117  7.570185643369923E-005
                   118  0.000000000000000E+000
                   119  0.000000000000000E+000
                   120  1.066812403910576E-005
                   121 -1.348550371081540E-004
                   122 -1.659903885608242E-004
                   123  5.713610880521805E-004
                   124 -2.242677033638059E-004
                   125  1.101948576608799E-004
                   126  1.161716598864137E-005
                   127  5.668361904280447E-004
                   128  0.000000000000000E+000
                   129  6.397897308790820E-005
                   130 -6.274204916000411E-004
                   131  0.000000000000000E+000
                   132 -3.283440397752391E-004
                   133 -9.517871477932344E-004
                   134  0.000000000000000E+000
                   135 -1.723515720106405E-005
                   136  0.000000000000000E+000
                   137  0.000000000000000E+000
                   138  6.511829480962788E-007
                   139 -4.881620127307528E-005
                   140 -1.224269383856822E-004
                   141  0.000000000000000E+000
                   142  0.000000000000000E+000
                   143 -2.574216497280594E-004
                   144  1.000392458587107E-004
                   145  0.000000000000000E+000
                   146 -8.891676390127312E-006
                   147  3.431438780132157E-005
                   148  0.000000000000000E+000
                   149  0.000000000000000E+000
                   150  4.631033644669370E-005
                   151 -3.944199794249685E-005
                   152 -5.772019191817059E-004
                   153  5.099875071214257E-004
                   154 -2.294773750050290E-004
                   155  3.625662136482315E-005
                   156  7.330195418226110E-005
                   157  6.622351732377361E-004
                   158  0.000000000000000E+000
                   159 -1.433232278101379E-004
                   160 -5.690883324490710E-004