[Molden Format]
[Atoms] AU
  N     1    7    -0.1128869000   -4.3598204900    0.0000000000        
  C     2    6     0.0331465600   -1.8110394600    0.0000000000        
  C     3    6    -2.2889565500   -0.4292526100    0.0000000000        
  C     4    6     2.3335564500   -0.3907234000    0.0000000000        
  C     5    6    -2.2785492100    2.1543278900    0.0000000000        
  C     6    6     2.3004388000    2.1862336300    0.0000000000        
  C     7    6     0.0035862500    3.4880417700    0.0000000000        
  H     8    1    -6.3902663900   -8.5707045500    0.0000000000        
  H     9    1     1.6899127000   -5.1121731100    0.0000000000        
  H    10    1    -4.0240040400   -1.4738320500    0.0000000000        
  H    11    1     4.0963084700   -1.3979484800    0.0000000000        
  H    12    1    -4.0310847100    3.1769871600    0.0000000000        
  H    13    1     4.0389530700    3.2330460400    0.0000000000        
  H    14    1    -0.0095293100    5.5163510000    0.0000000000        
[5D]
[7F]
[GTO]
  1  0
   s    12 1.00
  0.114200D+05  0.172695D-04
  0.171200D+04  0.134411D-03
  0.389300D+03  0.694561D-03
  0.110000D+03  0.278531D-02
  0.355700D+02  0.863457D-02
  0.125400D+02  0.199805D-01
  0.464400D+01  0.262908D-01
  0.129300D+01 -0.243845D-01
  0.511800D+00 -0.924934D-01
  0.178700D+00 -0.339683D+00
  0.246240D-01  0.345111D+00
  0.112530D-01  0.752750D+00
   s    10 1.00
  0.114200D+05  0.523000D-03
  0.171200D+04  0.404500D-02
  0.389300D+03  0.207750D-01
  0.110000D+03  0.807269D-01
  0.355700D+02  0.233074D+00
  0.125400D+02  0.433501D+00
  0.464400D+01  0.347472D+00
  0.129300D+01  0.412620D-01
  0.511800D+00 -0.850799D-02
  0.178700D+00  0.238400D-02
   s    10 1.00
  0.114200D+05 -0.115000D-03
  0.171200D+04 -0.895000D-03
  0.389300D+03 -0.462400D-02
  0.110000D+03 -0.185280D-01
  0.355700D+02 -0.573390D-01
  0.125400D+02 -0.132076D+00
  0.464400D+01 -0.172510D+00
  0.129300D+01  0.151814D+00
  0.511800D+00  0.599944D+00
  0.178700D+00  0.387462D+00
   s     1 1.00
  0.129300D+01  0.100000D+01
   s     1 1.00
  0.178700D+00  0.100000D+01
   p     5 1.00
  0.266300D+02  0.146700D-01
  0.594800D+01  0.917640D-01
  0.174200D+01  0.298683D+00
  0.555000D+00  0.498487D+00
  0.172500D+00  0.337023D+00
   p     1 1.00
  0.174200D+01  0.100000D+01
   p     1 1.00
  0.555000D+00  0.100000D+01
   d     1 1.00
  0.165400D+01  0.100000D+01
   d     1 1.00
  0.469000D+00  0.100000D+01
   f     1 1.00
  0.109300D+01  0.100000D+01
  
  2  0
   s    10 1.00
  0.823600D+04  0.531000D-03
  0.123500D+04  0.410800D-02
  0.280800D+03  0.210870D-01
  0.792700D+02  0.818530D-01
  0.255900D+02  0.234817D+00
  0.899700D+01  0.434401D+00
  0.331900D+01  0.346129D+00
  0.905900D+00  0.393780D-01
  0.364300D+00 -0.898300D-02
  0.128500D+00  0.238500D-02
   s    10 1.00
  0.823600D+04 -0.113000D-03
  0.123500D+04 -0.878000D-03
  0.280800D+03 -0.454000D-02
  0.792700D+02 -0.181330D-01
  0.255900D+02 -0.557600D-01
  0.899700D+01 -0.126895D+00
  0.331900D+01 -0.170352D+00
  0.905900D+00  0.140382D+00
  0.364300D+00  0.598684D+00
  0.128500D+00  0.395389D+00
   s     1 1.00
  0.905900D+00  0.100000D+01
   s     1 1.00
  0.364300D+00  0.100000D+01
   p     5 1.00
  0.187100D+02  0.140310D-01
  0.413300D+01  0.868660D-01
  0.120000D+01  0.290216D+00
  0.382700D+00  0.501008D+00
  0.120900D+00  0.343406D+00
   p     1 1.00
  0.382700D+00  0.100000D+01
   p     1 1.00
  0.120900D+00  0.100000D+01
   d     1 1.00
  0.109700D+01  0.100000D+01
   d     1 1.00
  0.318000D+00  0.100000D+01
   f     1 1.00
  0.761000D+00  0.100000D+01
  
  3  0
   s    10 1.00
  0.823600D+04  0.531000D-03
  0.123500D+04  0.410800D-02
  0.280800D+03  0.210870D-01
  0.792700D+02  0.818530D-01
  0.255900D+02  0.234817D+00
  0.899700D+01  0.434401D+00
  0.331900D+01  0.346129D+00
  0.905900D+00  0.393780D-01
  0.364300D+00 -0.898300D-02
  0.128500D+00  0.238500D-02
   s    10 1.00
  0.823600D+04 -0.113000D-03
  0.123500D+04 -0.878000D-03
  0.280800D+03 -0.454000D-02
  0.792700D+02 -0.181330D-01
  0.255900D+02 -0.557600D-01
  0.899700D+01 -0.126895D+00
  0.331900D+01 -0.170352D+00
  0.905900D+00  0.140382D+00
  0.364300D+00  0.598684D+00
  0.128500D+00  0.395389D+00
   s     1 1.00
  0.905900D+00  0.100000D+01
   s     1 1.00
  0.364300D+00  0.100000D+01
   p     5 1.00
  0.187100D+02  0.140310D-01
  0.413300D+01  0.868660D-01
  0.120000D+01  0.290216D+00
  0.382700D+00  0.501008D+00
  0.120900D+00  0.343406D+00
   p     1 1.00
  0.382700D+00  0.100000D+01
   p     1 1.00
  0.120900D+00  0.100000D+01
   d     1 1.00
  0.109700D+01  0.100000D+01
   d     1 1.00
  0.318000D+00  0.100000D+01
   f     1 1.00
  0.761000D+00  0.100000D+01
  
  4  0
   s    10 1.00
  0.823600D+04  0.531000D-03
  0.123500D+04  0.410800D-02
  0.280800D+03  0.210870D-01
  0.792700D+02  0.818530D-01
  0.255900D+02  0.234817D+00
  0.899700D+01  0.434401D+00
  0.331900D+01  0.346129D+00
  0.905900D+00  0.393780D-01
  0.364300D+00 -0.898300D-02
  0.128500D+00  0.238500D-02
   s    10 1.00
  0.823600D+04 -0.113000D-03
  0.123500D+04 -0.878000D-03
  0.280800D+03 -0.454000D-02
  0.792700D+02 -0.181330D-01
  0.255900D+02 -0.557600D-01
  0.899700D+01 -0.126895D+00
  0.331900D+01 -0.170352D+00
  0.905900D+00  0.140382D+00
  0.364300D+00  0.598684D+00
  0.128500D+00  0.395389D+00
   s     1 1.00
  0.905900D+00  0.100000D+01
   s     1 1.00
  0.364300D+00  0.100000D+01
   p     5 1.00
  0.187100D+02  0.140310D-01
  0.413300D+01  0.868660D-01
  0.120000D+01  0.290216D+00
  0.382700D+00  0.501008D+00
  0.120900D+00  0.343406D+00
   p     1 1.00
  0.382700D+00  0.100000D+01
   p     1 1.00
  0.120900D+00  0.100000D+01
   d     1 1.00
  0.109700D+01  0.100000D+01
   d     1 1.00
  0.318000D+00  0.100000D+01
   f     1 1.00
  0.761000D+00  0.100000D+01
  
  5  0
   s    10 1.00
  0.823600D+04  0.531000D-03
  0.123500D+04  0.410800D-02
  0.280800D+03  0.210870D-01
  0.792700D+02  0.818530D-01
  0.255900D+02  0.234817D+00
  0.899700D+01  0.434401D+00
  0.331900D+01  0.346129D+00
  0.905900D+00  0.393780D-01
  0.364300D+00 -0.898300D-02
  0.128500D+00  0.238500D-02
   s    10 1.00
  0.823600D+04 -0.113000D-03
  0.123500D+04 -0.878000D-03
  0.280800D+03 -0.454000D-02
  0.792700D+02 -0.181330D-01
  0.255900D+02 -0.557600D-01
  0.899700D+01 -0.126895D+00
  0.331900D+01 -0.170352D+00
  0.905900D+00  0.140382D+00
  0.364300D+00  0.598684D+00
  0.128500D+00  0.395389D+00
   s     1 1.00
  0.905900D+00  0.100000D+01
   s     1 1.00
  0.364300D+00  0.100000D+01
   p     5 1.00
  0.187100D+02  0.140310D-01
  0.413300D+01  0.868660D-01
  0.120000D+01  0.290216D+00
  0.382700D+00  0.501008D+00
  0.120900D+00  0.343406D+00
   p     1 1.00
  0.382700D+00  0.100000D+01
   p     1 1.00
  0.120900D+00  0.100000D+01
   d     1 1.00
  0.109700D+01  0.100000D+01
   d     1 1.00
  0.318000D+00  0.100000D+01
   f     1 1.00
  0.761000D+00  0.100000D+01
  
  6  0
   s    10 1.00
  0.823600D+04  0.531000D-03
  0.123500D+04  0.410800D-02
  0.280800D+03  0.210870D-01
  0.792700D+02  0.818530D-01
  0.255900D+02  0.234817D+00
  0.899700D+01  0.434401D+00
  0.331900D+01  0.346129D+00
  0.905900D+00  0.393780D-01
  0.364300D+00 -0.898300D-02
  0.128500D+00  0.238500D-02
   s    10 1.00
  0.823600D+04 -0.113000D-03
  0.123500D+04 -0.878000D-03
  0.280800D+03 -0.454000D-02
  0.792700D+02 -0.181330D-01
  0.255900D+02 -0.557600D-01
  0.899700D+01 -0.126895D+00
  0.331900D+01 -0.170352D+00
  0.905900D+00  0.140382D+00
  0.364300D+00  0.598684D+00
  0.128500D+00  0.395389D+00
   s     1 1.00
  0.905900D+00  0.100000D+01
   s     1 1.00
  0.364300D+00  0.100000D+01
   p     5 1.00
  0.187100D+02  0.140310D-01
  0.413300D+01  0.868660D-01
  0.120000D+01  0.290216D+00
  0.382700D+00  0.501008D+00
  0.120900D+00  0.343406D+00
   p     1 1.00
  0.382700D+00  0.100000D+01
   p     1 1.00
  0.120900D+00  0.100000D+01
   d     1 1.00
  0.109700D+01  0.100000D+01
   d     1 1.00
  0.318000D+00  0.100000D+01
   f     1 1.00
  0.761000D+00  0.100000D+01
  
  7  0
   s    10 1.00
  0.823600D+04  0.531000D-03
  0.123500D+04  0.410800D-02
  0.280800D+03  0.210870D-01
  0.792700D+02  0.818530D-01
  0.255900D+02  0.234817D+00
  0.899700D+01  0.434401D+00
  0.331900D+01  0.346129D+00
  0.905900D+00  0.393780D-01
  0.364300D+00 -0.898300D-02
  0.128500D+00  0.238500D-02
   s    10 1.00
  0.823600D+04 -0.113000D-03
  0.123500D+04 -0.878000D-03
  0.280800D+03 -0.454000D-02
  0.792700D+02 -0.181330D-01
  0.255900D+02 -0.557600D-01
  0.899700D+01 -0.126895D+00
  0.331900D+01 -0.170352D+00
  0.905900D+00  0.140382D+00
  0.364300D+00  0.598684D+00
  0.128500D+00  0.395389D+00
   s     1 1.00
  0.905900D+00  0.100000D+01
   s     1 1.00
  0.364300D+00  0.100000D+01
   p     5 1.00
  0.187100D+02  0.140310D-01
  0.413300D+01  0.868660D-01
  0.120000D+01  0.290216D+00
  0.382700D+00  0.501008D+00
  0.120900D+00  0.343406D+00
   p     1 1.00
  0.382700D+00  0.100000D+01
   p     1 1.00
  0.120900D+00  0.100000D+01
   d     1 1.00
  0.109700D+01  0.100000D+01
   d     1 1.00
  0.318000D+00  0.100000D+01
   f     1 1.00
  0.761000D+00  0.100000D+01
  
  8  0
   s     4 1.00
  0.130100D+02  0.196850D-01
  0.196200D+01  0.137977D+00
  0.444600D+00  0.478148D+00
  0.122000D+00  0.501240D+00
   s     1 1.00
  0.122000D+00  0.100000D+01
   p     1 1.00
  0.727000D+00  0.100000D+01
  
  9  0
   s     4 1.00
  0.130100D+02  0.196850D-01
  0.196200D+01  0.137977D+00
  0.444600D+00  0.478148D+00
  0.122000D+00  0.501240D+00
   s     1 1.00
  0.122000D+00  0.100000D+01
   p     1 1.00
  0.727000D+00  0.100000D+01
  
 10  0
   s     4 1.00
  0.130100D+02  0.196850D-01
  0.196200D+01  0.137977D+00
  0.444600D+00  0.478148D+00
  0.122000D+00  0.501240D+00
   s     1 1.00
  0.122000D+00  0.100000D+01
   p     1 1.00
  0.727000D+00  0.100000D+01
  
 11  0
   s     4 1.00
  0.130100D+02  0.196850D-01
  0.196200D+01  0.137977D+00
  0.444600D+00  0.478148D+00
  0.122000D+00  0.501240D+00
   s     1 1.00
  0.122000D+00  0.100000D+01
   p     1 1.00
  0.727000D+00  0.100000D+01
  
 12  0
   s     4 1.00
  0.130100D+02  0.196850D-01
  0.196200D+01  0.137977D+00
  0.444600D+00  0.478148D+00
  0.122000D+00  0.501240D+00
   s     1 1.00
  0.122000D+00  0.100000D+01
   p     1 1.00
  0.727000D+00  0.100000D+01
  
 13  0
   s     4 1.00
  0.130100D+02  0.196850D-01
  0.196200D+01  0.137977D+00
  0.444600D+00  0.478148D+00
  0.122000D+00  0.501240D+00
   s     1 1.00
  0.122000D+00  0.100000D+01
   p     1 1.00
  0.727000D+00  0.100000D+01
  
 14  0
   s     4 1.00
  0.130100D+02  0.196850D-01
  0.196200D+01  0.137977D+00
  0.444600D+00  0.478148D+00
  0.122000D+00  0.501240D+00
   s     1 1.00
  0.122000D+00  0.100000D+01
   p     1 1.00
  0.727000D+00  0.100000D+01
  
[MO]
 Sym= __1_a__
 Ene=  0.000000000000000E+000
 Spin= Alpha
 Occup=    2.00000000000000     
                     1  1.383656483146800E-004
                     2  0.998338715177508     
                     3 -2.632685414593040E-003
                     4  1.839120292631430E-003
                     5  6.599818568476790E-003
                     6  2.831335691239870E-003
                     7  5.958045729584840E-003
                     8  0.000000000000000E+000
                     9 -6.940703732667750E-004
                    10 -7.260239660968880E-004
                    11  0.000000000000000E+000
                    12 -2.485395661853000E-003
                    13 -1.909352807240470E-003
                    14  0.000000000000000E+000
                    15 -2.689233966806940E-005
                    16  0.000000000000000E+000
                    17  0.000000000000000E+000
                    18 -1.534458522608510E-004
                    19 -5.775994750903460E-005
                    20  8.894447556705863E-005
                    21  0.000000000000000E+000
                    22  0.000000000000000E+000
                    23 -2.063765893476500E-004
                    24  5.029445482334990E-004
                    25  0.000000000000000E+000
                    26 -5.673386459673069E-006
                    27 -4.874657215317913E-005
                    28  0.000000000000000E+000
                    29  0.000000000000000E+000
                    30  3.808691868928398E-005
                    31 -1.077929872980921E-004
                    32 -4.005298630086890E-004
                    33  1.403013044245680E-004
                    34  3.157879705617040E-004
                    35 -5.577734134966970E-005
                    36 -4.996371047996240E-005
                    37 -2.732531554249230E-003
                    38  0.000000000000000E+000
                    39  3.750645976829290E-004
                    40  2.016548847377430E-004
                    41  0.000000000000000E+000
                    42 -2.067330705241320E-003
                    43  5.137157799713460E-003
                    44  0.000000000000000E+000
                    45  1.621800630382661E-006
                    46  0.000000000000000E+000
                    47  0.000000000000000E+000
                    48 -1.373018481544332E-004
                    49  2.051395051547320E-005
                    50 -2.006681687770526E-004
                    51  0.000000000000000E+000
                    52  0.000000000000000E+000
                    53  4.850657693108800E-005
                    54  7.744671354779149E-004
                    55  0.000000000000000E+000
                    56 -3.002225481537623E-006
                    57 -7.061541043728835E-005
                    58  0.000000000000000E+000
                    59  0.000000000000000E+000
                    60  2.478792136022419E-005
                    61 -1.226540475584466E-004
                    62 -5.639097200105440E-004
                    63 -2.259782563873110E-003
                    64 -8.522260021257950E-005
                    65  2.270126782524990E-003
                    66 -5.260258015142510E-004
                    67  1.620880284513260E-004
                    68  0.000000000000000E+000
                    69  3.891998144310570E-004
                    70  8.936310492690670E-004
                    71  0.000000000000000E+000
                    72 -1.698979515540520E-003
                    73  6.873932627795850E-004
                    74  0.000000000000000E+000
                    75 -4.305278456024254E-005
                    76  0.000000000000000E+000
                    77  0.000000000000000E+000
                    78 -6.496826035529000E-005
                    79 -2.009299018812840E-005
                    80 -1.327569283981888E-004
                    81  0.000000000000000E+000
                    82  0.000000000000000E+000
                    83  4.093669309399300E-005
                    84  1.639758161629360E-005
                    85  0.000000000000000E+000
                    86  8.187286704597290E-006
                    87 -4.623691994957490E-005
                    88  0.000000000000000E+000
                    89  0.000000000000000E+000
                    90 -2.462323417778854E-005
                    91 -1.539774151604852E-004
                    92 -1.827926485522170E-004
                    93 -6.680724391073950E-004
                    94  1.562705497087980E-004
                    95 -5.006662978672210E-005
                    96  2.251736100264520E-004
                    97  9.328008562987019E-006
                    98  0.000000000000000E+000
                    99  3.375315710531750E-004
                   100  3.960314429313370E-004
                   101  0.000000000000000E+000
                   102  6.545728062998400E-004
                   103 -1.785944594151330E-003
                   104  0.000000000000000E+000
                   105 -1.197567358781385E-005
                   106  0.000000000000000E+000
                   107  0.000000000000000E+000
                   108 -4.662570761320640E-005
                   109 -1.323909490128960E-005
                   110  8.465778009116109E-005
                   111  0.000000000000000E+000
                   112  0.000000000000000E+000
                   113 -1.666837006744388E-004
                   114  8.539547057970739E-005
                   115  0.000000000000000E+000
                   116 -1.986372168559081E-005
                   117 -2.258341203137507E-005
                   118  0.000000000000000E+000
                   119  0.000000000000000E+000
                   120 -1.215031902647778E-005
                   121 -3.720936387581976E-005
                   122 -2.428457867981910E-004
                   123 -5.863421140613600E-004
                   124  1.654398132400580E-004
                   125  3.285708106803900E-004
                   126 -3.314030075674240E-005
                   127 -3.431371321450470E-004
                   128  0.000000000000000E+000
                   129  2.464727907627310E-004
                   130  6.540867490724700E-004
                   131  0.000000000000000E+000
                   132  3.872453685047800E-004
                   133  2.031511523874950E-003
                   134  0.000000000000000E+000
                   135  1.325275045929565E-005
                   136  0.000000000000000E+000
                   137  0.000000000000000E+000
                   138  4.569432878136700E-005
                   139 -1.651415019846450E-006
                   140  2.051937871592982E-004
                   141  0.000000000000000E+000
                   142  0.000000000000000E+000
                   143  4.054765811614440E-004
                   144  2.393017072651860E-004
                   145  0.000000000000000E+000
                   146 -1.258102890418788E-005
                   147 -6.522019683149020E-005
                   148  0.000000000000000E+000
                   149  0.000000000000000E+000
                   150 -1.355447824836511E-005
                   151 -5.333879410253673E-005
                   152 -1.300156942516800E-004
                   153 -3.527904805322640E-004
                   154  5.510062050215140E-005
                   155  1.884318699446130E-004
                   156  1.027789207184610E-005
                   157 -8.945593569315379E-005
                   158  0.000000000000000E+000
                   159  1.208848099435590E-005
                   160  6.205739760989150E-005
                   161  0.000000000000000E+000
                   162  7.313226412568550E-004
                   163 -3.654017856767220E-004
                   164  0.000000000000000E+000
                   165  1.900467620029234E-006
                   166  0.000000000000000E+000
                   167  0.000000000000000E+000
                   168  3.080295931907240E-006
                   169  9.664556808716770E-006
                   170  1.077647191896028E-004
                   171  0.000000000000000E+000
                   172  0.000000000000000E+000
                   173  5.573373954872280E-005
                   174  2.663335443629310E-005
                   175  0.000000000000000E+000
                   176  3.052462088754853E-006
                   177 -1.494628313160127E-005
                   178  0.000000000000000E+000
                   179  0.000000000000000E+000
                   180 -2.077223387330440E-005
                   181 -3.041209531046622E-005
                   182 -1.341128987092100E-004
                   183 -3.901625492261840E-004
                   184  3.317162092361420E-005
                   185  1.850149021906270E-004
                   186 -5.069386632814800E-005
                   187 -6.474419227864920E-005
                   188  0.000000000000000E+000
                   189  2.741465772695080E-004
                   190  1.255879494945480E-004
                   191  0.000000000000000E+000
                   192  1.349764739105440E-003
                   193 -3.496514562058310E-004
                   194  0.000000000000000E+000
                   195  1.755970424529219E-006
                   196  0.000000000000000E+000
                   197  0.000000000000000E+000
                   198 -3.759592323687060E-006
                   199  4.129568431733540E-006
                   200 -7.291918467189151E-006
                   201  0.000000000000000E+000
                   202  0.000000000000000E+000
                   203 -8.275652447860320E-005
                   204 -2.041226207329640E-004
                   205  0.000000000000000E+000
                   206 -1.055783478242947E-005
                   207 -4.527554704052229E-006
                   208  0.000000000000000E+000
                   209  0.000000000000000E+000
                   210  7.517879339244167E-006
                   211 -2.948798382124764E-006
                   212 -2.322942575040020E-005
                   213  1.726676964450300E-005
                   214  8.848342541130890E-007
                   215  1.539384478479100E-006
                   216  0.000000000000000E+000
                   217 -8.627838596884500E-004
                   218 -6.602814864556230E-004
                   219 -2.398221650974470E-004
                   220  6.482719651777190E-005
                   221  0.000000000000000E+000
                   222 -2.105808394494530E-004
                   223 -5.570817867662100E-004
                   224  2.486354314175210E-005
                   225 -5.823885751211680E-005
                   226  0.000000000000000E+000
                   227  6.814740775574490E-005
                   228 -7.087003904398600E-004
                   229 -4.602625756380710E-005
                   230 -1.333951500871630E-005
                   231  0.000000000000000E+000
                   232  4.192727903336740E-006
                   233 -5.351986969086100E-004
                   234  1.257681679749220E-005
                   235 -3.735589382978000E-006
                   236  0.000000000000000E+000
                   237  7.744969339938089E-006
                   238 -3.715720275761890E-004
                   239 -6.125541667527940E-006
                   240 -1.601899310368460E-006
                   241  0.000000000000000E+000
                   242 -6.419856758262280E-005
                   243  9.894072661324880E-005
                   244  2.423770327649260E-007
                   245  3.152337476294120E-005
                   246  0.000000000000000E+000
 Sym= __2_a__
 Ene=  0.000000000000000E+000
 Spin= Alpha
 Occup=    2.00000000000000     
                     1  2.482818409488560E-005
                     2  2.824681932387360E-004
                     3 -3.567555845919420E-003
                     4 -9.736206456992790E-005
                     5 -1.468459583480200E-003
                     6  9.696635932414710E-004
                     7 -3.873711252943710E-003
                     8  0.000000000000000E+000
                     9 -7.827291139280020E-006
                    10  8.743055625238580E-005
                    11  0.000000000000000E+000
                    12 -3.079431625444880E-005
                    13  2.330435024607250E-004
                    14  0.000000000000000E+000
                    15 -1.830682758951214E-005
                    16  0.000000000000000E+000
                    17  0.000000000000000E+000
                    18  7.994993673910800E-005
                    19 -3.322424199582450E-005
                    20  1.471588684460685E-004
                    21  0.000000000000000E+000
                    22  0.000000000000000E+000
                    23 -2.853444463087040E-005
                    24  1.545605709500980E-004
                    25  0.000000000000000E+000
                    26  1.261088617352531E-005
                    27 -8.151559526021331E-005
                    28  0.000000000000000E+000
                    29  0.000000000000000E+000
                    30  7.349175780367962E-005
                    31 -1.346316550171489E-004
                    32  -1.00075385830048     
                    33 -9.327651813886791E-003
                    34 -2.842311500073800E-003
                    35  8.140636094829450E-003
                    36  3.936523623419760E-004
                    37  4.431189733687920E-003
                    38  0.000000000000000E+000
                    39  2.216236588500770E-004
                    40 -3.709997647373870E-004
                    41  0.000000000000000E+000
                    42 -2.713358973399570E-005
                    43 -4.451861245972870E-003
                    44  0.000000000000000E+000
                    45  5.177354349007777E-004
                    46  0.000000000000000E+000
                    47  0.000000000000000E+000
                    48  2.106987553614380E-004
                    49 -5.025288760831190E-005
                    50 -5.628866711014108E-004
                    51  0.000000000000000E+000
                    52  0.000000000000000E+000
                    53  6.914616820480540E-004
                    54  4.872984178501530E-004
                    55  0.000000000000000E+000
                    56 -2.209158602609912E-005
                    57 -9.948624096412790E-005
                    58  0.000000000000000E+000
                    59  0.000000000000000E+000
                    60  4.343025205715435E-005
                    61 -3.758671362534254E-004
                    62 -1.430369033969580E-002
                    63  2.269706192885950E-003
                    64  2.076769935114450E-004
                    65 -2.655801787839270E-003
                    66  1.235631923126100E-004
                    67 -3.472999803857660E-004
                    68  0.000000000000000E+000
                    69 -4.486333761360810E-004
                    70 -1.468112353683320E-004
                    71  0.000000000000000E+000
                    72  2.068531424456320E-003
                    73 -2.559718227242370E-004
                    74  0.000000000000000E+000
                    75 -3.852422200020627E-005
                    76  0.000000000000000E+000
                    77  0.000000000000000E+000
                    78  2.869036586842860E-005
                    79 -5.792723566156650E-006
                    80  4.191964687285137E-004
                    81  0.000000000000000E+000
                    82  0.000000000000000E+000
                    83  7.171692145959480E-004
                    84  2.391601550153720E-004
                    85  0.000000000000000E+000
                    86 -3.126530237718017E-005
                    87  5.681327169302186E-005
                    88  0.000000000000000E+000
                    89  0.000000000000000E+000
                    90 -5.361299449501230E-005
                    91 -1.531781990989765E-004
                    92 -1.848427997647830E-002
                    93  2.357102458254560E-003
                    94  2.990417598793500E-004
                    95 -3.287653558684650E-003
                    96 -5.611120822760050E-004
                    97 -5.417335458291450E-004
                    98  0.000000000000000E+000
                    99  9.975183378028820E-004
                   100  1.003923122090180E-005
                   101  0.000000000000000E+000
                   102 -1.788803002462550E-003
                   103  5.668972800270780E-005
                   104  0.000000000000000E+000
                   105 -2.282158190339057E-005
                   106  0.000000000000000E+000
                   107  0.000000000000000E+000
                   108  2.605229871025200E-005
                   109  2.538867490116830E-006
                   110  4.162288288696619E-004
                   111  0.000000000000000E+000
                   112  0.000000000000000E+000
                   113  3.977090476838900E-004
                   114 -2.442212450033390E-004
                   115  0.000000000000000E+000
                   116  3.664651032249523E-005
                   117  7.570208921010540E-005
                   118  0.000000000000000E+000
                   119  0.000000000000000E+000
                   120  1.066799457342795E-005
                   121 -1.348547708435811E-004
                   122 -1.659687367202410E-004
                   123  5.713579254773929E-004
                   124 -2.242675097601050E-004
                   125  1.101945420841660E-004
                   126  1.161743030373970E-005
                   127  5.668462360702030E-004
                   128  0.000000000000000E+000
                   129  6.397933018862319E-005
                   130 -6.274208375443079E-004
                   131  0.000000000000000E+000
                   132 -3.283423282886280E-004
                   133 -9.517856164806160E-004
                   134  0.000000000000000E+000
                   135 -1.723508322036757E-005
                   136  0.000000000000000E+000
                   137  0.000000000000000E+000
                   138  6.515041053920800E-007
                   139 -4.881609603643960E-005
                   140 -1.224267685800599E-004
                   141  0.000000000000000E+000
                   142  0.000000000000000E+000
                   143 -2.574208328165580E-004
                   144  1.000396619545410E-004
                   145  0.000000000000000E+000
                   146 -8.891688828830172E-006
                   147  3.431427494393878E-005
                   148  0.000000000000000E+000
                   149  0.000000000000000E+000
                   150  4.631028156078933E-005
                   151 -3.944210899871110E-005
                   152 -5.772384509364970E-004
                   153  5.099780483448040E-004
                   154 -2.294767417527200E-004
                   155  3.625370169476570E-005
                   156  7.330244791834540E-005
                   157  6.622560696759400E-004
                   158  0.000000000000000E+000
                   159 -1.433230129826810E-004
                   160 -5.690889973406310E-004