[Molden Format]
[Atoms] AU
  N     1    7    -4.4808710700    0.1395634600   -0.2585535100        
  C     2    6    -1.7547363300    0.0111331600   -0.1163602900        
  C     3    6    -0.3710428700    0.2053085800   -2.3465969100        
  C     4    6    -0.4625323800   -0.1615967700    2.1694658200        
  C     5    6     2.2414717200    0.1752641500   -2.2858734600        
  C     6    6     2.1560599600   -0.1421032300    2.2175320500        
  C     7    6     3.5161057300    0.0144113300   -0.0059776900        
  H     8    1    -5.1643077800   -1.6449842000   -0.6531133400        
  H     9    1    -5.1231136400    0.4986282100    1.5402495800        
  H    10    1    -1.3555621700    0.3950973600   -4.1070163700        
  H    11    1    -1.5016005900   -0.3272499300    3.9037710700        
  H    12    1     3.2860278000    0.3141596500   -4.0196731300        
  H    13    1     3.1259601800   -0.2686958500    3.9954988400        
  H    14    1     5.5443304200    0.0158662500    0.0332730100        
[5D]
[7F]
[GTO]
  1  0
   s    12 1.00
  0.114200D+05  0.172695D-04
  0.171200D+04  0.134411D-03
  0.389300D+03  0.694561D-03
  0.110000D+03  0.278531D-02
  0.355700D+02  0.863457D-02
  0.125400D+02  0.199805D-01
  0.464400D+01  0.262908D-01
  0.129300D+01 -0.243845D-01
  0.511800D+00 -0.924934D-01
  0.178700D+00 -0.339683D+00
  0.246240D-01  0.345111D+00
  0.112530D-01  0.752750D+00
   s    10 1.00
  0.114200D+05  0.523000D-03
  0.171200D+04  0.404500D-02
  0.389300D+03  0.207750D-01
  0.110000D+03  0.807269D-01
  0.355700D+02  0.233074D+00
  0.125400D+02  0.433501D+00
  0.464400D+01  0.347472D+00
  0.129300D+01  0.412620D-01
  0.511800D+00 -0.850799D-02
  0.178700D+00  0.238400D-02
   s    10 1.00
  0.114200D+05 -0.115000D-03
  0.171200D+04 -0.895000D-03
  0.389300D+03 -0.462400D-02
  0.110000D+03 -0.185280D-01
  0.355700D+02 -0.573390D-01
  0.125400D+02 -0.132076D+00
  0.464400D+01 -0.172510D+00
  0.129300D+01  0.151814D+00
  0.511800D+00  0.599944D+00
  0.178700D+00  0.387462D+00
   s     1 1.00
  0.129300D+01  0.100000D+01
   s     1 1.00
  0.178700D+00  0.100000D+01
   p     5 1.00
  0.266300D+02  0.146700D-01
  0.594800D+01  0.917640D-01
  0.174200D+01  0.298683D+00
  0.555000D+00  0.498487D+00
  0.172500D+00  0.337023D+00
   p     1 1.00
  0.174200D+01  0.100000D+01
   p     1 1.00
  0.555000D+00  0.100000D+01
   d     1 1.00
  0.165400D+01  0.100000D+01
   d     1 1.00
  0.469000D+00  0.100000D+01
   f     1 1.00
  0.109300D+01  0.100000D+01
  
  2  0
   s    10 1.00
  0.823600D+04  0.531000D-03
  0.123500D+04  0.410800D-02
  0.280800D+03  0.210870D-01
  0.792700D+02  0.818530D-01
  0.255900D+02  0.234817D+00
  0.899700D+01  0.434401D+00
  0.331900D+01  0.346129D+00
  0.905900D+00  0.393780D-01
  0.364300D+00 -0.898300D-02
  0.128500D+00  0.238500D-02
   s    10 1.00
  0.823600D+04 -0.113000D-03
  0.123500D+04 -0.878000D-03
  0.280800D+03 -0.454000D-02
  0.792700D+02 -0.181330D-01
  0.255900D+02 -0.557600D-01
  0.899700D+01 -0.126895D+00
  0.331900D+01 -0.170352D+00
  0.905900D+00  0.140382D+00
  0.364300D+00  0.598684D+00
  0.128500D+00  0.395389D+00
   s     1 1.00
  0.905900D+00  0.100000D+01
   s     1 1.00
  0.364300D+00  0.100000D+01
   p     5 1.00
  0.187100D+02  0.140310D-01
  0.413300D+01  0.868660D-01
  0.120000D+01  0.290216D+00
  0.382700D+00  0.501008D+00
  0.120900D+00  0.343406D+00
   p     1 1.00
  0.382700D+00  0.100000D+01
   p     1 1.00
  0.120900D+00  0.100000D+01
   d     1 1.00
  0.109700D+01  0.100000D+01
   d     1 1.00
  0.318000D+00  0.100000D+01
   f     1 1.00
  0.761000D+00  0.100000D+01
  
  3  0
   s    10 1.00
  0.823600D+04  0.531000D-03
  0.123500D+04  0.410800D-02
  0.280800D+03  0.210870D-01
  0.792700D+02  0.818530D-01
  0.255900D+02  0.234817D+00
  0.899700D+01  0.434401D+00
  0.331900D+01  0.346129D+00
  0.905900D+00  0.393780D-01
  0.364300D+00 -0.898300D-02
  0.128500D+00  0.238500D-02
   s    10 1.00
  0.823600D+04 -0.113000D-03
  0.123500D+04 -0.878000D-03
  0.280800D+03 -0.454000D-02
  0.792700D+02 -0.181330D-01
  0.255900D+02 -0.557600D-01
  0.899700D+01 -0.126895D+00
  0.331900D+01 -0.170352D+00
  0.905900D+00  0.140382D+00
  0.364300D+00  0.598684D+00
  0.128500D+00  0.395389D+00
   s     1 1.00
  0.905900D+00  0.100000D+01
   s     1 1.00
  0.364300D+00  0.100000D+01
   p     5 1.00
  0.187100D+02  0.140310D-01
  0.413300D+01  0.868660D-01
  0.120000D+01  0.290216D+00
  0.382700D+00  0.501008D+00
  0.120900D+00  0.343406D+00
   p     1 1.00
  0.382700D+00  0.100000D+01
   p     1 1.00
  0.120900D+00  0.100000D+01
   d     1 1.00
  0.109700D+01  0.100000D+01
   d     1 1.00
  0.318000D+00  0.100000D+01
   f     1 1.00
  0.761000D+00  0.100000D+01
  
  4  0
   s    10 1.00
  0.823600D+04  0.531000D-03
  0.123500D+04  0.410800D-02
  0.280800D+03  0.210870D-01
  0.792700D+02  0.818530D-01
  0.255900D+02  0.234817D+00
  0.899700D+01  0.434401D+00
  0.331900D+01  0.346129D+00
  0.905900D+00  0.393780D-01
  0.364300D+00 -0.898300D-02
  0.128500D+00  0.238500D-02
   s    10 1.00
  0.823600D+04 -0.113000D-03
  0.123500D+04 -0.878000D-03
  0.280800D+03 -0.454000D-02
  0.792700D+02 -0.181330D-01
  0.255900D+02 -0.557600D-01
  0.899700D+01 -0.126895D+00
  0.331900D+01 -0.170352D+00
  0.905900D+00  0.140382D+00
  0.364300D+00  0.598684D+00
  0.128500D+00  0.395389D+00
   s     1 1.00
  0.905900D+00  0.100000D+01
   s     1 1.00
  0.364300D+00  0.100000D+01
   p     5 1.00
  0.187100D+02  0.140310D-01
  0.413300D+01  0.868660D-01
  0.120000D+01  0.290216D+00
  0.382700D+00  0.501008D+00
  0.120900D+00  0.343406D+00
   p     1 1.00
  0.382700D+00  0.100000D+01
   p     1 1.00
  0.120900D+00  0.100000D+01
   d     1 1.00
  0.109700D+01  0.100000D+01
   d     1 1.00
  0.318000D+00  0.100000D+01
   f     1 1.00
  0.761000D+00  0.100000D+01
  
  5  0
   s    10 1.00
  0.823600D+04  0.531000D-03
  0.123500D+04  0.410800D-02
  0.280800D+03  0.210870D-01
  0.792700D+02  0.818530D-01
  0.255900D+02  0.234817D+00
  0.899700D+01  0.434401D+00
  0.331900D+01  0.346129D+00
  0.905900D+00  0.393780D-01
  0.364300D+00 -0.898300D-02
  0.128500D+00  0.238500D-02
   s    10 1.00
  0.823600D+04 -0.113000D-03
  0.123500D+04 -0.878000D-03
  0.280800D+03 -0.454000D-02
  0.792700D+02 -0.181330D-01
  0.255900D+02 -0.557600D-01
  0.899700D+01 -0.126895D+00
  0.331900D+01 -0.170352D+00
  0.905900D+00  0.140382D+00
  0.364300D+00  0.598684D+00
  0.128500D+00  0.395389D+00
   s     1 1.00
  0.905900D+00  0.100000D+01
   s     1 1.00
  0.364300D+00  0.100000D+01
   p     5 1.00
  0.187100D+02  0.140310D-01
  0.413300D+01  0.868660D-01
  0.120000D+01  0.290216D+00
  0.382700D+00  0.501008D+00
  0.120900D+00  0.343406D+00
   p     1 1.00
  0.382700D+00  0.100000D+01
   p     1 1.00
  0.120900D+00  0.100000D+01
   d     1 1.00
  0.109700D+01  0.100000D+01
   d     1 1.00
  0.318000D+00  0.100000D+01
   f     1 1.00
  0.761000D+00  0.100000D+01
  
  6  0
   s    10 1.00
  0.823600D+04  0.531000D-03
  0.123500D+04  0.410800D-02
  0.280800D+03  0.210870D-01
  0.792700D+02  0.818530D-01
  0.255900D+02  0.234817D+00
  0.899700D+01  0.434401D+00
  0.331900D+01  0.346129D+00
  0.905900D+00  0.393780D-01
  0.364300D+00 -0.898300D-02
  0.128500D+00  0.238500D-02
   s    10 1.00
  0.823600D+04 -0.113000D-03
  0.123500D+04 -0.878000D-03
  0.280800D+03 -0.454000D-02
  0.792700D+02 -0.181330D-01
  0.255900D+02 -0.557600D-01
  0.899700D+01 -0.126895D+00
  0.331900D+01 -0.170352D+00
  0.905900D+00  0.140382D+00
  0.364300D+00  0.598684D+00
  0.128500D+00  0.395389D+00
   s     1 1.00
  0.905900D+00  0.100000D+01
   s     1 1.00
  0.364300D+00  0.100000D+01
   p     5 1.00
  0.187100D+02  0.140310D-01
  0.413300D+01  0.868660D-01
  0.120000D+01  0.290216D+00
  0.382700D+00  0.501008D+00
  0.120900D+00  0.343406D+00
   p     1 1.00
  0.382700D+00  0.100000D+01
   p     1 1.00
  0.120900D+00  0.100000D+01
   d     1 1.00
  0.109700D+01  0.100000D+01
   d     1 1.00
  0.318000D+00  0.100000D+01
   f     1 1.00
  0.761000D+00  0.100000D+01
  
  7  0
   s    10 1.00
  0.823600D+04  0.531000D-03
  0.123500D+04  0.410800D-02
  0.280800D+03  0.210870D-01
  0.792700D+02  0.818530D-01
  0.255900D+02  0.234817D+00
  0.899700D+01  0.434401D+00
  0.331900D+01  0.346129D+00
  0.905900D+00  0.393780D-01
  0.364300D+00 -0.898300D-02
  0.128500D+00  0.238500D-02
   s    10 1.00
  0.823600D+04 -0.113000D-03
  0.123500D+04 -0.878000D-03
  0.280800D+03 -0.454000D-02
  0.792700D+02 -0.181330D-01
  0.255900D+02 -0.557600D-01
  0.899700D+01 -0.126895D+00
  0.331900D+01 -0.170352D+00
  0.905900D+00  0.140382D+00
  0.364300D+00  0.598684D+00
  0.128500D+00  0.395389D+00
   s     1 1.00
  0.905900D+00  0.100000D+01
   s     1 1.00
  0.364300D+00  0.100000D+01
   p     5 1.00
  0.187100D+02  0.140310D-01
  0.413300D+01  0.868660D-01
  0.120000D+01  0.290216D+00
  0.382700D+00  0.501008D+00
  0.120900D+00  0.343406D+00
   p     1 1.00
  0.382700D+00  0.100000D+01
   p     1 1.00
  0.120900D+00  0.100000D+01
   d     1 1.00
  0.109700D+01  0.100000D+01
   d     1 1.00
  0.318000D+00  0.100000D+01
   f     1 1.00
  0.761000D+00  0.100000D+01
  
  8  0
   s     4 1.00
  0.130100D+02  0.196850D-01
  0.196200D+01  0.137977D+00
  0.444600D+00  0.478148D+00
  0.122000D+00  0.501240D+00
   s     1 1.00
  0.122000D+00  0.100000D+01
   p     1 1.00
  0.727000D+00  0.100000D+01
  
  9  0
   s     4 1.00
  0.130100D+02  0.196850D-01
  0.196200D+01  0.137977D+00
  0.444600D+00  0.478148D+00
  0.122000D+00  0.501240D+00
   s     1 1.00
  0.122000D+00  0.100000D+01
   p     1 1.00
  0.727000D+00  0.100000D+01
  
 10  0
   s     4 1.00
  0.130100D+02  0.196850D-01
  0.196200D+01  0.137977D+00
  0.444600D+00  0.478148D+00
  0.122000D+00  0.501240D+00
   s     1 1.00
  0.122000D+00  0.100000D+01
   p     1 1.00
  0.727000D+00  0.100000D+01
  
 11  0
   s     4 1.00
  0.130100D+02  0.196850D-01
  0.196200D+01  0.137977D+00
  0.444600D+00  0.478148D+00
  0.122000D+00  0.501240D+00
   s     1 1.00
  0.122000D+00  0.100000D+01
   p     1 1.00
  0.727000D+00  0.100000D+01
  
 12  0
   s     4 1.00
  0.130100D+02  0.196850D-01
  0.196200D+01  0.137977D+00
  0.444600D+00  0.478148D+00
  0.122000D+00  0.501240D+00
   s     1 1.00
  0.122000D+00  0.100000D+01
   p     1 1.00
  0.727000D+00  0.100000D+01
  
 13  0
   s     4 1.00
  0.130100D+02  0.196850D-01
  0.196200D+01  0.137977D+00
  0.444600D+00  0.478148D+00
  0.122000D+00  0.501240D+00
   s     1 1.00
  0.122000D+00  0.100000D+01
   p     1 1.00
  0.727000D+00  0.100000D+01
  
 14  0
   s     4 1.00
  0.130100D+02  0.196850D-01
  0.196200D+01  0.137977D+00
  0.444600D+00  0.478148D+00
  0.122000D+00  0.501240D+00
   s     1 1.00
  0.122000D+00  0.100000D+01
   p     1 1.00
  0.727000D+00  0.100000D+01
  
[MO]
 Sym= __1_A__
 Ene=   1.00000000000000     
 Spin= Alpha
 Occup=    1.00000000000000     
                     1  2.229531765959295E-004
                     2  0.998109893707926     
                     3 -1.015942426329679E-003
                     4  1.946152141341438E-003
                     5  6.742392263876362E-003
                     6  6.241969738674218E-003
                     7 -4.069020837243206E-003
                     8  5.418796197250286E-003
                     9 -9.703479953952916E-004
                    10  3.354084092323589E-004
                    11 -6.528298546301126E-004
                    12 -1.961319534307263E-003
                    13  2.586469961832429E-003
                    14 -3.029374509784819E-003
                    15  1.369219259747048E-005
                    16 -6.736425294449085E-005
                    17 -3.044257226003311E-005
                    18  3.744656098315416E-005
                    19  3.176356807684486E-005
                    20 -1.725077555479033E-004
                    21  5.193917396888339E-004
                    22 -2.304722858758114E-004
                    23  1.727959608335058E-004
                    24 -3.589872440235822E-004
                    25 -2.255649351119111E-005
                    26 -9.908729973632155E-005
                    27  5.352345581306405E-005
                    28  4.660079207189122E-005
                    29 -8.824445625815954E-006
                    30 -9.679429592553117E-005
                    31 -1.170045366375518E-005
                    32 -3.302612397282549E-004
                    33  4.968350436630587E-004
                    34  2.597056180642369E-004
                    35 -5.481486391732041E-005
                    36 -3.012364800428161E-003
                    37 -3.258463770496209E-004
                    38 -2.789062781505297E-004
                    39  1.981131468947954E-004
                    40 -9.673134982842745E-005
                    41  8.950690824603965E-004
                    42  4.727705079746124E-003
                    43  7.284842472402736E-004
                    44 -3.424118661672146E-003
                    45 -1.679836887633023E-004
                    46  2.316905624823747E-005
                    47  1.418647686695046E-005
                    48  1.690832490795507E-004
                    49  3.727103878486080E-005
                    50  5.443186312165111E-004
                    51  7.061810225889670E-004
                    52 -9.894797999056278E-005
                    53 -1.594529082827190E-004
                    54 -3.153235771448636E-004
                    55  4.136025871835404E-005
                    56 -4.134675241186588E-005
                    57 -3.264167078747979E-006
                    58  4.312153761963966E-005
                    59  8.953783139220646E-007
                    60 -3.500954418202438E-005
                    61  1.363627178174249E-005
                    62 -7.301587673603308E-004
                    63 -2.696346126992103E-003
                    64 -5.774584655151184E-005
                    65  2.581863405606346E-003
                    66  1.044027707955800E-004
                    67 -1.799823750135825E-004
                    68 -4.800320711807647E-004
                    69  8.691810079493540E-004
                    70 -5.201340165419809E-006
                    71  6.323675019139812E-004
                    72  1.659920436191726E-003
                    73 -4.583927172422459E-005
                    74 -1.511477493586951E-003
                    75 -5.674422765837600E-005
                    76 -3.902999459229547E-005
                    77  8.756946950901884E-006
                    78  7.934459331114402E-005
                    79  1.194083552064786E-006
                    80  4.519574093074573E-004
                    81  1.828290987944801E-004
                    82 -8.290905408801905E-005
                    83 -6.118687919772636E-005
                    84  4.808274053117843E-006
                    85 -2.434911427596020E-005
                    86 -1.404139693256584E-004
                    87  1.043797374261110E-005
                    88  8.827872202886648E-006
                    89  1.820086677431197E-005
                    90 -7.223627522990041E-005
                    91 -1.019274196414203E-005
                    92 -9.062675700091078E-006
                    93 -3.980847768644960E-004
                    94  2.853936484717610E-004
                    95 -1.009546511500735E-003
                    96  3.919110655845521E-004
                    97 -2.069387376564264E-004
                    98  2.815472799810405E-004
                    99  2.475103943944656E-004
                   100  3.450739739865864E-005
                   101  4.440267964408835E-004
                   102 -2.405577753918768E-003
                   103 -1.707913811244211E-004
                   104  1.629901350023116E-004
                   105 -5.527922474621212E-005
                   106 -4.927954422720131E-006
                   107 -1.413806444411580E-006
                   108  3.361595155260258E-005
                   109 -4.161250061572948E-006
                   110 -8.988542961795640E-005
                   111 -2.087649579971572E-004
                   112  2.353695047485295E-005
                   113 -2.357994640476848E-004
                   114  4.679164231510063E-005
                   115 -2.244503275824899E-005
                   116  4.123682149645554E-005
                   117  1.135683152453696E-005
                   118  1.809154005308325E-005
                   119 -1.155157796178999E-005
                   120 -1.041181362005486E-005
                   121 -6.584128463098288E-006
                   122 -3.146062267871972E-004
                   123 -8.552254210375026E-004
                   124  1.117737742854515E-004
                   125  9.147218024155212E-004
                   126 -3.621138040223799E-004
                   127 -5.201059512016664E-005
                   128 -3.717512111215844E-005
                   129  5.621272210355127E-004
                   130 -2.842867728034982E-005
                   131  2.806551902372750E-004
                   132  2.858649742458441E-003
                   133  4.194263848983656E-005
                   134  4.659716813927064E-004
                   135  3.270999963280471E-005
                   136 -6.424666381619089E-007
                   137 -4.793957897874210E-006
                   138 -1.792556323802408E-005
                   139  8.603273765139610E-006
                   140  2.532991839336863E-004
                   141  3.762195053783744E-004
                   142  1.250440128693921E-006
                   143 -3.879876072879758E-004
                   144 -2.858236759698322E-005
                   145 -3.714363271139430E-005
                   146 -2.409054860232385E-005
                   147 -3.717285880584817E-006
                   148 -1.434830085186594E-005
                   149 -5.105239213769792E-006
                   150 -8.464124693350612E-005
                   151 -1.458239495857592E-006
                   152 -1.387182448070976E-004
                   153 -2.654673973674221E-004
                   154 -3.738267215967961E-005
                   155  5.105653131603877E-004
                   156 -2.880106587432737E-004
                   157 -3.643570120662717E-005
                   158 -5.782489038505481E-005
                   159 -2.112006044914019E-004
                   160 -3.444520026593253E-005
                   161  2.517100573403906E-004
                   162 -1.168635559930951E-003
                   163 -1.042417980943780E-005
                   164  9.316513176655366E-004
                   165 -2.026754898612958E-005
                   166  9.281281776446605E-006
                   167  2.137033289779022E-006
                   168  1.853500269744587E-005
                   169  5.349294848433467E-006
                   170 -8.607021565569014E-005
                   171 -1.151011528381615E-005
                   172  1.253223669383001E-005
                   173  4.346431051833118E-005
                   174  7.897733232765624E-006
                   175 -1.306718557563776E-005
                   176 -4.123248023927141E-006
                   177 -7.042653597810409E-008
                   178 -7.661693676001897E-006
                   179  1.260490623844705E-007
                   180  4.956675357634036E-007
                   181 -2.864645505152371E-006
                   182 -1.565485859088244E-004
                   183 -4.861653596159584E-004
                   184  3.813263505940041E-005
                   185  2.024842592138595E-004
                   186 -1.993666836263277E-005
                   187  5.415862556613498E-006
                   188 -8.943766969535557E-005
                   189  9.155846101857212E-005
                   190 -1.576756993544074E-005
                   191  4.079944163599480E-004
                   192 -4.368844614326301E-004
                   193 -1.855935846933455E-004
                   194  2.205084014585345E-003
                   195 -5.723759459079904E-006
                   196  4.915525776661032E-006
                   197  4.413789587640186E-007
                   198  1.234121180273725E-006
                   199 -1.466579812071102E-007
                   200 -1.321297154243719E-004
                   201 -3.334047209027689E-004
                   202  1.465858983868848E-005
                   203  6.602030398462229E-005
                   204  2.847098282223181E-005
                   205  3.599159013257690E-006
                   206  3.582220089782640E-006
                   207 -7.266217948340670E-007
                   208  2.538542817723010E-005
                   209 -2.030563560337563E-006
                   210 -4.492056807300165E-006
                   211 -3.196802644712187E-006
                   212  9.142830778860572E-004
                   213 -1.299284382372187E-003
                   214  1.129942592034341E-004
                   215  3.315833720933745E-004
                   216  1.424781588841330E-005
                   217  1.764792934754803E-003
                   218 -1.669699324151669E-003
                   219  1.542295152155103E-004
                   220 -1.070044524994128E-006
                   221 -4.170751932972481E-004
                   222 -4.387374072072247E-004
                   223 -2.149723603322219E-004
                   224 -1.001146022472916E-004
                   225  2.086726490467836E-006
                   226  4.391164263977377E-005
                   227 -2.467521984157343E-004
                   228 -5.522671538052900E-004
                   229 -2.658577694775942E-005
                   230  1.351420247352965E-005
                   231 -5.187357348373635E-005
                   232  4.051850208022945E-005
                   233 -7.272538337556735E-004
                   234 -1.982689638327703E-006
                   235 -1.401951972956022E-006
                   236  5.079556521769236E-006
                   237 -1.200531682217178E-004
                   238 -2.365579212181322E-004
                   239  1.971490654956102E-005
                   240 -3.647220914474238E-006
                   241  2.257807296995595E-005
                   242 -2.240277093133594E-005
                   243  1.228299069785477E-004
                   244  3.069810812860875E-005
                   245  1.893171478512712E-006
                   246  1.749283888682011E-006
 Sym= __2_A__
 Ene=   2.00000000000000     
 Spin= Alpha
 Occup=    1.00000000000000     
                     1 -9.187740338801759E-007
                     2 -9.056128632477375E-005
                     3  1.430451544832526E-003
                     4 -2.265757644024679E-005
                     5  1.188790400333703E-003
                     6  1.519419220262404E-003
                     7 -7.680826056882826E-005
                     8 -1.657092076228474E-004
                     9 -1.566140889778347E-004
                    10  1.076927017645383E-004
                    11 -3.854475927652658E-005
                    12  1.731264679007054E-004
                    13  1.491460898143120E-004
                    14  2.052430760069351E-005
                    15 -5.980547628014157E-005
                    16  1.766768533590421E-005
                    17 -6.406459738887103E-006
                    18  4.667574376557208E-005
                    19 -8.655861884688868E-007
                    20  9.719606511679196E-005
                    21 -7.032195177701987E-005
                    22  2.794149861870790E-005
                    23  1.235281437732246E-004
                    24 -6.336350622851368E-005
                    25 -5.775414308953894E-005
                    26  1.264742059709763E-004
                    27  8.545746261772027E-006
                    28 -2.187083263692720E-005
                    29 -7.166296008935513E-006
                    30  1.231224107560143E-004
                    31  3.329580389001886E-005
                    32   1.00089499454675     
                    33  8.660968723277790E-003
                    34  2.839971113731937E-003
                    35 -8.385146686612282E-003
                    36 -2.005039010540484E-003
                    37  3.842841023981304E-004
                    38  8.778382704550872E-005
                    39  1.040798253419661E-003
                    40 -1.512887889542845E-004
                    41 -2.140632108335938E-004
                    42  2.898026541556324E-003
                    43 -1.170363414535743E-004
                    44 -1.219350837646644E-004
                    45  3.082824145982613E-004
                    46  1.599064083912813E-005
                    47 -5.543953347317041E-005
                    48  3.574415634526066E-004
                    49 -6.407352535059844E-006
                    50 -9.897194791177147E-004
                    51 -2.289157566679057E-004
                    52  1.550504297546467E-004
                    53 -1.524434212071923E-004
                    54  1.614201243230145E-005
                    55 -1.311888604835544E-005
                    56  2.753894733622081E-004
                    57 -1.015421716992523E-005
                    58 -2.248173816006452E-005
                    59 -2.008686402648603E-005
                    60  6.918492216312096E-005
                    61  1.118097417133259E-005
                    62  1.472632598871767E-002
                    63 -1.716978386725162E-003
                    64 -2.862999178480184E-004
                    65  2.905549185366934E-003
                    66 -1.956921069192787E-004
                    67  2.175429389786786E-005
                    68  3.390151915633807E-004
                    69  3.183505257053809E-005
                    70 -3.054841053922540E-005
                    71  3.624292090000206E-004
                    72  4.213385347882113E-004
                    73  1.645882665061460E-004
                    74 -1.781434491079995E-003
                    75 -1.284251200178296E-006
                    76  2.539200981037047E-005
                    77  5.222732835646563E-006
                    78 -4.154090236816888E-005
                    79 -2.643566120436941E-006
                    80 -4.772777211358763E-004
                    81 -3.969745936196309E-004
                    82  2.359173180158786E-005
                    83  7.939953343914234E-004
                    84  1.634505310561695E-005
                    85  4.110898462014020E-005
                    86  1.061270750794014E-004
                    87  1.631348132670588E-005
                    88 -2.098008304230788E-005
                    89 -2.127154852424101E-005
                    90 -2.456568422708665E-005
                    91  2.190784953556313E-006
                    92  1.664407127588835E-002
                    93 -1.675211839439518E-003
                    94 -3.375009643543667E-004
                    95  3.276287609313207E-003
                    96 -2.349546079506541E-004
                    97  7.287894956944210E-005
                    98 -3.284111665271704E-004
                    99 -6.015596136360156E-005
                   100  6.017977363329905E-005
                   101 -6.785928126635644E-004
                   102  1.120992300081353E-004
                   103 -1.161011400179286E-004
                   104  1.635373603603464E-003
                   105  4.706944192413302E-006
                   106 -1.113537426923301E-005
                   107  4.689952670146000E-007
                   108 -3.024354735219248E-005
                   109 -1.501908942177949E-006
                   110 -2.876022305767852E-004
                   111  4.884021292050824E-004
                   112 -3.156992634592394E-005
                   113  6.708512723801732E-004
                   114 -4.068166955489265E-005
                   115 -4.983655859088224E-005
                   116  9.302912747549277E-005
                   117 -8.717369848992227E-006
                   118  2.073736055559732E-005
                   119 -8.566577067511540E-006
                   120 -3.217126321048186E-005
                   121  6.939692486665140E-007
                   122 -1.094386630534647E-004
                   123 -7.660364800650892E-004
                   124  2.412348902035157E-004
                   125 -2.954131242734061E-004
                   126 -1.495938207348654E-004
                   127  1.215005900479489E-005
                   128 -5.404199151266995E-005
                   129  6.124776229111309E-004
                   130 -1.377551843122766E-005
                   131  7.651105029126417E-005
                   132  6.360291821715667E-004
                   133 -4.144447713233616E-005
                   134  4.181014881258382E-004
                   135  7.788826670367033E-007
                   136  3.918499504582973E-005
                   137  2.006201892068780E-006
                   138 -3.510491704886342E-005
                   139 -3.750358963762592E-006
                   140  1.971834528913637E-004
                   141 -2.667909441216883E-004
                   142 -5.110495380991666E-006
                   143 -2.434427844261234E-004
                   144  2.380956005640549E-005
                   145 -1.482280135334901E-005
                   146  1.399678400366051E-005
                   147 -2.415612508545308E-006
                   148 -7.780908565865660E-006
                   149 -3.710226795838344E-006
                   150 -2.105986651210369E-005
                   151  1.035061984682701E-006
                   152 -5.956414387096180E-005
                   153 -7.504472489570442E-004
                   154  2.454708964982745E-004
                   155 -2.674596803980823E-004
                   156 -1.247987392166465E-004
                   157 -6.232089213526138E-006
                   158  3.489307184262764E-005
                   159  5.285446295564594E-004
                   160  6.313006004575152E-006