[Molden Format]
[Atoms] AU
  N     1    7     0.0000000000   -4.2907334100    0.0000000000        
  C     2    6     0.0000000000   -1.7772236300    0.0000000000        
  C     3    6    -2.3389203600   -0.4111016300    0.0000000000        
  C     4    6     2.3389203600   -0.4111016300    0.0000000000        
  C     5    6    -2.2998668500    2.1639215300    0.0000000000        
  C     6    6     2.2998668500    2.1639215300    0.0000000000        
  C     7    6     0.0000000000    3.4755251800    0.0000000000        
  H     8    1    -2.7341110200   -5.9774504400    0.0000000000        
  H     9    1     1.6528040300   -5.3103747800    0.0000000000        
  H    10    1    -4.0745407300   -1.4447408500    0.0000000000        
  H    11    1     4.0745407300   -1.4447408500    0.0000000000        
  H    12    1    -4.0420632100    3.1963889500    0.0000000000        
  H    13    1     4.0420632100    3.1963889500    0.0000000000        
  H    14    1     0.0000000000    5.5020335600    0.0000000000        
[5D]
[7F]
[GTO]
  1  0
   s    12 1.00
  0.114200D+05  0.172695D-04
  0.171200D+04  0.134411D-03
  0.389300D+03  0.694561D-03
  0.110000D+03  0.278531D-02
  0.355700D+02  0.863457D-02
  0.125400D+02  0.199805D-01
  0.464400D+01  0.262908D-01
  0.129300D+01 -0.243845D-01
  0.511800D+00 -0.924934D-01
  0.178700D+00 -0.339683D+00
  0.246240D-01  0.345111D+00
  0.112530D-01  0.752750D+00
   s    10 1.00
  0.114200D+05  0.523000D-03
  0.171200D+04  0.404500D-02
  0.389300D+03  0.207750D-01
  0.110000D+03  0.807269D-01
  0.355700D+02  0.233074D+00
  0.125400D+02  0.433501D+00
  0.464400D+01  0.347472D+00
  0.129300D+01  0.412620D-01
  0.511800D+00 -0.850799D-02
  0.178700D+00  0.238400D-02
   s    10 1.00
  0.114200D+05 -0.115000D-03
  0.171200D+04 -0.895000D-03
  0.389300D+03 -0.462400D-02
  0.110000D+03 -0.185280D-01
  0.355700D+02 -0.573390D-01
  0.125400D+02 -0.132076D+00
  0.464400D+01 -0.172510D+00
  0.129300D+01  0.151814D+00
  0.511800D+00  0.599944D+00
  0.178700D+00  0.387462D+00
   s     1 1.00
  0.129300D+01  0.100000D+01
   s     1 1.00
  0.178700D+00  0.100000D+01
   p     5 1.00
  0.266300D+02  0.146700D-01
  0.594800D+01  0.917640D-01
  0.174200D+01  0.298683D+00
  0.555000D+00  0.498487D+00
  0.172500D+00  0.337023D+00
   p     1 1.00
  0.174200D+01  0.100000D+01
   p     1 1.00
  0.555000D+00  0.100000D+01
   d     1 1.00
  0.165400D+01  0.100000D+01
   d     1 1.00
  0.469000D+00  0.100000D+01
   f     1 1.00
  0.109300D+01  0.100000D+01
  
  2  0
   s    10 1.00
  0.823600D+04  0.531000D-03
  0.123500D+04  0.410800D-02
  0.280800D+03  0.210870D-01
  0.792700D+02  0.818530D-01
  0.255900D+02  0.234817D+00
  0.899700D+01  0.434401D+00
  0.331900D+01  0.346129D+00
  0.905900D+00  0.393780D-01
  0.364300D+00 -0.898300D-02
  0.128500D+00  0.238500D-02
   s    10 1.00
  0.823600D+04 -0.113000D-03
  0.123500D+04 -0.878000D-03
  0.280800D+03 -0.454000D-02
  0.792700D+02 -0.181330D-01
  0.255900D+02 -0.557600D-01
  0.899700D+01 -0.126895D+00
  0.331900D+01 -0.170352D+00
  0.905900D+00  0.140382D+00
  0.364300D+00  0.598684D+00
  0.128500D+00  0.395389D+00
   s     1 1.00
  0.905900D+00  0.100000D+01
   s     1 1.00
  0.364300D+00  0.100000D+01
   p     5 1.00
  0.187100D+02  0.140310D-01
  0.413300D+01  0.868660D-01
  0.120000D+01  0.290216D+00
  0.382700D+00  0.501008D+00
  0.120900D+00  0.343406D+00
   p     1 1.00
  0.382700D+00  0.100000D+01
   p     1 1.00
  0.120900D+00  0.100000D+01
   d     1 1.00
  0.109700D+01  0.100000D+01
   d     1 1.00
  0.318000D+00  0.100000D+01
   f     1 1.00
  0.761000D+00  0.100000D+01
  
  3  0
   s    10 1.00
  0.823600D+04  0.531000D-03
  0.123500D+04  0.410800D-02
  0.280800D+03  0.210870D-01
  0.792700D+02  0.818530D-01
  0.255900D+02  0.234817D+00
  0.899700D+01  0.434401D+00
  0.331900D+01  0.346129D+00
  0.905900D+00  0.393780D-01
  0.364300D+00 -0.898300D-02
  0.128500D+00  0.238500D-02
   s    10 1.00
  0.823600D+04 -0.113000D-03
  0.123500D+04 -0.878000D-03
  0.280800D+03 -0.454000D-02
  0.792700D+02 -0.181330D-01
  0.255900D+02 -0.557600D-01
  0.899700D+01 -0.126895D+00
  0.331900D+01 -0.170352D+00
  0.905900D+00  0.140382D+00
  0.364300D+00  0.598684D+00
  0.128500D+00  0.395389D+00
   s     1 1.00
  0.905900D+00  0.100000D+01
   s     1 1.00
  0.364300D+00  0.100000D+01
   p     5 1.00
  0.187100D+02  0.140310D-01
  0.413300D+01  0.868660D-01
  0.120000D+01  0.290216D+00
  0.382700D+00  0.501008D+00
  0.120900D+00  0.343406D+00
   p     1 1.00
  0.382700D+00  0.100000D+01
   p     1 1.00
  0.120900D+00  0.100000D+01
   d     1 1.00
  0.109700D+01  0.100000D+01
   d     1 1.00
  0.318000D+00  0.100000D+01
   f     1 1.00
  0.761000D+00  0.100000D+01
  
  4  0
   s    10 1.00
  0.823600D+04  0.531000D-03
  0.123500D+04  0.410800D-02
  0.280800D+03  0.210870D-01
  0.792700D+02  0.818530D-01
  0.255900D+02  0.234817D+00
  0.899700D+01  0.434401D+00
  0.331900D+01  0.346129D+00
  0.905900D+00  0.393780D-01
  0.364300D+00 -0.898300D-02
  0.128500D+00  0.238500D-02
   s    10 1.00
  0.823600D+04 -0.113000D-03
  0.123500D+04 -0.878000D-03
  0.280800D+03 -0.454000D-02
  0.792700D+02 -0.181330D-01
  0.255900D+02 -0.557600D-01
  0.899700D+01 -0.126895D+00
  0.331900D+01 -0.170352D+00
  0.905900D+00  0.140382D+00
  0.364300D+00  0.598684D+00
  0.128500D+00  0.395389D+00
   s     1 1.00
  0.905900D+00  0.100000D+01
   s     1 1.00
  0.364300D+00  0.100000D+01
   p     5 1.00
  0.187100D+02  0.140310D-01
  0.413300D+01  0.868660D-01
  0.120000D+01  0.290216D+00
  0.382700D+00  0.501008D+00
  0.120900D+00  0.343406D+00
   p     1 1.00
  0.382700D+00  0.100000D+01
   p     1 1.00
  0.120900D+00  0.100000D+01
   d     1 1.00
  0.109700D+01  0.100000D+01
   d     1 1.00
  0.318000D+00  0.100000D+01
   f     1 1.00
  0.761000D+00  0.100000D+01
  
  5  0
   s    10 1.00
  0.823600D+04  0.531000D-03
  0.123500D+04  0.410800D-02
  0.280800D+03  0.210870D-01
  0.792700D+02  0.818530D-01
  0.255900D+02  0.234817D+00
  0.899700D+01  0.434401D+00
  0.331900D+01  0.346129D+00
  0.905900D+00  0.393780D-01
  0.364300D+00 -0.898300D-02
  0.128500D+00  0.238500D-02
   s    10 1.00
  0.823600D+04 -0.113000D-03
  0.123500D+04 -0.878000D-03
  0.280800D+03 -0.454000D-02
  0.792700D+02 -0.181330D-01
  0.255900D+02 -0.557600D-01
  0.899700D+01 -0.126895D+00
  0.331900D+01 -0.170352D+00
  0.905900D+00  0.140382D+00
  0.364300D+00  0.598684D+00
  0.128500D+00  0.395389D+00
   s     1 1.00
  0.905900D+00  0.100000D+01
   s     1 1.00
  0.364300D+00  0.100000D+01
   p     5 1.00
  0.187100D+02  0.140310D-01
  0.413300D+01  0.868660D-01
  0.120000D+01  0.290216D+00
  0.382700D+00  0.501008D+00
  0.120900D+00  0.343406D+00
   p     1 1.00
  0.382700D+00  0.100000D+01
   p     1 1.00
  0.120900D+00  0.100000D+01
   d     1 1.00
  0.109700D+01  0.100000D+01
   d     1 1.00
  0.318000D+00  0.100000D+01
   f     1 1.00
  0.761000D+00  0.100000D+01
  
  6  0
   s    10 1.00
  0.823600D+04  0.531000D-03
  0.123500D+04  0.410800D-02
  0.280800D+03  0.210870D-01
  0.792700D+02  0.818530D-01
  0.255900D+02  0.234817D+00
  0.899700D+01  0.434401D+00
  0.331900D+01  0.346129D+00
  0.905900D+00  0.393780D-01
  0.364300D+00 -0.898300D-02
  0.128500D+00  0.238500D-02
   s    10 1.00
  0.823600D+04 -0.113000D-03
  0.123500D+04 -0.878000D-03
  0.280800D+03 -0.454000D-02
  0.792700D+02 -0.181330D-01
  0.255900D+02 -0.557600D-01
  0.899700D+01 -0.126895D+00
  0.331900D+01 -0.170352D+00
  0.905900D+00  0.140382D+00
  0.364300D+00  0.598684D+00
  0.128500D+00  0.395389D+00
   s     1 1.00
  0.905900D+00  0.100000D+01
   s     1 1.00
  0.364300D+00  0.100000D+01
   p     5 1.00
  0.187100D+02  0.140310D-01
  0.413300D+01  0.868660D-01
  0.120000D+01  0.290216D+00
  0.382700D+00  0.501008D+00
  0.120900D+00  0.343406D+00
   p     1 1.00
  0.382700D+00  0.100000D+01
   p     1 1.00
  0.120900D+00  0.100000D+01
   d     1 1.00
  0.109700D+01  0.100000D+01
   d     1 1.00
  0.318000D+00  0.100000D+01
   f     1 1.00
  0.761000D+00  0.100000D+01
  
  7  0
   s    10 1.00
  0.823600D+04  0.531000D-03
  0.123500D+04  0.410800D-02
  0.280800D+03  0.210870D-01
  0.792700D+02  0.818530D-01
  0.255900D+02  0.234817D+00
  0.899700D+01  0.434401D+00
  0.331900D+01  0.346129D+00
  0.905900D+00  0.393780D-01
  0.364300D+00 -0.898300D-02
  0.128500D+00  0.238500D-02
   s    10 1.00
  0.823600D+04 -0.113000D-03
  0.123500D+04 -0.878000D-03
  0.280800D+03 -0.454000D-02
  0.792700D+02 -0.181330D-01
  0.255900D+02 -0.557600D-01
  0.899700D+01 -0.126895D+00
  0.331900D+01 -0.170352D+00
  0.905900D+00  0.140382D+00
  0.364300D+00  0.598684D+00
  0.128500D+00  0.395389D+00
   s     1 1.00
  0.905900D+00  0.100000D+01
   s     1 1.00
  0.364300D+00  0.100000D+01
   p     5 1.00
  0.187100D+02  0.140310D-01
  0.413300D+01  0.868660D-01
  0.120000D+01  0.290216D+00
  0.382700D+00  0.501008D+00
  0.120900D+00  0.343406D+00
   p     1 1.00
  0.382700D+00  0.100000D+01
   p     1 1.00
  0.120900D+00  0.100000D+01
   d     1 1.00
  0.109700D+01  0.100000D+01
   d     1 1.00
  0.318000D+00  0.100000D+01
   f     1 1.00
  0.761000D+00  0.100000D+01
  
  8  0
   s     4 1.00
  0.130100D+02  0.196850D-01
  0.196200D+01  0.137977D+00
  0.444600D+00  0.478148D+00
  0.122000D+00  0.501240D+00
   s     1 1.00
  0.122000D+00  0.100000D+01
   p     1 1.00
  0.727000D+00  0.100000D+01
  
  9  0
   s     4 1.00
  0.130100D+02  0.196850D-01
  0.196200D+01  0.137977D+00
  0.444600D+00  0.478148D+00
  0.122000D+00  0.501240D+00
   s     1 1.00
  0.122000D+00  0.100000D+01
   p     1 1.00
  0.727000D+00  0.100000D+01
  
 10  0
   s     4 1.00
  0.130100D+02  0.196850D-01
  0.196200D+01  0.137977D+00
  0.444600D+00  0.478148D+00
  0.122000D+00  0.501240D+00
   s     1 1.00
  0.122000D+00  0.100000D+01
   p     1 1.00
  0.727000D+00  0.100000D+01
  
 11  0
   s     4 1.00
  0.130100D+02  0.196850D-01
  0.196200D+01  0.137977D+00
  0.444600D+00  0.478148D+00
  0.122000D+00  0.501240D+00
   s     1 1.00
  0.122000D+00  0.100000D+01
   p     1 1.00
  0.727000D+00  0.100000D+01
  
 12  0
   s     4 1.00
  0.130100D+02  0.196850D-01
  0.196200D+01  0.137977D+00
  0.444600D+00  0.478148D+00
  0.122000D+00  0.501240D+00
   s     1 1.00
  0.122000D+00  0.100000D+01
   p     1 1.00
  0.727000D+00  0.100000D+01
  
 13  0
   s     4 1.00
  0.130100D+02  0.196850D-01
  0.196200D+01  0.137977D+00
  0.444600D+00  0.478148D+00
  0.122000D+00  0.501240D+00
   s     1 1.00
  0.122000D+00  0.100000D+01
   p     1 1.00
  0.727000D+00  0.100000D+01
  
 14  0
   s     4 1.00
  0.130100D+02  0.196850D-01
  0.196200D+01  0.137977D+00
  0.444600D+00  0.478148D+00
  0.122000D+00  0.501240D+00
   s     1 1.00
  0.122000D+00  0.100000D+01
   p     1 1.00
  0.727000D+00  0.100000D+01
  
[MO]
 Sym= __1_A'_
 Ene=   1.00000000000000     
 Spin= Alpha
 Occup=    1.00000000000000     
                     1  7.515128080643918E-005
                     2  0.998364214575747     
                     3  2.229053421871997E-003
                     4  1.779169336377324E-003
                     5  4.807549108224744E-003
                     6  2.915934813902169E-003
                     7  5.784913537932940E-003
                     8  0.000000000000000E+000
                     9 -5.819656985785065E-004
                    10 -4.281861860379261E-004
                    11  0.000000000000000E+000
                    12 -2.229266953028139E-003
                    13 -1.275663550370421E-003
                    14  0.000000000000000E+000
                    15 -1.188174020923232E-004
                    16  0.000000000000000E+000
                    17  0.000000000000000E+000
                    18 -2.062550374319818E-004
                    19 -1.018651624089399E-004
                    20  1.890424190882141E-004
                    21  0.000000000000000E+000
                    22  0.000000000000000E+000
                    23 -2.271474433596348E-004
                    24  5.877816557209552E-004
                    25  0.000000000000000E+000
                    26 -3.258245276138563E-006
                    27 -5.370773581054928E-005
                    28  0.000000000000000E+000
                    29  0.000000000000000E+000
                    30  1.718906886063210E-005
                    31 -1.352682858630932E-004
                    32 -3.211472072810047E-004
                    33  1.408531481095479E-003
                    34  2.598213213458902E-004
                    35 -2.684164664453604E-004
                    36 -1.741354121623847E-004
                    37 -4.887346990809154E-003
                    38  0.000000000000000E+000
                    39  4.613474151716302E-004
                    40  2.677081199062491E-004
                    41  0.000000000000000E+000
                    42 -1.963665513805881E-003
                    43  5.154054262582041E-003
                    44  0.000000000000000E+000
                    45 -2.342073119924416E-005
                    46  0.000000000000000E+000
                    47  0.000000000000000E+000
                    48 -2.447907228002984E-004
                    49 -1.420002830543980E-005
                    50 -2.625261009414595E-004
                    51  0.000000000000000E+000
                    52  0.000000000000000E+000
                    53  8.383571577786391E-005
                    54  8.092366231708265E-004
                    55  0.000000000000000E+000
                    56 -1.292113723037565E-005
                    57 -4.949526466401607E-005
                    58  0.000000000000000E+000
                    59  0.000000000000000E+000
                    60 -9.937866219249166E-006
                    61 -1.255538298354170E-004
                    62 -4.538584336053555E-004
                    63 -2.159011846501994E-003
                    64 -8.166507850549556E-005
                    65  1.959463535847361E-003
                    66 -7.026535274430376E-004
                    67  5.301589322097155E-004
                    68  0.000000000000000E+000
                    69  4.442010868119283E-004
                    70  7.708635111889826E-004
                    71  0.000000000000000E+000
                    72 -1.604938516277055E-003
                    73  6.623603354288754E-004
                    74  0.000000000000000E+000
                    75 -3.966159896549707E-005
                    76  0.000000000000000E+000
                    77  0.000000000000000E+000
                    78 -8.543400025904982E-005
                    79 -3.180509968866111E-005
                    80 -1.234559763982142E-004
                    81  0.000000000000000E+000
                    82  0.000000000000000E+000
                    83  1.138474185606289E-004
                    84  1.234280895721676E-004
                    85  0.000000000000000E+000
                    86  1.233978430222445E-005
                    87 -4.662148086784101E-005
                    88  0.000000000000000E+000
                    89  0.000000000000000E+000
                    90 -1.737079002049978E-005
                    91 -1.446701120256180E-004
                    92 -1.329691992029240E-004
                    93 -1.052571499512931E-003
                    94  2.060745617058810E-004
                    95 -2.996086531130987E-004
                    96  5.852442387201497E-004
                    97  6.869764838557657E-004
                    98  0.000000000000000E+000
                    99  4.219258454985876E-004
                   100  3.398474717223109E-004
                   101  0.000000000000000E+000
                   102  4.737166344193443E-004
                   103 -1.309626601203007E-003
                   104  0.000000000000000E+000
                   105 -2.129563355739966E-006
                   106  0.000000000000000E+000
                   107  0.000000000000000E+000
                   108 -6.988819585857107E-005
                   109 -1.703640405514914E-005
                   110  1.212751629776232E-004
                   111  0.000000000000000E+000
                   112  0.000000000000000E+000
                   113 -1.225530710248931E-004
                   114 -7.209273867928473E-005
                   115  0.000000000000000E+000
                   116 -2.355317593672333E-005
                   117 -2.989495697690365E-005
                   118  0.000000000000000E+000
                   119  0.000000000000000E+000
                   120  1.215905849277488E-005
                   121 -2.829961262630581E-005
                   122 -2.502989627497591E-004
                   123 -4.740028096913323E-004
                   124  1.624827121654292E-004
                   125  3.600482381432271E-004
                   126 -4.106339475527529E-006
                   127 -5.660265383390077E-004
                   128  0.000000000000000E+000
                   129  1.550345046852846E-004
                   130  5.662986690454230E-004
                   131  0.000000000000000E+000
                   132  3.303305794475831E-004
                   133  1.854050859115083E-003
                   134  0.000000000000000E+000
                   135  1.245714010092460E-005
                   136  0.000000000000000E+000
                   137  0.000000000000000E+000
                   138  3.941109922595142E-005
                   139  6.155212873369440E-007
                   140  1.875445012533650E-004
                   141  0.000000000000000E+000
                   142  0.000000000000000E+000
                   143  3.331376099191616E-004
                   144  2.505481648238021E-004
                   145  0.000000000000000E+000
                   146 -8.019175440570097E-006
                   147 -5.750035671381419E-005
                   148  0.000000000000000E+000
                   149  0.000000000000000E+000
                   150 -1.908272678782719E-005
                   151 -4.632521636433669E-005
                   152 -1.724199796933825E-004
                   153 -2.326288105556168E-004
                   154  3.974891854266163E-005
                   155  3.665654432650257E-004
                   156 -3.021115477043676E-005
                   157 -5.040516779360046E-004
                   158  0.000000000000000E+000
                   159  1.483527777374234E-005
                   160  6.792828646495373E-005
                   161  0.000000000000000E+000
                   162  6.677152724009454E-004
                   163 -1.692128699899611E-004
                   164  0.000000000000000E+000
                   165 -2.424182407889164E-006
                   166  0.000000000000000E+000
                   167  0.000000000000000E+000
                   168 -7.105773417553644E-006
                   169  3.921230539034621E-006
                   170  6.223122507885464E-005
                   171  0.000000000000000E+000
                   172  0.000000000000000E+000
                   173  2.326165500328232E-005
                   174 -4.316165498263628E-005
                   175  0.000000000000000E+000
                   176  4.082941142539646E-006
                   177 -9.454471862001586E-006
                   178  0.000000000000000E+000
                   179  0.000000000000000E+000
                   180 -2.054333842211961E-005
                   181 -9.282322415600540E-006
                   182 -1.617892803213862E-004
                   183 -4.596736068235814E-004
                   184  4.523037412476678E-005
                   185  2.297464474574457E-004
                   186 -3.331294967680679E-005
                   187 -5.312605377243270E-005
                   188  0.000000000000000E+000
                   189  1.800997779410983E-004
                   190  5.981637359452913E-005
                   191  0.000000000000000E+000
                   192  1.146334732680030E-003
                   193 -1.496915164290482E-004
                   194  0.000000000000000E+000
                   195 -8.732546119401139E-007
                   196  0.000000000000000E+000
                   197  0.000000000000000E+000
                   198 -1.387222152848062E-005
                   199  6.063974032732787E-006
                   200  1.516407622424669E-005
                   201  0.000000000000000E+000
                   202  0.000000000000000E+000
                   203 -8.496677468679910E-005
                   204 -1.565999038111799E-004
                   205  0.000000000000000E+000
                   206 -4.699103355691835E-006
                   207 -5.338904861943522E-006
                   208  0.000000000000000E+000
                   209  0.000000000000000E+000
                   210  9.126981937400911E-006
                   211 -5.541266829503244E-006
                   212  1.824014481827247E-005
                   213  5.453754410066275E-005
                   214  9.298608200567174E-005
                   215  1.039059557790537E-004
                   216  0.000000000000000E+000
                   217  1.152222349142030E-003
                   218 -1.480609962543627E-003
                   219 -4.034689356391972E-004
                   220  2.006547769061567E-004
                   221  0.000000000000000E+000
                   222 -4.672345463565490E-004
                   223 -5.863063676336801E-004
                   224  4.956013115918973E-006
                   225 -7.024589192942283E-005
                   226  0.000000000000000E+000
                   227 -2.909605049245755E-004
                   228 -4.176147974259251E-004
                   229 -4.371477776480082E-006
                   230 -1.872726078814882E-005
                   231  0.000000000000000E+000
                   232 -8.574392346618779E-005
                   233 -5.298697464184081E-004
                   234  3.486739118816427E-006
                   235  2.229047217317829E-007
                   236  0.000000000000000E+000
                   237 -1.722972919718970E-004
                   238 -4.009685401784438E-004
                   239  7.485396877658204E-006
                   240  3.649508439868225E-006
                   241  0.000000000000000E+000
                   242  1.592742802698485E-005
                   243 -3.193982738683148E-005
                   244 -8.267986410402987E-007
                   245  2.205702438139046E-005
                   246  0.000000000000000E+000
 Sym= __2_A'_
 Ene=   2.00000000000000     
 Spin= Alpha
 Occup=    1.00000000000000     
                     1 -4.836339263964522E-005
                     2 -3.208398056133407E-004
                     3  2.685458809743979E-003
                     4  1.444612769112685E-004
                     5  1.359175691899165E-003
                     6 -3.530277323224939E-004
                     7  3.003091411171826E-003
                     8  0.000000000000000E+000
                     9 -7.561895193576180E-005
                    10 -1.052656581972058E-004
                    11  0.000000000000000E+000
                    12  1.201883003600328E-004
                    13 -4.389780518573279E-004
                    14  0.000000000000000E+000
                    15  3.328359280359354E-005
                    16  0.000000000000000E+000
                    17  0.000000000000000E+000
                    18 -4.806509941147796E-005
                    19  7.066869673119982E-006
                    20 -1.219319092939862E-004
                    21  0.000000000000000E+000
                    22  0.000000000000000E+000
                    23  1.780382293189388E-004
                    24 -9.442752155709598E-006
                    25  0.000000000000000E+000
                    26 -1.956648046125149E-005
                    27  8.815855333176098E-005
                    28  0.000000000000000E+000
                    29  0.000000000000000E+000
                    30 -2.203719926930526E-005
                    31  1.443065503872463E-004
                    32   1.00103141983173     
                    33  9.335492801553637E-003
                    34  2.716603779717228E-003
                    35 -8.122273085530304E-003
                    36 -1.084935369361951E-004
                    37 -3.569667550517035E-003
                    38  0.000000000000000E+000
                    39  1.186432405569009E-004
                    40  4.172350912027280E-004
                    41  0.000000000000000E+000
                    42  5.790104850099258E-005
                    43  4.239432586616665E-003
                    44  0.000000000000000E+000
                    45 -5.667503148312628E-004
                    46  0.000000000000000E+000
                    47  0.000000000000000E+000
                    48 -1.975479855836817E-004
                    49 -7.873021334474803E-006
                    50  5.482299413710664E-004
                    51  0.000000000000000E+000
                    52  0.000000000000000E+000
                    53 -9.186064575284840E-004
                    54  7.038729854642937E-005
                    55  0.000000000000000E+000
                    56 -3.142077087618902E-006
                    57  9.401554048764715E-005
                    58  0.000000000000000E+000
                    59  0.000000000000000E+000
                    60  3.299370981204446E-007
                    61  4.011324510247239E-004
                    62  9.087455113689897E-003
                    63 -2.084371968589594E-003
                    64 -2.971030472651261E-004
                    65  3.080124598890067E-003
                    66 -1.519166938753424E-005
                    67  1.038084929855528E-004
                    68  0.000000000000000E+000
                    69  7.420985004526758E-004
                    70 -1.504279417674234E-005
                    71  0.000000000000000E+000
                    72 -2.061840046295128E-003
                    73  5.782177348804332E-005
                    74  0.000000000000000E+000
                    75  2.563713172424769E-005
                    76  0.000000000000000E+000
                    77  0.000000000000000E+000
                    78 -2.394997736787890E-006
                    79  3.869577926510869E-007
                    80 -4.101406073369411E-004
                    81  0.000000000000000E+000
                    82  0.000000000000000E+000
                    83 -5.827579787568192E-004
                    84 -3.799320732065045E-004
                    85  0.000000000000000E+000
                    86  3.351417287244916E-005
                    87 -5.922079737244493E-005
                    88  0.000000000000000E+000
                    89  0.000000000000000E+000
                    90  5.171714036862884E-005
                    91  1.406476806171639E-004
                    92  9.868988062267471E-003
                    93 -2.067531028600959E-003
                    94 -2.843756112022010E-004
                    95  3.031448132264986E-003
                    96  9.708226069683057E-006
                    97  7.130477403954603E-005
                    98  0.000000000000000E+000
                    99 -6.640082812368808E-004
                   100  4.486092190489291E-005
                   101  0.000000000000000E+000
                   102  2.053505756663464E-003
                   103  6.797820749619474E-005
                   104  0.000000000000000E+000
                   105  3.022809069237344E-005
                   106  0.000000000000000E+000
                   107  0.000000000000000E+000
                   108 -3.845602661724038E-006
                   109 -7.433237458591353E-006
                   110 -4.135110089190194E-004
                   111  0.000000000000000E+000
                   112  0.000000000000000E+000
                   113 -6.209743388370708E-004
                   114  3.743336685722845E-004
                   115  0.000000000000000E+000
                   116 -3.164623567918585E-005
                   117 -5.948179441432004E-005
                   118  0.000000000000000E+000
                   119  0.000000000000000E+000
                   120 -4.938457322733230E-005
                   121  1.361826977826080E-004
                   122 -1.558825953820432E-004
                   123 -6.734821496039478E-004
                   124  2.240048412861578E-004
                   125 -9.945644208547785E-005
                   126 -3.347590442265303E-006
                   127 -3.342047323803805E-004
                   128  0.000000000000000E+000
                   129 -6.235679062903793E-005
                   130  5.334446915279897E-004
                   131  0.000000000000000E+000
                   132  3.117235620311910E-004
                   133  7.535522473412859E-004
                   134  0.000000000000000E+000
                   135  1.856934471462784E-005
                   136  0.000000000000000E+000
                   137  0.000000000000000E+000
                   138  3.887936086106650E-006
                   139  5.250731991070447E-005
                   140  1.375406529005500E-004
                   141  0.000000000000000E+000
                   142  0.000000000000000E+000
                   143  2.399880058894524E-004
                   144 -1.799112229786579E-004
                   145  0.000000000000000E+000
                   146  7.285864971118087E-006
                   147 -3.386201437500714E-005
                   148  0.000000000000000E+000
                   149  0.000000000000000E+000
                   150 -4.772231293915256E-005
                   151  2.862860352042096E-005
                   152 -1.333453190865449E-004
                   153 -6.823849772706808E-004
                   154  2.300021887196239E-004
                   155 -1.356176405988649E-004
                   156  1.766746730346696E-006
                   157 -3.258476947198390E-004
                   158  0.000000000000000E+000
                   159  4.216007443332454E-005
                   160  5.669461102995706E-004