[Molden Format]
[Atoms] AU
  N     1    7    -0.1128723800   -4.3599491100    0.0000000000        
  C     2    6     0.0332970300   -1.8107552000    0.0000000000        
  C     3    6    -2.2888031400   -0.4293657300    0.0000000000        
  C     4    6     2.3333895600   -0.3907474700    0.0000000000        
  C     5    6    -2.2784796700    2.1543768400    0.0000000000        
  C     6    6     2.3004224400    2.1862615400    0.0000000000        
  C     7    6     0.0035081600    3.4880013300    0.0000000000        
  H     8    1    -9.5297540700  -10.6750638800    0.0000000000        
  H     9    1     1.6899778300   -5.1122335100    0.0000000000        
  H    10    1    -4.0238475800   -1.4739702000    0.0000000000        
  H    11    1     4.0961208400   -1.3980125000    0.0000000000        
  H    12    1    -4.0310345400    3.1769820600    0.0000000000        
  H    13    1     4.0389129200    3.2330866500    0.0000000000        
  H    14    1    -0.0096481100    5.5163186100    0.0000000000        
[5D]
[7F]
[GTO]
  1  0
   s    12 1.00
  0.114200D+05  0.172695D-04
  0.171200D+04  0.134411D-03
  0.389300D+03  0.694561D-03
  0.110000D+03  0.278531D-02
  0.355700D+02  0.863457D-02
  0.125400D+02  0.199805D-01
  0.464400D+01  0.262908D-01
  0.129300D+01 -0.243845D-01
  0.511800D+00 -0.924934D-01
  0.178700D+00 -0.339683D+00
  0.246240D-01  0.345111D+00
  0.112530D-01  0.752750D+00
   s    10 1.00
  0.114200D+05  0.523000D-03
  0.171200D+04  0.404500D-02
  0.389300D+03  0.207750D-01
  0.110000D+03  0.807269D-01
  0.355700D+02  0.233074D+00
  0.125400D+02  0.433501D+00
  0.464400D+01  0.347472D+00
  0.129300D+01  0.412620D-01
  0.511800D+00 -0.850799D-02
  0.178700D+00  0.238400D-02
   s    10 1.00
  0.114200D+05 -0.115000D-03
  0.171200D+04 -0.895000D-03
  0.389300D+03 -0.462400D-02
  0.110000D+03 -0.185280D-01
  0.355700D+02 -0.573390D-01
  0.125400D+02 -0.132076D+00
  0.464400D+01 -0.172510D+00
  0.129300D+01  0.151814D+00
  0.511800D+00  0.599944D+00
  0.178700D+00  0.387462D+00
   s     1 1.00
  0.129300D+01  0.100000D+01
   s     1 1.00
  0.178700D+00  0.100000D+01
   p     5 1.00
  0.266300D+02  0.146700D-01
  0.594800D+01  0.917640D-01
  0.174200D+01  0.298683D+00
  0.555000D+00  0.498487D+00
  0.172500D+00  0.337023D+00
   p     1 1.00
  0.174200D+01  0.100000D+01
   p     1 1.00
  0.555000D+00  0.100000D+01
   d     1 1.00
  0.165400D+01  0.100000D+01
   d     1 1.00
  0.469000D+00  0.100000D+01
   f     1 1.00
  0.109300D+01  0.100000D+01
  
  2  0
   s    10 1.00
  0.823600D+04  0.531000D-03
  0.123500D+04  0.410800D-02
  0.280800D+03  0.210870D-01
  0.792700D+02  0.818530D-01
  0.255900D+02  0.234817D+00
  0.899700D+01  0.434401D+00
  0.331900D+01  0.346129D+00
  0.905900D+00  0.393780D-01
  0.364300D+00 -0.898300D-02
  0.128500D+00  0.238500D-02
   s    10 1.00
  0.823600D+04 -0.113000D-03
  0.123500D+04 -0.878000D-03
  0.280800D+03 -0.454000D-02
  0.792700D+02 -0.181330D-01
  0.255900D+02 -0.557600D-01
  0.899700D+01 -0.126895D+00
  0.331900D+01 -0.170352D+00
  0.905900D+00  0.140382D+00
  0.364300D+00  0.598684D+00
  0.128500D+00  0.395389D+00
   s     1 1.00
  0.905900D+00  0.100000D+01
   s     1 1.00
  0.364300D+00  0.100000D+01
   p     5 1.00
  0.187100D+02  0.140310D-01
  0.413300D+01  0.868660D-01
  0.120000D+01  0.290216D+00
  0.382700D+00  0.501008D+00
  0.120900D+00  0.343406D+00
   p     1 1.00
  0.382700D+00  0.100000D+01
   p     1 1.00
  0.120900D+00  0.100000D+01
   d     1 1.00
  0.109700D+01  0.100000D+01
   d     1 1.00
  0.318000D+00  0.100000D+01
   f     1 1.00
  0.761000D+00  0.100000D+01
  
  3  0
   s    10 1.00
  0.823600D+04  0.531000D-03
  0.123500D+04  0.410800D-02
  0.280800D+03  0.210870D-01
  0.792700D+02  0.818530D-01
  0.255900D+02  0.234817D+00
  0.899700D+01  0.434401D+00
  0.331900D+01  0.346129D+00
  0.905900D+00  0.393780D-01
  0.364300D+00 -0.898300D-02
  0.128500D+00  0.238500D-02
   s    10 1.00
  0.823600D+04 -0.113000D-03
  0.123500D+04 -0.878000D-03
  0.280800D+03 -0.454000D-02
  0.792700D+02 -0.181330D-01
  0.255900D+02 -0.557600D-01
  0.899700D+01 -0.126895D+00
  0.331900D+01 -0.170352D+00
  0.905900D+00  0.140382D+00
  0.364300D+00  0.598684D+00
  0.128500D+00  0.395389D+00
   s     1 1.00
  0.905900D+00  0.100000D+01
   s     1 1.00
  0.364300D+00  0.100000D+01
   p     5 1.00
  0.187100D+02  0.140310D-01
  0.413300D+01  0.868660D-01
  0.120000D+01  0.290216D+00
  0.382700D+00  0.501008D+00
  0.120900D+00  0.343406D+00
   p     1 1.00
  0.382700D+00  0.100000D+01
   p     1 1.00
  0.120900D+00  0.100000D+01
   d     1 1.00
  0.109700D+01  0.100000D+01
   d     1 1.00
  0.318000D+00  0.100000D+01
   f     1 1.00
  0.761000D+00  0.100000D+01
  
  4  0
   s    10 1.00
  0.823600D+04  0.531000D-03
  0.123500D+04  0.410800D-02
  0.280800D+03  0.210870D-01
  0.792700D+02  0.818530D-01
  0.255900D+02  0.234817D+00
  0.899700D+01  0.434401D+00
  0.331900D+01  0.346129D+00
  0.905900D+00  0.393780D-01
  0.364300D+00 -0.898300D-02
  0.128500D+00  0.238500D-02
   s    10 1.00
  0.823600D+04 -0.113000D-03
  0.123500D+04 -0.878000D-03
  0.280800D+03 -0.454000D-02
  0.792700D+02 -0.181330D-01
  0.255900D+02 -0.557600D-01
  0.899700D+01 -0.126895D+00
  0.331900D+01 -0.170352D+00
  0.905900D+00  0.140382D+00
  0.364300D+00  0.598684D+00
  0.128500D+00  0.395389D+00
   s     1 1.00
  0.905900D+00  0.100000D+01
   s     1 1.00
  0.364300D+00  0.100000D+01
   p     5 1.00
  0.187100D+02  0.140310D-01
  0.413300D+01  0.868660D-01
  0.120000D+01  0.290216D+00
  0.382700D+00  0.501008D+00
  0.120900D+00  0.343406D+00
   p     1 1.00
  0.382700D+00  0.100000D+01
   p     1 1.00
  0.120900D+00  0.100000D+01
   d     1 1.00
  0.109700D+01  0.100000D+01
   d     1 1.00
  0.318000D+00  0.100000D+01
   f     1 1.00
  0.761000D+00  0.100000D+01
  
  5  0
   s    10 1.00
  0.823600D+04  0.531000D-03
  0.123500D+04  0.410800D-02
  0.280800D+03  0.210870D-01
  0.792700D+02  0.818530D-01
  0.255900D+02  0.234817D+00
  0.899700D+01  0.434401D+00
  0.331900D+01  0.346129D+00
  0.905900D+00  0.393780D-01
  0.364300D+00 -0.898300D-02
  0.128500D+00  0.238500D-02
   s    10 1.00
  0.823600D+04 -0.113000D-03
  0.123500D+04 -0.878000D-03
  0.280800D+03 -0.454000D-02
  0.792700D+02 -0.181330D-01
  0.255900D+02 -0.557600D-01
  0.899700D+01 -0.126895D+00
  0.331900D+01 -0.170352D+00
  0.905900D+00  0.140382D+00
  0.364300D+00  0.598684D+00
  0.128500D+00  0.395389D+00
   s     1 1.00
  0.905900D+00  0.100000D+01
   s     1 1.00
  0.364300D+00  0.100000D+01
   p     5 1.00
  0.187100D+02  0.140310D-01
  0.413300D+01  0.868660D-01
  0.120000D+01  0.290216D+00
  0.382700D+00  0.501008D+00
  0.120900D+00  0.343406D+00
   p     1 1.00
  0.382700D+00  0.100000D+01
   p     1 1.00
  0.120900D+00  0.100000D+01
   d     1 1.00
  0.109700D+01  0.100000D+01
   d     1 1.00
  0.318000D+00  0.100000D+01
   f     1 1.00
  0.761000D+00  0.100000D+01
  
  6  0
   s    10 1.00
  0.823600D+04  0.531000D-03
  0.123500D+04  0.410800D-02
  0.280800D+03  0.210870D-01
  0.792700D+02  0.818530D-01
  0.255900D+02  0.234817D+00
  0.899700D+01  0.434401D+00
  0.331900D+01  0.346129D+00
  0.905900D+00  0.393780D-01
  0.364300D+00 -0.898300D-02
  0.128500D+00  0.238500D-02
   s    10 1.00
  0.823600D+04 -0.113000D-03
  0.123500D+04 -0.878000D-03
  0.280800D+03 -0.454000D-02
  0.792700D+02 -0.181330D-01
  0.255900D+02 -0.557600D-01
  0.899700D+01 -0.126895D+00
  0.331900D+01 -0.170352D+00
  0.905900D+00  0.140382D+00
  0.364300D+00  0.598684D+00
  0.128500D+00  0.395389D+00
   s     1 1.00
  0.905900D+00  0.100000D+01
   s     1 1.00
  0.364300D+00  0.100000D+01
   p     5 1.00
  0.187100D+02  0.140310D-01
  0.413300D+01  0.868660D-01
  0.120000D+01  0.290216D+00
  0.382700D+00  0.501008D+00
  0.120900D+00  0.343406D+00
   p     1 1.00
  0.382700D+00  0.100000D+01
   p     1 1.00
  0.120900D+00  0.100000D+01
   d     1 1.00
  0.109700D+01  0.100000D+01
   d     1 1.00
  0.318000D+00  0.100000D+01
   f     1 1.00
  0.761000D+00  0.100000D+01
  
  7  0
   s    10 1.00
  0.823600D+04  0.531000D-03
  0.123500D+04  0.410800D-02
  0.280800D+03  0.210870D-01
  0.792700D+02  0.818530D-01
  0.255900D+02  0.234817D+00
  0.899700D+01  0.434401D+00
  0.331900D+01  0.346129D+00
  0.905900D+00  0.393780D-01
  0.364300D+00 -0.898300D-02
  0.128500D+00  0.238500D-02
   s    10 1.00
  0.823600D+04 -0.113000D-03
  0.123500D+04 -0.878000D-03
  0.280800D+03 -0.454000D-02
  0.792700D+02 -0.181330D-01
  0.255900D+02 -0.557600D-01
  0.899700D+01 -0.126895D+00
  0.331900D+01 -0.170352D+00
  0.905900D+00  0.140382D+00
  0.364300D+00  0.598684D+00
  0.128500D+00  0.395389D+00
   s     1 1.00
  0.905900D+00  0.100000D+01
   s     1 1.00
  0.364300D+00  0.100000D+01
   p     5 1.00
  0.187100D+02  0.140310D-01
  0.413300D+01  0.868660D-01
  0.120000D+01  0.290216D+00
  0.382700D+00  0.501008D+00
  0.120900D+00  0.343406D+00
   p     1 1.00
  0.382700D+00  0.100000D+01
   p     1 1.00
  0.120900D+00  0.100000D+01
   d     1 1.00
  0.109700D+01  0.100000D+01
   d     1 1.00
  0.318000D+00  0.100000D+01
   f     1 1.00
  0.761000D+00  0.100000D+01
  
  8  0
   s     4 1.00
  0.130100D+02  0.196850D-01
  0.196200D+01  0.137977D+00
  0.444600D+00  0.478148D+00
  0.122000D+00  0.501240D+00
   s     1 1.00
  0.122000D+00  0.100000D+01
   p     1 1.00
  0.727000D+00  0.100000D+01
  
  9  0
   s     4 1.00
  0.130100D+02  0.196850D-01
  0.196200D+01  0.137977D+00
  0.444600D+00  0.478148D+00
  0.122000D+00  0.501240D+00
   s     1 1.00
  0.122000D+00  0.100000D+01
   p     1 1.00
  0.727000D+00  0.100000D+01
  
 10  0
   s     4 1.00
  0.130100D+02  0.196850D-01
  0.196200D+01  0.137977D+00
  0.444600D+00  0.478148D+00
  0.122000D+00  0.501240D+00
   s     1 1.00
  0.122000D+00  0.100000D+01
   p     1 1.00
  0.727000D+00  0.100000D+01
  
 11  0
   s     4 1.00
  0.130100D+02  0.196850D-01
  0.196200D+01  0.137977D+00
  0.444600D+00  0.478148D+00
  0.122000D+00  0.501240D+00
   s     1 1.00
  0.122000D+00  0.100000D+01
   p     1 1.00
  0.727000D+00  0.100000D+01
  
 12  0
   s     4 1.00
  0.130100D+02  0.196850D-01
  0.196200D+01  0.137977D+00
  0.444600D+00  0.478148D+00
  0.122000D+00  0.501240D+00
   s     1 1.00
  0.122000D+00  0.100000D+01
   p     1 1.00
  0.727000D+00  0.100000D+01
  
 13  0
   s     4 1.00
  0.130100D+02  0.196850D-01
  0.196200D+01  0.137977D+00
  0.444600D+00  0.478148D+00
  0.122000D+00  0.501240D+00
   s     1 1.00
  0.122000D+00  0.100000D+01
   p     1 1.00
  0.727000D+00  0.100000D+01
  
 14  0
   s     4 1.00
  0.130100D+02  0.196850D-01
  0.196200D+01  0.137977D+00
  0.444600D+00  0.478148D+00
  0.122000D+00  0.501240D+00
   s     1 1.00
  0.122000D+00  0.100000D+01
   p     1 1.00
  0.727000D+00  0.100000D+01
  
[MO]
 Sym= __1_A'_
 Ene=  0.000000000000000E+000
 Spin= Alpha
 Occup=    2.00000000000000     
                     1  1.421549797638415E-004
                     2  0.998338736340630     
                     3 -2.633714348349746E-003
                     4  1.838726040517016E-003
                     5  6.603233947182614E-003
                     6  2.830831683451498E-003
                     7  5.957831250198903E-003
                     8  0.000000000000000E+000
                     9 -6.939478937050983E-004
                    10 -7.264272793211941E-004
                    11  0.000000000000000E+000
                    12 -2.484528770117338E-003
                    13 -1.910599535955623E-003
                    14  0.000000000000000E+000
                    15 -2.670026931478783E-005
                    16  0.000000000000000E+000
                    17  0.000000000000000E+000
                    18 -1.532062156168795E-004
                    19 -5.777443431608804E-005
                    20  8.916414155548664E-005
                    21  0.000000000000000E+000
                    22  0.000000000000000E+000
                    23 -2.056593267871270E-004
                    24  5.024786844772168E-004
                    25  0.000000000000000E+000
                    26 -5.702690299766098E-006
                    27 -4.860945555974805E-005
                    28  0.000000000000000E+000
                    29  0.000000000000000E+000
                    30  3.804814388140938E-005
                    31 -1.076426122044868E-004
                    32 -4.007972490271757E-004
                    33  1.388295927435721E-004
                    34  3.148327550533251E-004
                    35 -5.266540454373445E-005
                    36 -4.919529222075613E-005
                    37 -2.731119210377368E-003
                    38  0.000000000000000E+000
                    39  3.751903056098894E-004
                    40  1.994941417370536E-004
                    41  0.000000000000000E+000
                    42 -2.061851126323594E-003
                    43  5.140393214927185E-003
                    44  0.000000000000000E+000
                    45  1.451554440579362E-006
                    46  0.000000000000000E+000
                    47  0.000000000000000E+000
                    48 -1.375471908109210E-004
                    49  2.051421497599663E-005
                    50 -2.008127389564485E-004
                    51  0.000000000000000E+000
                    52  0.000000000000000E+000
                    53  4.795457753944728E-005
                    54  7.748885447120201E-004
                    55  0.000000000000000E+000
                    56 -3.040054445540048E-006
                    57 -7.039093236699474E-005
                    58  0.000000000000000E+000
                    59  0.000000000000000E+000
                    60  2.482491105643317E-005
                    61 -1.224064926166440E-004
                    62 -5.638526938942680E-004
                    63 -2.259809239469274E-003
                    64 -8.553147495767912E-005
                    65  2.270671955121536E-003
                    66 -5.262549159346866E-004
                    67  1.622342506852914E-004
                    68  0.000000000000000E+000
                    69  3.892867937130864E-004
                    70  8.929384926634303E-004
                    71  0.000000000000000E+000
                    72 -1.695431429772238E-003
                    73  6.830847743022277E-004
                    74  0.000000000000000E+000
                    75 -4.301126652469115E-005
                    76  0.000000000000000E+000
                    77  0.000000000000000E+000
                    78 -6.492906287992462E-005
                    79 -2.008011858298576E-005
                    80 -1.328094694085055E-004
                    81  0.000000000000000E+000
                    82  0.000000000000000E+000
                    83  4.135683314923782E-005
                    84  1.657256285850717E-005
                    85  0.000000000000000E+000
                    86  8.165793479548284E-006
                    87 -4.621192145555424E-005
                    88  0.000000000000000E+000
                    89  0.000000000000000E+000
                    90 -2.473173840686188E-005
                    91 -1.538763516867810E-004
                    92 -1.834063756570780E-004
                    93 -6.698787413400848E-004
                    94  1.556835686129464E-004
                    95 -4.655361286535834E-005
                    96  2.251127232224532E-004
                    97  8.500501288614505E-006
                    98  0.000000000000000E+000
                    99  3.374838685950218E-004
                   100  3.977431245283102E-004
                   101  0.000000000000000E+000
                   102  6.591588465169483E-004
                   103 -1.785042036015205E-003
                   104  0.000000000000000E+000
                   105 -1.199793607983628E-005
                   106  0.000000000000000E+000
                   107  0.000000000000000E+000
                   108 -4.669058310825496E-005
                   109 -1.325224000354578E-005
                   110  8.423669417819148E-005
                   111  0.000000000000000E+000
                   112  0.000000000000000E+000
                   113 -1.673877497301625E-004
                   114  8.538607251921210E-005
                   115  0.000000000000000E+000
                   116 -1.986109294303921E-005
                   117 -2.260886242699045E-005
                   118  0.000000000000000E+000
                   119  0.000000000000000E+000
                   120 -1.218213231594790E-005
                   121 -3.729965568017171E-005
                   122 -2.426365177136248E-004
                   123 -5.857479330949135E-004
                   124  1.650505103936608E-004
                   125  3.294923188354480E-004
                   126 -3.311637553317977E-005
                   127 -3.432329680591042E-004
                   128  0.000000000000000E+000
                   129  2.463817820254427E-004
                   130  6.537899048364137E-004
                   131  0.000000000000000E+000
                   132  3.831444432716836E-004
                   133  2.029381914220193E-003
                   134  0.000000000000000E+000
                   135  1.322364877363158E-005
                   136  0.000000000000000E+000
                   137  0.000000000000000E+000
                   138  4.565969277760502E-005
                   139 -1.680197348073993E-006
                   140  2.051133080163645E-004
                   141  0.000000000000000E+000
                   142  0.000000000000000E+000
                   143  4.051623633987962E-004
                   144  2.396417200324755E-004
                   145  0.000000000000000E+000
                   146 -1.256601859791070E-005
                   147 -6.524496534665311E-005
                   148  0.000000000000000E+000
                   149  0.000000000000000E+000
                   150 -1.350945668892290E-005
                   151 -5.330070679371270E-005
                   152 -1.298863163185762E-004
                   153 -3.524850591150969E-004
                   154  5.516468091643516E-005
                   155  1.879453191104744E-004
                   156  1.042841802564446E-005
                   157 -8.945447209136928E-005
                   158  0.000000000000000E+000
                   159  1.168308525524776E-005
                   160  6.361492478219687E-005
                   161  0.000000000000000E+000
                   162  7.296494267546075E-004
                   163 -3.613922621389751E-004
                   164  0.000000000000000E+000
                   165  1.921209209109691E-006
                   166  0.000000000000000E+000
                   167  0.000000000000000E+000
                   168  3.153206307075818E-006
                   169  9.655618142959296E-006
                   170  1.081142706424684E-004
                   171  0.000000000000000E+000
                   172  0.000000000000000E+000
                   173  5.671880616673894E-005
                   174  2.643546556158599E-005
                   175  0.000000000000000E+000
                   176  3.037606355284383E-006
                   177 -1.508252663099198E-005
                   178  0.000000000000000E+000
                   179  0.000000000000000E+000
                   180 -2.071889294433684E-005
                   181 -3.050817039561416E-005
                   182 -1.338889973142429E-004
                   183 -3.895153962823414E-004
                   184  3.310445652700697E-005
                   185  1.843547104661757E-004
                   186 -5.059967701027952E-005
                   187 -6.476824546868841E-005
                   188  0.000000000000000E+000
                   189  2.739030942710892E-004
                   190  1.259952371637112E-004
                   191  0.000000000000000E+000
                   192  1.346147996601337E-003
                   193 -3.506883266290711E-004
                   194  0.000000000000000E+000
                   195  1.782301272622112E-006
                   196  0.000000000000000E+000
                   197  0.000000000000000E+000
                   198 -3.761170028084872E-006
                   199  4.103691510396443E-006
                   200 -7.244811663817194E-006
                   201  0.000000000000000E+000
                   202  0.000000000000000E+000
                   203 -8.314649065991834E-005
                   204 -2.036460933871026E-004
                   205  0.000000000000000E+000
                   206 -1.055905894661457E-005
                   207 -4.563344491381633E-006
                   208  0.000000000000000E+000
                   209  0.000000000000000E+000
                   210  7.458606119747274E-006
                   211 -2.885003931267092E-006
                   212  1.310235445670992E-005
                   213 -2.500215250912787E-005
                   214 -8.761112088782413E-007
                   215 -5.863295978065305E-007
                   216  0.000000000000000E+000
                   217 -8.623723845054923E-004
                   218 -6.626826199553528E-004
                   219 -2.394030906289796E-004
                   220  6.468161473479433E-005
                   221  0.000000000000000E+000
                   222 -2.106147682608451E-004
                   223 -5.568191005458401E-004
                   224  2.477621957312128E-005
                   225 -5.819474437242423E-005
                   226  0.000000000000000E+000
                   227  6.823019384010337E-005
                   228 -7.118785885838090E-004
                   229 -4.593423400373965E-005
                   230 -1.338895321857497E-005
                   231  0.000000000000000E+000
                   232  4.234419477712363E-006
                   233 -5.369658774714108E-004
                   234  1.253529936422637E-005
                   235 -3.655509306219515E-006
                   236  0.000000000000000E+000
                   237  7.883303268966098E-006
                   238 -3.724358780518649E-004
                   239 -6.080049515268763E-006
                   240 -1.556484175508775E-006
                   241  0.000000000000000E+000
                   242 -6.438610210323945E-005
                   243  9.924764687865768E-005
                   244  2.260874518577719E-007
                   245  3.160438929226056E-005
                   246  0.000000000000000E+000
 Sym= __2_A'_
 Ene=  0.000000000000000E+000
 Spin= Alpha
 Occup=    2.00000000000000     
                     1  1.363432021278261E-005
                     2  2.820515557447880E-004
                     3 -3.565743934051843E-003
                     4 -9.734163165561420E-005
                     5 -1.476401033180469E-003
                     6  9.749786249881553E-004
                     7 -3.873742988185782E-003
                     8  0.000000000000000E+000
                     9 -8.790765325363463E-006
                    10  8.692202749674031E-005
                    11  0.000000000000000E+000
                    12 -3.378908842118443E-005
                    13  2.325356308382520E-004
                    14  0.000000000000000E+000
                    15 -1.828167080872951E-005
                    16  0.000000000000000E+000
                    17  0.000000000000000E+000
                    18  8.007560029967822E-005
                    19 -3.339216671329006E-005
                    20  1.472519989688794E-004
                    21  0.000000000000000E+000
                    22  0.000000000000000E+000
                    23 -2.916217638267562E-005
                    24  1.555635772288888E-004
                    25  0.000000000000000E+000
                    26  1.256782088470195E-005
                    27 -8.166746752112926E-005
                    28  0.000000000000000E+000
                    29  0.000000000000000E+000
                    30  7.362294581444039E-005
                    31 -1.347778262551809E-004
                    32  -1.00074950632097     
                    33 -9.314418847066621E-003
                    34 -2.840973434136467E-003
                    35  8.125368483318567E-003
                    36  3.945643712102250E-004
                    37  4.431152519099651E-003
                    38  0.000000000000000E+000
                    39  2.210987705355008E-004
                    40 -3.716109053358789E-004
                    41  0.000000000000000E+000
                    42 -4.337000831417037E-005
                    43 -4.453749452167692E-003
                    44  0.000000000000000E+000
                    45  5.178138470154473E-004
                    46  0.000000000000000E+000
                    47  0.000000000000000E+000
                    48  2.101264782585262E-004
                    49 -5.035944961413646E-005
                    50 -5.621899516867271E-004
                    51  0.000000000000000E+000
                    52  0.000000000000000E+000
                    53  6.910395929771718E-004
                    54  4.865981344894131E-004
                    55  0.000000000000000E+000
                    56 -2.206755608595219E-005
                    57 -9.922311166985130E-005
                    58  0.000000000000000E+000
                    59  0.000000000000000E+000
                    60  4.332723605307601E-005
                    61 -3.762204782636005E-004
                    62 -1.431603828404590E-002
                    63  2.274430093561161E-003
                    64  2.075064702280996E-004
                    65 -2.657919105105184E-003
                    66  1.223367840569989E-004
                    67 -3.483654075742879E-004
                    68  0.000000000000000E+000
                    69 -4.455546405527101E-004
                    70 -1.420695226842773E-004
                    71  0.000000000000000E+000
                    72  2.043024193833249E-003
                    73 -2.528950180485740E-004
                    74  0.000000000000000E+000
                    75 -3.872285047875245E-005
                    76  0.000000000000000E+000
                    77  0.000000000000000E+000
                    78  2.877416085755156E-005
                    79 -5.842333222902404E-006
                    80  4.182879339533007E-004
                    81  0.000000000000000E+000
                    82  0.000000000000000E+000
                    83  7.149477854570484E-004
                    84  2.373544806973087E-004
                    85  0.000000000000000E+000
                    86 -3.127690279911689E-005
                    87  5.659451767602633E-005
                    88  0.000000000000000E+000
                    89  0.000000000000000E+000
                    90 -5.366649734334324E-005
                    91 -1.535647085186229E-004
                    92 -1.850365431537919E-002
                    93  2.364241529337801E-003
                    94  3.003379463925127E-004
                    95 -3.299916359120273E-003
                    96 -5.614176384966062E-004
                    97 -5.408551198639508E-004
                    98  0.000000000000000E+000
                    99  9.966984856811451E-004
                   100  3.498600825354950E-006
                   101  0.000000000000000E+000
                   102 -1.805580301399117E-003
                   103  5.171469455868159E-005
                   104  0.000000000000000E+000
                   105 -2.278037821619272E-005
                   106  0.000000000000000E+000
                   107  0.000000000000000E+000
                   108  2.632439847414210E-005
                   109  2.814256407193659E-006
                   110  4.165471817658574E-004
                   111  0.000000000000000E+000
                   112  0.000000000000000E+000
                   113  4.006346458690180E-004
                   114 -2.432835173126289E-004
                   115  0.000000000000000E+000
                   116  3.694525114159077E-005
                   117  7.588433037011671E-005
                   118  0.000000000000000E+000
                   119  0.000000000000000E+000
                   120  1.070558366013959E-005
                   121 -1.346045708292430E-004
                   122 -1.658440273507056E-004
                   123  5.744201626709299E-004
                   124 -2.220887131893232E-004
                   125  1.005644198827793E-004
                   126  1.201290389440314E-005
                   127  5.666641185558033E-004
                   128  0.000000000000000E+000
                   129  6.238836029543949E-005
                   130 -6.250983665115944E-004
                   131  0.000000000000000E+000
                   132 -3.101859176616600E-004
                   133 -9.487092308330718E-004
                   134  0.000000000000000E+000
                   135 -1.707387992436315E-005
                   136  0.000000000000000E+000
                   137  0.000000000000000E+000
                   138  8.087333206835028E-007
                   139 -4.866182911651127E-005
                   140 -1.210173011424672E-004
                   141  0.000000000000000E+000
                   142  0.000000000000000E+000
                   143 -2.558740259840580E-004
                   144  9.712603751482963E-005
                   145  0.000000000000000E+000
                   146 -8.789975127065049E-006
                   147  3.422070430922921E-005
                   148  0.000000000000000E+000
                   149  0.000000000000000E+000
                   150  4.614525735926346E-005
                   151 -3.984596272252163E-005
                   152 -5.785991670915893E-004
                   153  5.098172043503840E-004
                   154 -2.296738021969391E-004
                   155  3.733135198869030E-005
                   156  7.317355646860175E-005
                   157  6.634628650931045E-004
                   158  0.000000000000000E+000
                   159 -1.420938516415161E-004
                   160 -5.744960230158048E-004