[Molden Format]
[Atoms] AU
  N     1    7    -0.1128723800   -4.3599491100    0.0000000000        
  C     2    6     0.0332970300   -1.8107552000    0.0000000000        
  C     3    6    -2.2888031400   -0.4293657300    0.0000000000        
  C     4    6     2.3333895600   -0.3907474700    0.0000000000        
  C     5    6    -2.2784796700    2.1543768400    0.0000000000        
  C     6    6     2.3004224400    2.1862615400    0.0000000000        
  C     7    6     0.0035081600    3.4880013300    0.0000000000        
  H     8    1    -9.5297540700  -10.6750638800    0.0000000000        
  H     9    1     1.6899778300   -5.1122335100    0.0000000000        
  H    10    1    -4.0238475800   -1.4739702000    0.0000000000        
  H    11    1     4.0961208400   -1.3980125000    0.0000000000        
  H    12    1    -4.0310345400    3.1769820600    0.0000000000        
  H    13    1     4.0389129200    3.2330866500    0.0000000000        
  H    14    1    -0.0096481100    5.5163186100    0.0000000000        
[5D]
[7F]
[GTO]
  1  0
   s    12 1.00
  0.114200D+05  0.172695D-04
  0.171200D+04  0.134411D-03
  0.389300D+03  0.694561D-03
  0.110000D+03  0.278531D-02
  0.355700D+02  0.863457D-02
  0.125400D+02  0.199805D-01
  0.464400D+01  0.262908D-01
  0.129300D+01 -0.243845D-01
  0.511800D+00 -0.924934D-01
  0.178700D+00 -0.339683D+00
  0.246240D-01  0.345111D+00
  0.112530D-01  0.752750D+00
   s    10 1.00
  0.114200D+05  0.523000D-03
  0.171200D+04  0.404500D-02
  0.389300D+03  0.207750D-01
  0.110000D+03  0.807269D-01
  0.355700D+02  0.233074D+00
  0.125400D+02  0.433501D+00
  0.464400D+01  0.347472D+00
  0.129300D+01  0.412620D-01
  0.511800D+00 -0.850799D-02
  0.178700D+00  0.238400D-02
   s    10 1.00
  0.114200D+05 -0.115000D-03
  0.171200D+04 -0.895000D-03
  0.389300D+03 -0.462400D-02
  0.110000D+03 -0.185280D-01
  0.355700D+02 -0.573390D-01
  0.125400D+02 -0.132076D+00
  0.464400D+01 -0.172510D+00
  0.129300D+01  0.151814D+00
  0.511800D+00  0.599944D+00
  0.178700D+00  0.387462D+00
   s     1 1.00
  0.129300D+01  0.100000D+01
   s     1 1.00
  0.178700D+00  0.100000D+01
   p     5 1.00
  0.266300D+02  0.146700D-01
  0.594800D+01  0.917640D-01
  0.174200D+01  0.298683D+00
  0.555000D+00  0.498487D+00
  0.172500D+00  0.337023D+00
   p     1 1.00
  0.174200D+01  0.100000D+01
   p     1 1.00
  0.555000D+00  0.100000D+01
   d     1 1.00
  0.165400D+01  0.100000D+01
   d     1 1.00
  0.469000D+00  0.100000D+01
   f     1 1.00
  0.109300D+01  0.100000D+01
  
  2  0
   s    10 1.00
  0.823600D+04  0.531000D-03
  0.123500D+04  0.410800D-02
  0.280800D+03  0.210870D-01
  0.792700D+02  0.818530D-01
  0.255900D+02  0.234817D+00
  0.899700D+01  0.434401D+00
  0.331900D+01  0.346129D+00
  0.905900D+00  0.393780D-01
  0.364300D+00 -0.898300D-02
  0.128500D+00  0.238500D-02
   s    10 1.00
  0.823600D+04 -0.113000D-03
  0.123500D+04 -0.878000D-03
  0.280800D+03 -0.454000D-02
  0.792700D+02 -0.181330D-01
  0.255900D+02 -0.557600D-01
  0.899700D+01 -0.126895D+00
  0.331900D+01 -0.170352D+00
  0.905900D+00  0.140382D+00
  0.364300D+00  0.598684D+00
  0.128500D+00  0.395389D+00
   s     1 1.00
  0.905900D+00  0.100000D+01
   s     1 1.00
  0.364300D+00  0.100000D+01
   p     5 1.00
  0.187100D+02  0.140310D-01
  0.413300D+01  0.868660D-01
  0.120000D+01  0.290216D+00
  0.382700D+00  0.501008D+00
  0.120900D+00  0.343406D+00
   p     1 1.00
  0.382700D+00  0.100000D+01
   p     1 1.00
  0.120900D+00  0.100000D+01
   d     1 1.00
  0.109700D+01  0.100000D+01
   d     1 1.00
  0.318000D+00  0.100000D+01
   f     1 1.00
  0.761000D+00  0.100000D+01
  
  3  0
   s    10 1.00
  0.823600D+04  0.531000D-03
  0.123500D+04  0.410800D-02
  0.280800D+03  0.210870D-01
  0.792700D+02  0.818530D-01
  0.255900D+02  0.234817D+00
  0.899700D+01  0.434401D+00
  0.331900D+01  0.346129D+00
  0.905900D+00  0.393780D-01
  0.364300D+00 -0.898300D-02
  0.128500D+00  0.238500D-02
   s    10 1.00
  0.823600D+04 -0.113000D-03
  0.123500D+04 -0.878000D-03
  0.280800D+03 -0.454000D-02
  0.792700D+02 -0.181330D-01
  0.255900D+02 -0.557600D-01
  0.899700D+01 -0.126895D+00
  0.331900D+01 -0.170352D+00
  0.905900D+00  0.140382D+00
  0.364300D+00  0.598684D+00
  0.128500D+00  0.395389D+00
   s     1 1.00
  0.905900D+00  0.100000D+01
   s     1 1.00
  0.364300D+00  0.100000D+01
   p     5 1.00
  0.187100D+02  0.140310D-01
  0.413300D+01  0.868660D-01
  0.120000D+01  0.290216D+00
  0.382700D+00  0.501008D+00
  0.120900D+00  0.343406D+00
   p     1 1.00
  0.382700D+00  0.100000D+01
   p     1 1.00
  0.120900D+00  0.100000D+01
   d     1 1.00
  0.109700D+01  0.100000D+01
   d     1 1.00
  0.318000D+00  0.100000D+01
   f     1 1.00
  0.761000D+00  0.100000D+01
  
  4  0
   s    10 1.00
  0.823600D+04  0.531000D-03
  0.123500D+04  0.410800D-02
  0.280800D+03  0.210870D-01
  0.792700D+02  0.818530D-01
  0.255900D+02  0.234817D+00
  0.899700D+01  0.434401D+00
  0.331900D+01  0.346129D+00
  0.905900D+00  0.393780D-01
  0.364300D+00 -0.898300D-02
  0.128500D+00  0.238500D-02
   s    10 1.00
  0.823600D+04 -0.113000D-03
  0.123500D+04 -0.878000D-03
  0.280800D+03 -0.454000D-02
  0.792700D+02 -0.181330D-01
  0.255900D+02 -0.557600D-01
  0.899700D+01 -0.126895D+00
  0.331900D+01 -0.170352D+00
  0.905900D+00  0.140382D+00
  0.364300D+00  0.598684D+00
  0.128500D+00  0.395389D+00
   s     1 1.00
  0.905900D+00  0.100000D+01
   s     1 1.00
  0.364300D+00  0.100000D+01
   p     5 1.00
  0.187100D+02  0.140310D-01
  0.413300D+01  0.868660D-01
  0.120000D+01  0.290216D+00
  0.382700D+00  0.501008D+00
  0.120900D+00  0.343406D+00
   p     1 1.00
  0.382700D+00  0.100000D+01
   p     1 1.00
  0.120900D+00  0.100000D+01
   d     1 1.00
  0.109700D+01  0.100000D+01
   d     1 1.00
  0.318000D+00  0.100000D+01
   f     1 1.00
  0.761000D+00  0.100000D+01
  
  5  0
   s    10 1.00
  0.823600D+04  0.531000D-03
  0.123500D+04  0.410800D-02
  0.280800D+03  0.210870D-01
  0.792700D+02  0.818530D-01
  0.255900D+02  0.234817D+00
  0.899700D+01  0.434401D+00
  0.331900D+01  0.346129D+00
  0.905900D+00  0.393780D-01
  0.364300D+00 -0.898300D-02
  0.128500D+00  0.238500D-02
   s    10 1.00
  0.823600D+04 -0.113000D-03
  0.123500D+04 -0.878000D-03
  0.280800D+03 -0.454000D-02
  0.792700D+02 -0.181330D-01
  0.255900D+02 -0.557600D-01
  0.899700D+01 -0.126895D+00
  0.331900D+01 -0.170352D+00
  0.905900D+00  0.140382D+00
  0.364300D+00  0.598684D+00
  0.128500D+00  0.395389D+00
   s     1 1.00
  0.905900D+00  0.100000D+01
   s     1 1.00
  0.364300D+00  0.100000D+01
   p     5 1.00
  0.187100D+02  0.140310D-01
  0.413300D+01  0.868660D-01
  0.120000D+01  0.290216D+00
  0.382700D+00  0.501008D+00
  0.120900D+00  0.343406D+00
   p     1 1.00
  0.382700D+00  0.100000D+01
   p     1 1.00
  0.120900D+00  0.100000D+01
   d     1 1.00
  0.109700D+01  0.100000D+01
   d     1 1.00
  0.318000D+00  0.100000D+01
   f     1 1.00
  0.761000D+00  0.100000D+01
  
  6  0
   s    10 1.00
  0.823600D+04  0.531000D-03
  0.123500D+04  0.410800D-02
  0.280800D+03  0.210870D-01
  0.792700D+02  0.818530D-01
  0.255900D+02  0.234817D+00
  0.899700D+01  0.434401D+00
  0.331900D+01  0.346129D+00
  0.905900D+00  0.393780D-01
  0.364300D+00 -0.898300D-02
  0.128500D+00  0.238500D-02
   s    10 1.00
  0.823600D+04 -0.113000D-03
  0.123500D+04 -0.878000D-03
  0.280800D+03 -0.454000D-02
  0.792700D+02 -0.181330D-01
  0.255900D+02 -0.557600D-01
  0.899700D+01 -0.126895D+00
  0.331900D+01 -0.170352D+00
  0.905900D+00  0.140382D+00
  0.364300D+00  0.598684D+00
  0.128500D+00  0.395389D+00
   s     1 1.00
  0.905900D+00  0.100000D+01
   s     1 1.00
  0.364300D+00  0.100000D+01
   p     5 1.00
  0.187100D+02  0.140310D-01
  0.413300D+01  0.868660D-01
  0.120000D+01  0.290216D+00
  0.382700D+00  0.501008D+00
  0.120900D+00  0.343406D+00
   p     1 1.00
  0.382700D+00  0.100000D+01
   p     1 1.00
  0.120900D+00  0.100000D+01
   d     1 1.00
  0.109700D+01  0.100000D+01
   d     1 1.00
  0.318000D+00  0.100000D+01
   f     1 1.00
  0.761000D+00  0.100000D+01
  
  7  0
   s    10 1.00
  0.823600D+04  0.531000D-03
  0.123500D+04  0.410800D-02
  0.280800D+03  0.210870D-01
  0.792700D+02  0.818530D-01
  0.255900D+02  0.234817D+00
  0.899700D+01  0.434401D+00
  0.331900D+01  0.346129D+00
  0.905900D+00  0.393780D-01
  0.364300D+00 -0.898300D-02
  0.128500D+00  0.238500D-02
   s    10 1.00
  0.823600D+04 -0.113000D-03
  0.123500D+04 -0.878000D-03
  0.280800D+03 -0.454000D-02
  0.792700D+02 -0.181330D-01
  0.255900D+02 -0.557600D-01
  0.899700D+01 -0.126895D+00
  0.331900D+01 -0.170352D+00
  0.905900D+00  0.140382D+00
  0.364300D+00  0.598684D+00
  0.128500D+00  0.395389D+00
   s     1 1.00
  0.905900D+00  0.100000D+01
   s     1 1.00
  0.364300D+00  0.100000D+01
   p     5 1.00
  0.187100D+02  0.140310D-01
  0.413300D+01  0.868660D-01
  0.120000D+01  0.290216D+00
  0.382700D+00  0.501008D+00
  0.120900D+00  0.343406D+00
   p     1 1.00
  0.382700D+00  0.100000D+01
   p     1 1.00
  0.120900D+00  0.100000D+01
   d     1 1.00
  0.109700D+01  0.100000D+01
   d     1 1.00
  0.318000D+00  0.100000D+01
   f     1 1.00
  0.761000D+00  0.100000D+01
  
  8  0
   s     4 1.00
  0.130100D+02  0.196850D-01
  0.196200D+01  0.137977D+00
  0.444600D+00  0.478148D+00
  0.122000D+00  0.501240D+00
   s     1 1.00
  0.122000D+00  0.100000D+01
   p     1 1.00
  0.727000D+00  0.100000D+01
  
  9  0
   s     4 1.00
  0.130100D+02  0.196850D-01
  0.196200D+01  0.137977D+00
  0.444600D+00  0.478148D+00
  0.122000D+00  0.501240D+00
   s     1 1.00
  0.122000D+00  0.100000D+01
   p     1 1.00
  0.727000D+00  0.100000D+01
  
 10  0
   s     4 1.00
  0.130100D+02  0.196850D-01
  0.196200D+01  0.137977D+00
  0.444600D+00  0.478148D+00
  0.122000D+00  0.501240D+00
   s     1 1.00
  0.122000D+00  0.100000D+01
   p     1 1.00
  0.727000D+00  0.100000D+01
  
 11  0
   s     4 1.00
  0.130100D+02  0.196850D-01
  0.196200D+01  0.137977D+00
  0.444600D+00  0.478148D+00
  0.122000D+00  0.501240D+00
   s     1 1.00
  0.122000D+00  0.100000D+01
   p     1 1.00
  0.727000D+00  0.100000D+01
  
 12  0
   s     4 1.00
  0.130100D+02  0.196850D-01
  0.196200D+01  0.137977D+00
  0.444600D+00  0.478148D+00
  0.122000D+00  0.501240D+00
   s     1 1.00
  0.122000D+00  0.100000D+01
   p     1 1.00
  0.727000D+00  0.100000D+01
  
 13  0
   s     4 1.00
  0.130100D+02  0.196850D-01
  0.196200D+01  0.137977D+00
  0.444600D+00  0.478148D+00
  0.122000D+00  0.501240D+00
   s     1 1.00
  0.122000D+00  0.100000D+01
   p     1 1.00
  0.727000D+00  0.100000D+01
  
 14  0
   s     4 1.00
  0.130100D+02  0.196850D-01
  0.196200D+01  0.137977D+00
  0.444600D+00  0.478148D+00
  0.122000D+00  0.501240D+00
   s     1 1.00
  0.122000D+00  0.100000D+01
   p     1 1.00
  0.727000D+00  0.100000D+01
  
[MO]
 Sym= __1_A'_
 Ene=   1.00000000000000     
 Spin= Alpha
 Occup=    1.00000000000000     
                     1  1.421549796560558E-004
                     2  0.998338736340791     
                     3 -2.633714352566920E-003
                     4  1.838726040574528E-003
                     5  6.603233947480041E-003
                     6  2.830831680573927E-003
                     7  5.957831249701956E-003
                     8  0.000000000000000E+000
                     9 -6.939478938185328E-004
                    10 -7.264272793318223E-004
                    11  0.000000000000000E+000
                    12 -2.484528770070090E-003
                    13 -1.910599536235517E-003
                    14  0.000000000000000E+000
                    15 -2.670026925852454E-005
                    16  0.000000000000000E+000
                    17  0.000000000000000E+000
                    18 -1.532062156250103E-004
                    19 -5.777443436066670E-005
                    20  8.916414165886156E-005
                    21  0.000000000000000E+000
                    22  0.000000000000000E+000
                    23 -2.056593266345750E-004
                    24  5.024786840720613E-004
                    25  0.000000000000000E+000
                    26 -5.702690263645890E-006
                    27 -4.860945553054592E-005
                    28  0.000000000000000E+000
                    29  0.000000000000000E+000
                    30  3.804814382323470E-005
                    31 -1.076426121721930E-004
                    32 -4.007972465727429E-004
                    33  1.388295861436447E-004
                    34  3.148327551129708E-004
                    35 -5.266540419790802E-005
                    36 -4.919530352945917E-005
                    37 -2.731119210255864E-003
                    38  0.000000000000000E+000
                    39  3.751903059407245E-004
                    40  1.994941413074267E-004
                    41  0.000000000000000E+000
                    42 -2.061851122873414E-003
                    43  5.140393214213313E-003
                    44  0.000000000000000E+000
                    45  1.451554538743186E-006
                    46  0.000000000000000E+000
                    47  0.000000000000000E+000
                    48 -1.375471908497355E-004
                    49  2.051421468999110E-005
                    50 -2.008127387167790E-004
                    51  0.000000000000000E+000
                    52  0.000000000000000E+000
                    53  4.795457713879384E-005
                    54  7.748885440640537E-004
                    55  0.000000000000000E+000
                    56 -3.040054337796637E-006
                    57 -7.039093234941989E-005
                    58  0.000000000000000E+000
                    59  0.000000000000000E+000
                    60  2.482491102588944E-005
                    61 -1.224064927251623E-004
                    62 -5.638526940415964E-004
                    63 -2.259809236020483E-003
                    64 -8.553147505555036E-005
                    65  2.270671954774053E-003
                    66 -5.262549107586107E-004
                    67  1.622342499852532E-004
                    68  0.000000000000000E+000
                    69  3.892867932013373E-004
                    70  8.929384923268352E-004
                    71  0.000000000000000E+000
                    72 -1.695431429453993E-003
                    73  6.830847739171894E-004
                    74  0.000000000000000E+000
                    75 -4.301126657287379E-005
                    76  0.000000000000000E+000
                    77  0.000000000000000E+000
                    78 -6.492906291163108E-005
                    79 -2.008011877073722E-005
                    80 -1.328094694971143E-004
                    81  0.000000000000000E+000
                    82  0.000000000000000E+000
                    83  4.135683299509494E-005
                    84  1.657256263283394E-005
                    85  0.000000000000000E+000
                    86  8.165793443982009E-006
                    87 -4.621192143194465E-005
                    88  0.000000000000000E+000
                    89  0.000000000000000E+000
                    90 -2.473173836980173E-005
                    91 -1.538763517405079E-004
                    92 -1.834063756304295E-004
                    93 -6.698787438940749E-004
                    94  1.556835685978945E-004
                    95 -4.655361242081027E-005
                    96  2.251127313956880E-004
                    97  8.500509370939498E-006
                    98  0.000000000000000E+000
                    99  3.374838678480562E-004
                   100  3.977431237751475E-004
                   101  0.000000000000000E+000
                   102  6.591588452854165E-004
                   103 -1.785042037346943E-003
                   104  0.000000000000000E+000
                   105 -1.199793603947694E-005
                   106  0.000000000000000E+000
                   107  0.000000000000000E+000
                   108 -4.669058326756312E-005
                   109 -1.325224031915925E-005
                   110  8.423669428480524E-005
                   111  0.000000000000000E+000
                   112  0.000000000000000E+000
                   113 -1.673877497805652E-004
                   114  8.538607244413699E-005
                   115  0.000000000000000E+000
                   116 -1.986109300447530E-005
                   117 -2.260886250219884E-005
                   118  0.000000000000000E+000
                   119  0.000000000000000E+000
                   120 -1.218213226689568E-005
                   121 -3.729965564631474E-005
                   122 -2.426365176073098E-004
                   123 -5.857479340200361E-004
                   124  1.650505103802690E-004
                   125  3.294923187055467E-004
                   126 -3.311637602886119E-005
                   127 -3.432329695865520E-004
                   128  0.000000000000000E+000
                   129  2.463817819933815E-004
                   130  6.537899048484995E-004
                   131  0.000000000000000E+000
                   132  3.831444428941627E-004
                   133  2.029381913517117E-003
                   134  0.000000000000000E+000
                   135  1.322364878718335E-005
                   136  0.000000000000000E+000
                   137  0.000000000000000E+000
                   138  4.565969272736470E-005
                   139 -1.680197430393040E-006
                   140  2.051133080095485E-004
                   141  0.000000000000000E+000
                   142  0.000000000000000E+000
                   143  4.051623632528108E-004
                   144  2.396417197651965E-004
                   145  0.000000000000000E+000
                   146 -1.256601859500058E-005
                   147 -6.524496532485065E-005
                   148  0.000000000000000E+000
                   149  0.000000000000000E+000
                   150 -1.350945665830974E-005
                   151 -5.330070680784287E-005
                   152 -1.298863163882903E-004
                   153 -3.524850575577124E-004
                   154  5.516468084917285E-005
                   155  1.879453190268158E-004
                   156  1.042841696967480E-005
                   157 -8.945447763684465E-005
                   158  0.000000000000000E+000
                   159  1.168308535456277E-005
                   160  6.361492517237268E-005
                   161  0.000000000000000E+000
                   162  7.296494259995916E-004
                   163 -3.613922610797366E-004
                   164  0.000000000000000E+000
                   165  1.921209178278642E-006
                   166  0.000000000000000E+000
                   167  0.000000000000000E+000
                   168  3.153206121862962E-006
                   169  9.655617980497221E-006
                   170  1.081142705629085E-004
                   171  0.000000000000000E+000
                   172  0.000000000000000E+000
                   173  5.671880614403088E-005
                   174  2.643546561828483E-005
                   175  0.000000000000000E+000
                   176  3.037606355862213E-006
                   177 -1.508252658970694E-005
                   178  0.000000000000000E+000
                   179  0.000000000000000E+000
                   180 -2.071889290503971E-005
                   181 -3.050817036194840E-005
                   182 -1.338889971605392E-004
                   183 -3.895153969136535E-004
                   184  3.310445651833633E-005
                   185  1.843547105621703E-004
                   186 -5.059967623872450E-005
                   187 -6.476824404314389E-005
                   188  0.000000000000000E+000
                   189  2.739030941911097E-004
                   190  1.259952370221618E-004
                   191  0.000000000000000E+000
                   192  1.346147995887778E-003
                   193 -3.506883263065442E-004
                   194  0.000000000000000E+000
                   195  1.782301282326138E-006
                   196  0.000000000000000E+000
                   197  0.000000000000000E+000
                   198 -3.761170147307096E-006
                   199  4.103691472036425E-006
                   200 -7.244811582217114E-006
                   201  0.000000000000000E+000
                   202  0.000000000000000E+000
                   203 -8.314649057540680E-005
                   204 -2.036460933687418E-004
                   205  0.000000000000000E+000
                   206 -1.055905894488273E-005
                   207 -4.563344501279692E-006
                   208  0.000000000000000E+000
                   209  0.000000000000000E+000
                   210  7.458606117401999E-006
                   211 -2.885003906532679E-006
                   212  1.310235445139809E-005
                   213 -2.500215249746141E-005
                   214 -8.761112087071692E-007
                   215 -5.863295976977459E-007
                   216  0.000000000000000E+000
                   217 -8.623723879682046E-004
                   218 -6.626826179973793E-004
                   219 -2.394030903487613E-004
                   220  6.468161455017007E-005
                   221  0.000000000000000E+000
                   222 -2.106147714836120E-004
                   223 -5.568190996802576E-004
                   224  2.477621946526666E-005
                   225 -5.819474448516682E-005
                   226  0.000000000000000E+000
                   227  6.823019656562878E-005
                   228 -7.118785889076300E-004
                   229 -4.593423400921516E-005
                   230 -1.338895304134112E-005
                   231  0.000000000000000E+000
                   232  4.234419061955162E-006
                   233 -5.369658768184772E-004
                   234  1.253529932303285E-005
                   235 -3.655509294805915E-006
                   236  0.000000000000000E+000
                   237  7.883299202385358E-006
                   238 -3.724358768704330E-004
                   239 -6.080049325962496E-006
                   240 -1.556484151162871E-006
                   241  0.000000000000000E+000
                   242 -6.438610043531759E-005
                   243  9.924764648478566E-005
                   244  2.260874557660827E-007
                   245  3.160438921590111E-005
                   246  0.000000000000000E+000
 Sym= __2_A'_
 Ene=   2.00000000000000     
 Spin= Alpha
 Occup=    1.00000000000000     
                     1  1.363432021237905E-005
                     2  2.820515581224907E-004
                     3 -3.565743933710419E-003
                     4 -9.734163164953610E-005
                     5 -1.476401032944336E-003
                     6  9.749786270285116E-004
                     7 -3.873742988280258E-003
                     8  0.000000000000000E+000
                     9 -8.790765235170126E-006
                    10  8.692202744947366E-005
                    11  0.000000000000000E+000
                    12 -3.378908850437528E-005
                    13  2.325356310638277E-004
                    14  0.000000000000000E+000
                    15 -1.828167081702587E-005
                    16  0.000000000000000E+000
                    17  0.000000000000000E+000
                    18  8.007560033159092E-005
                    19 -3.339216662249848E-005
                    20  1.472519990462362E-004
                    21  0.000000000000000E+000
                    22  0.000000000000000E+000
                    23 -2.916217634884460E-005
                    24  1.555635775558627E-004
                    25  0.000000000000000E+000
                    26  1.256782086182239E-005
                    27 -8.166746748876804E-005
                    28  0.000000000000000E+000
                    29  0.000000000000000E+000
                    30  7.362294587383713E-005
                    31 -1.347778262585127E-004
                    32  -1.00074950633097     
                    33 -9.314418854989194E-003
                    34 -2.840973434351231E-003
                    35  8.125368485635311E-003
                    36  3.945643841913192E-004
                    37  4.431152516207721E-003
                    38  0.000000000000000E+000
                    39  2.210987706700201E-004
                    40 -3.716109048722209E-004
                    41  0.000000000000000E+000
                    42 -4.337001119201770E-005
                    43 -4.453749452992986E-003
                    44  0.000000000000000E+000
                    45  5.178138471464824E-004
                    46  0.000000000000000E+000
                    47  0.000000000000000E+000
                    48  2.101264780270604E-004
                    49 -5.035944926717059E-005
                    50 -5.621899517490750E-004
                    51  0.000000000000000E+000
                    52  0.000000000000000E+000
                    53  6.910395936773830E-004
                    54  4.865981351240152E-004
                    55  0.000000000000000E+000
                    56 -2.206755618225051E-005
                    57 -9.922311164185742E-005
                    58  0.000000000000000E+000
                    59  0.000000000000000E+000
                    60  4.332723603810000E-005
                    61 -3.762204784495895E-004
                    62 -1.431603829055287E-002
                    63  2.274430089443766E-003
                    64  2.075064703836829E-004
                    65 -2.657919105139423E-003
                    66  1.223367759151125E-004
                    67 -3.483653947003719E-004
                    68  0.000000000000000E+000
                    69 -4.455546401067692E-004
                    70 -1.420695235139523E-004
                    71  0.000000000000000E+000
                    72  2.043024195621154E-003
                    73 -2.528950212308340E-004
                    74  0.000000000000000E+000
                    75 -3.872285039872620E-005
                    76  0.000000000000000E+000
                    77  0.000000000000000E+000
                    78  2.877416048688042E-005
                    79 -5.842332881998780E-006
                    80  4.182879341031716E-004
                    81  0.000000000000000E+000
                    82  0.000000000000000E+000
                    83  7.149477855503606E-004
                    84  2.373544813564699E-004
                    85  0.000000000000000E+000
                    86 -3.127690272352130E-005
                    87  5.659451756215172E-005
                    88  0.000000000000000E+000
                    89  0.000000000000000E+000
                    90 -5.366649736713765E-005
                    91 -1.535647084710560E-004
                    92 -1.850365379516846E-002
                    93  2.364241531270917E-003
                    94  3.003379480341343E-004
                    95 -3.299916363871162E-003
                    96 -5.614176457978261E-004
                    97 -5.408551211682818E-004
                    98  0.000000000000000E+000
                    99  9.966984870266214E-004
                   100  3.498600858267386E-006
                   101  0.000000000000000E+000
                   102 -1.805580302119605E-003
                   103  5.171469495321868E-005
                   104  0.000000000000000E+000
                   105 -2.278037838141415E-005
                   106  0.000000000000000E+000
                   107  0.000000000000000E+000
                   108  2.632439833619856E-005
                   109  2.814256710628030E-006
                   110  4.165471820421836E-004
                   111  0.000000000000000E+000
                   112  0.000000000000000E+000
                   113  4.006346463745960E-004
                   114 -2.432835182529999E-004
                   115  0.000000000000000E+000
                   116  3.694525112692755E-005
                   117  7.588433040686118E-005
                   118  0.000000000000000E+000
                   119  0.000000000000000E+000
                   120  1.070558362889833E-005
                   121 -1.346045709315585E-004
                   122 -1.658440137133496E-004
                   123  5.744201692627525E-004
                   124 -2.220887132963712E-004
                   125  1.005644198634107E-004
                   126  1.201290746662094E-005
                   127  5.666641108019514E-004
                   128  0.000000000000000E+000
                   129  6.238835986247531E-005
                   130 -6.250983660151694E-004
                   131  0.000000000000000E+000
                   132 -3.101859179529145E-004
                   133 -9.487092298674290E-004
                   134  0.000000000000000E+000
                   135 -1.707388004487485E-005
                   136  0.000000000000000E+000
                   137  0.000000000000000E+000
                   138  8.087330804576298E-007
                   139 -4.866182889238744E-005
                   140 -1.210173013441444E-004
                   141  0.000000000000000E+000
                   142  0.000000000000000E+000
                   143 -2.558740261961942E-004
                   144  9.712603777220595E-005
                   145  0.000000000000000E+000
                   146 -8.789975139615465E-006
                   147  3.422070436242555E-005
                   148  0.000000000000000E+000
                   149  0.000000000000000E+000
                   150  4.614525731500660E-005
                   151 -3.984596258030937E-005
                   152 -5.785991493441255E-004
                   153  5.098172034624252E-004
                   154 -2.296738023868010E-004
                   155  3.733135364559388E-005
                   156  7.317355802320505E-005
                   157  6.634628662250896E-004
                   158  0.000000000000000E+000
                   159 -1.420938516803080E-004
                   160 -5.744960236691125E-004