[Molden Format]
[Atoms] AU
  N     1    7    -0.0570720500   -4.3511733100    0.0000000000        
  C     2    6     0.0307281700   -1.8105094600    0.0000000000        
  C     3    6    -2.2954543600   -0.4225345800    0.0000000000        
  C     4    6     2.3352574900   -0.3945250900    0.0000000000        
  C     5    6    -2.2755830800    2.1689505000    0.0000000000        
  C     6    6     2.2966909900    2.1946860000    0.0000000000        
  C     7    6     0.0059297500    3.5072513300    0.0000000000        
  H     8    1    -2.9252620400   -6.1786052400    0.0000000000        
  H     9    1     1.6996002300   -5.1717450000    0.0000000000        
  H    10    1    -4.0328276600   -1.4613926400    0.0000000000        
  H    11    1     4.0969318300   -1.3945687800    0.0000000000        
  H    12    1    -4.0316488300    3.1857806700    0.0000000000        
  H    13    1     4.0447389400    3.2267779800    0.0000000000        
  H    14    1    -0.0028545800    5.5348015400    0.0000000000        
[5D]
[7F]
[GTO]
  1  0
   s    12 1.00
  0.114200D+05  0.172695D-04
  0.171200D+04  0.134411D-03
  0.389300D+03  0.694561D-03
  0.110000D+03  0.278531D-02
  0.355700D+02  0.863457D-02
  0.125400D+02  0.199805D-01
  0.464400D+01  0.262908D-01
  0.129300D+01 -0.243845D-01
  0.511800D+00 -0.924934D-01
  0.178700D+00 -0.339683D+00
  0.246240D-01  0.345111D+00
  0.112530D-01  0.752750D+00
   s    10 1.00
  0.114200D+05  0.523000D-03
  0.171200D+04  0.404500D-02
  0.389300D+03  0.207750D-01
  0.110000D+03  0.807269D-01
  0.355700D+02  0.233074D+00
  0.125400D+02  0.433501D+00
  0.464400D+01  0.347472D+00
  0.129300D+01  0.412620D-01
  0.511800D+00 -0.850799D-02
  0.178700D+00  0.238400D-02
   s    10 1.00
  0.114200D+05 -0.115000D-03
  0.171200D+04 -0.895000D-03
  0.389300D+03 -0.462400D-02
  0.110000D+03 -0.185280D-01
  0.355700D+02 -0.573390D-01
  0.125400D+02 -0.132076D+00
  0.464400D+01 -0.172510D+00
  0.129300D+01  0.151814D+00
  0.511800D+00  0.599944D+00
  0.178700D+00  0.387462D+00
   s     1 1.00
  0.129300D+01  0.100000D+01
   s     1 1.00
  0.178700D+00  0.100000D+01
   p     5 1.00
  0.266300D+02  0.146700D-01
  0.594800D+01  0.917640D-01
  0.174200D+01  0.298683D+00
  0.555000D+00  0.498487D+00
  0.172500D+00  0.337023D+00
   p     1 1.00
  0.174200D+01  0.100000D+01
   p     1 1.00
  0.555000D+00  0.100000D+01
   d     1 1.00
  0.165400D+01  0.100000D+01
   d     1 1.00
  0.469000D+00  0.100000D+01
   f     1 1.00
  0.109300D+01  0.100000D+01
  
  2  0
   s    10 1.00
  0.823600D+04  0.531000D-03
  0.123500D+04  0.410800D-02
  0.280800D+03  0.210870D-01
  0.792700D+02  0.818530D-01
  0.255900D+02  0.234817D+00
  0.899700D+01  0.434401D+00
  0.331900D+01  0.346129D+00
  0.905900D+00  0.393780D-01
  0.364300D+00 -0.898300D-02
  0.128500D+00  0.238500D-02
   s    10 1.00
  0.823600D+04 -0.113000D-03
  0.123500D+04 -0.878000D-03
  0.280800D+03 -0.454000D-02
  0.792700D+02 -0.181330D-01
  0.255900D+02 -0.557600D-01
  0.899700D+01 -0.126895D+00
  0.331900D+01 -0.170352D+00
  0.905900D+00  0.140382D+00
  0.364300D+00  0.598684D+00
  0.128500D+00  0.395389D+00
   s     1 1.00
  0.905900D+00  0.100000D+01
   s     1 1.00
  0.364300D+00  0.100000D+01
   p     5 1.00
  0.187100D+02  0.140310D-01
  0.413300D+01  0.868660D-01
  0.120000D+01  0.290216D+00
  0.382700D+00  0.501008D+00
  0.120900D+00  0.343406D+00
   p     1 1.00
  0.382700D+00  0.100000D+01
   p     1 1.00
  0.120900D+00  0.100000D+01
   d     1 1.00
  0.109700D+01  0.100000D+01
   d     1 1.00
  0.318000D+00  0.100000D+01
   f     1 1.00
  0.761000D+00  0.100000D+01
  
  3  0
   s    10 1.00
  0.823600D+04  0.531000D-03
  0.123500D+04  0.410800D-02
  0.280800D+03  0.210870D-01
  0.792700D+02  0.818530D-01
  0.255900D+02  0.234817D+00
  0.899700D+01  0.434401D+00
  0.331900D+01  0.346129D+00
  0.905900D+00  0.393780D-01
  0.364300D+00 -0.898300D-02
  0.128500D+00  0.238500D-02
   s    10 1.00
  0.823600D+04 -0.113000D-03
  0.123500D+04 -0.878000D-03
  0.280800D+03 -0.454000D-02
  0.792700D+02 -0.181330D-01
  0.255900D+02 -0.557600D-01
  0.899700D+01 -0.126895D+00
  0.331900D+01 -0.170352D+00
  0.905900D+00  0.140382D+00
  0.364300D+00  0.598684D+00
  0.128500D+00  0.395389D+00
   s     1 1.00
  0.905900D+00  0.100000D+01
   s     1 1.00
  0.364300D+00  0.100000D+01
   p     5 1.00
  0.187100D+02  0.140310D-01
  0.413300D+01  0.868660D-01
  0.120000D+01  0.290216D+00
  0.382700D+00  0.501008D+00
  0.120900D+00  0.343406D+00
   p     1 1.00
  0.382700D+00  0.100000D+01
   p     1 1.00
  0.120900D+00  0.100000D+01
   d     1 1.00
  0.109700D+01  0.100000D+01
   d     1 1.00
  0.318000D+00  0.100000D+01
   f     1 1.00
  0.761000D+00  0.100000D+01
  
  4  0
   s    10 1.00
  0.823600D+04  0.531000D-03
  0.123500D+04  0.410800D-02
  0.280800D+03  0.210870D-01
  0.792700D+02  0.818530D-01
  0.255900D+02  0.234817D+00
  0.899700D+01  0.434401D+00
  0.331900D+01  0.346129D+00
  0.905900D+00  0.393780D-01
  0.364300D+00 -0.898300D-02
  0.128500D+00  0.238500D-02
   s    10 1.00
  0.823600D+04 -0.113000D-03
  0.123500D+04 -0.878000D-03
  0.280800D+03 -0.454000D-02
  0.792700D+02 -0.181330D-01
  0.255900D+02 -0.557600D-01
  0.899700D+01 -0.126895D+00
  0.331900D+01 -0.170352D+00
  0.905900D+00  0.140382D+00
  0.364300D+00  0.598684D+00
  0.128500D+00  0.395389D+00
   s     1 1.00
  0.905900D+00  0.100000D+01
   s     1 1.00
  0.364300D+00  0.100000D+01
   p     5 1.00
  0.187100D+02  0.140310D-01
  0.413300D+01  0.868660D-01
  0.120000D+01  0.290216D+00
  0.382700D+00  0.501008D+00
  0.120900D+00  0.343406D+00
   p     1 1.00
  0.382700D+00  0.100000D+01
   p     1 1.00
  0.120900D+00  0.100000D+01
   d     1 1.00
  0.109700D+01  0.100000D+01
   d     1 1.00
  0.318000D+00  0.100000D+01
   f     1 1.00
  0.761000D+00  0.100000D+01
  
  5  0
   s    10 1.00
  0.823600D+04  0.531000D-03
  0.123500D+04  0.410800D-02
  0.280800D+03  0.210870D-01
  0.792700D+02  0.818530D-01
  0.255900D+02  0.234817D+00
  0.899700D+01  0.434401D+00
  0.331900D+01  0.346129D+00
  0.905900D+00  0.393780D-01
  0.364300D+00 -0.898300D-02
  0.128500D+00  0.238500D-02
   s    10 1.00
  0.823600D+04 -0.113000D-03
  0.123500D+04 -0.878000D-03
  0.280800D+03 -0.454000D-02
  0.792700D+02 -0.181330D-01
  0.255900D+02 -0.557600D-01
  0.899700D+01 -0.126895D+00
  0.331900D+01 -0.170352D+00
  0.905900D+00  0.140382D+00
  0.364300D+00  0.598684D+00
  0.128500D+00  0.395389D+00
   s     1 1.00
  0.905900D+00  0.100000D+01
   s     1 1.00
  0.364300D+00  0.100000D+01
   p     5 1.00
  0.187100D+02  0.140310D-01
  0.413300D+01  0.868660D-01
  0.120000D+01  0.290216D+00
  0.382700D+00  0.501008D+00
  0.120900D+00  0.343406D+00
   p     1 1.00
  0.382700D+00  0.100000D+01
   p     1 1.00
  0.120900D+00  0.100000D+01
   d     1 1.00
  0.109700D+01  0.100000D+01
   d     1 1.00
  0.318000D+00  0.100000D+01
   f     1 1.00
  0.761000D+00  0.100000D+01
  
  6  0
   s    10 1.00
  0.823600D+04  0.531000D-03
  0.123500D+04  0.410800D-02
  0.280800D+03  0.210870D-01
  0.792700D+02  0.818530D-01
  0.255900D+02  0.234817D+00
  0.899700D+01  0.434401D+00
  0.331900D+01  0.346129D+00
  0.905900D+00  0.393780D-01
  0.364300D+00 -0.898300D-02
  0.128500D+00  0.238500D-02
   s    10 1.00
  0.823600D+04 -0.113000D-03
  0.123500D+04 -0.878000D-03
  0.280800D+03 -0.454000D-02
  0.792700D+02 -0.181330D-01
  0.255900D+02 -0.557600D-01
  0.899700D+01 -0.126895D+00
  0.331900D+01 -0.170352D+00
  0.905900D+00  0.140382D+00
  0.364300D+00  0.598684D+00
  0.128500D+00  0.395389D+00
   s     1 1.00
  0.905900D+00  0.100000D+01
   s     1 1.00
  0.364300D+00  0.100000D+01
   p     5 1.00
  0.187100D+02  0.140310D-01
  0.413300D+01  0.868660D-01
  0.120000D+01  0.290216D+00
  0.382700D+00  0.501008D+00
  0.120900D+00  0.343406D+00
   p     1 1.00
  0.382700D+00  0.100000D+01
   p     1 1.00
  0.120900D+00  0.100000D+01
   d     1 1.00
  0.109700D+01  0.100000D+01
   d     1 1.00
  0.318000D+00  0.100000D+01
   f     1 1.00
  0.761000D+00  0.100000D+01
  
  7  0
   s    10 1.00
  0.823600D+04  0.531000D-03
  0.123500D+04  0.410800D-02
  0.280800D+03  0.210870D-01
  0.792700D+02  0.818530D-01
  0.255900D+02  0.234817D+00
  0.899700D+01  0.434401D+00
  0.331900D+01  0.346129D+00
  0.905900D+00  0.393780D-01
  0.364300D+00 -0.898300D-02
  0.128500D+00  0.238500D-02
   s    10 1.00
  0.823600D+04 -0.113000D-03
  0.123500D+04 -0.878000D-03
  0.280800D+03 -0.454000D-02
  0.792700D+02 -0.181330D-01
  0.255900D+02 -0.557600D-01
  0.899700D+01 -0.126895D+00
  0.331900D+01 -0.170352D+00
  0.905900D+00  0.140382D+00
  0.364300D+00  0.598684D+00
  0.128500D+00  0.395389D+00
   s     1 1.00
  0.905900D+00  0.100000D+01
   s     1 1.00
  0.364300D+00  0.100000D+01
   p     5 1.00
  0.187100D+02  0.140310D-01
  0.413300D+01  0.868660D-01
  0.120000D+01  0.290216D+00
  0.382700D+00  0.501008D+00
  0.120900D+00  0.343406D+00
   p     1 1.00
  0.382700D+00  0.100000D+01
   p     1 1.00
  0.120900D+00  0.100000D+01
   d     1 1.00
  0.109700D+01  0.100000D+01
   d     1 1.00
  0.318000D+00  0.100000D+01
   f     1 1.00
  0.761000D+00  0.100000D+01
  
  8  0
   s     4 1.00
  0.130100D+02  0.196850D-01
  0.196200D+01  0.137977D+00
  0.444600D+00  0.478148D+00
  0.122000D+00  0.501240D+00
   s     1 1.00
  0.122000D+00  0.100000D+01
   p     1 1.00
  0.727000D+00  0.100000D+01
  
  9  0
   s     4 1.00
  0.130100D+02  0.196850D-01
  0.196200D+01  0.137977D+00
  0.444600D+00  0.478148D+00
  0.122000D+00  0.501240D+00
   s     1 1.00
  0.122000D+00  0.100000D+01
   p     1 1.00
  0.727000D+00  0.100000D+01
  
 10  0
   s     4 1.00
  0.130100D+02  0.196850D-01
  0.196200D+01  0.137977D+00
  0.444600D+00  0.478148D+00
  0.122000D+00  0.501240D+00
   s     1 1.00
  0.122000D+00  0.100000D+01
   p     1 1.00
  0.727000D+00  0.100000D+01
  
 11  0
   s     4 1.00
  0.130100D+02  0.196850D-01
  0.196200D+01  0.137977D+00
  0.444600D+00  0.478148D+00
  0.122000D+00  0.501240D+00
   s     1 1.00
  0.122000D+00  0.100000D+01
   p     1 1.00
  0.727000D+00  0.100000D+01
  
 12  0
   s     4 1.00
  0.130100D+02  0.196850D-01
  0.196200D+01  0.137977D+00
  0.444600D+00  0.478148D+00
  0.122000D+00  0.501240D+00
   s     1 1.00
  0.122000D+00  0.100000D+01
   p     1 1.00
  0.727000D+00  0.100000D+01
  
 13  0
   s     4 1.00
  0.130100D+02  0.196850D-01
  0.196200D+01  0.137977D+00
  0.444600D+00  0.478148D+00
  0.122000D+00  0.501240D+00
   s     1 1.00
  0.122000D+00  0.100000D+01
   p     1 1.00
  0.727000D+00  0.100000D+01
  
 14  0
   s     4 1.00
  0.130100D+02  0.196850D-01
  0.196200D+01  0.137977D+00
  0.444600D+00  0.478148D+00
  0.122000D+00  0.501240D+00
   s     1 1.00
  0.122000D+00  0.100000D+01
   p     1 1.00
  0.727000D+00  0.100000D+01
  
[MO]
 Sym= __1_A'_
 Ene=   1.00000000000000     
 Spin= Alpha
 Occup=    1.00000000000000     
                     1  7.803588127283092E-005
                     2  0.998339167909291     
                     3  2.214004846697202E-003
                     4  1.723206232066290E-003
                     5  5.217895268927841E-003
                     6  3.296736345669549E-003
                     7  6.041620654239693E-003
                     8  0.000000000000000E+000
                     9 -5.942381130512996E-004
                    10 -5.702006645997134E-004
                    11  0.000000000000000E+000
                    12 -2.375385687702877E-003
                    13 -1.611633414659216E-003
                    14  0.000000000000000E+000
                    15 -9.780966306976161E-005
                    16  0.000000000000000E+000
                    17  0.000000000000000E+000
                    18 -1.690615934425602E-004
                    19 -8.985302725274758E-005
                    20  1.211991943904820E-004
                    21  0.000000000000000E+000
                    22  0.000000000000000E+000
                    23 -2.666423488409556E-004
                    24  5.553832699755533E-004
                    25  0.000000000000000E+000
                    26 -1.126636330111940E-005
                    27 -5.415015394944588E-005
                    28  0.000000000000000E+000
                    29  0.000000000000000E+000
                    30  2.808260005187677E-005
                    31 -1.387055208890946E-004
                    32 -3.510840950357903E-004
                    33  1.226595368628383E-003
                    34  2.802600132728372E-004
                    35 -3.179818351361593E-004
                    36 -2.622692360346259E-004
                    37 -4.709626517791827E-003
                    38  0.000000000000000E+000
                    39  4.802954843490565E-004
                    40  3.059267529701237E-004
                    41  0.000000000000000E+000
                    42 -2.097600250569628E-003
                    43  5.329479815178454E-003
                    44  0.000000000000000E+000
                    45 -2.451580948327577E-005
                    46  0.000000000000000E+000
                    47  0.000000000000000E+000
                    48 -2.344599519250836E-004
                    49 -8.194336646893157E-006
                    50 -2.504103812149035E-004
                    51  0.000000000000000E+000
                    52  0.000000000000000E+000
                    53 -1.973141385621660E-005
                    54  8.312222687735926E-004
                    55  0.000000000000000E+000
                    56 -1.158496050516912E-005
                    57 -4.428003890461247E-005
                    58  0.000000000000000E+000
                    59  0.000000000000000E+000
                    60  2.186764653551260E-005
                    61 -1.112808171357897E-004
                    62 -4.854872263527954E-004
                    63 -2.264372602380888E-003
                    64 -9.384388797302211E-005
                    65  2.106813982226416E-003
                    66 -6.718192336239431E-004
                    67  5.175901077641738E-004
                    68  0.000000000000000E+000
                    69  4.523548831920165E-004
                    70  7.773095312746247E-004
                    71  0.000000000000000E+000
                    72 -1.805774833355205E-003
                    73  7.828900627835127E-004
                    74  0.000000000000000E+000
                    75 -4.117226807380449E-005
                    76  0.000000000000000E+000
                    77  0.000000000000000E+000
                    78 -8.098864128600190E-005
                    79 -2.873093255165912E-005
                    80 -1.291841994933535E-004
                    81  0.000000000000000E+000
                    82  0.000000000000000E+000
                    83  6.296295076840447E-005
                    84  6.169647791607495E-005
                    85  0.000000000000000E+000
                    86  1.163627456812726E-005
                    87 -4.876699120748356E-005
                    88  0.000000000000000E+000
                    89  0.000000000000000E+000
                    90 -1.863592102444498E-005
                    91 -1.497630134294948E-004
                    92 -1.638019789950110E-004
                    93 -1.153064141724399E-003
                    94  1.971216870251437E-004
                    95 -2.015862542039440E-004
                    96  5.638431984672745E-004
                    97  7.104116771327161E-004
                    98  0.000000000000000E+000
                    99  4.067279409367733E-004
                   100  3.334410161737393E-004
                   101  0.000000000000000E+000
                   102  4.756834047510389E-004
                   103 -1.687298055889383E-003
                   104  0.000000000000000E+000
                   105 -4.362096502537346E-007
                   106  0.000000000000000E+000
                   107  0.000000000000000E+000
                   108 -7.551022067388565E-005
                   109 -2.091807961118212E-005
                   110  1.000234806912303E-004
                   111  0.000000000000000E+000
                   112  0.000000000000000E+000
                   113 -1.752298052605904E-004
                   114 -9.887478047511665E-006
                   115  0.000000000000000E+000
                   116 -2.483529114374769E-005
                   117 -2.741773874750398E-005
                   118  0.000000000000000E+000
                   119  0.000000000000000E+000
                   120 -1.095648748754025E-005
                   121 -2.535599481586271E-005
                   122 -2.488173801576302E-004
                   123 -4.749209700278212E-004
                   124  1.641568252046767E-004
                   125  3.529301191549087E-004
                   126 -1.395462243362443E-005
                   127 -5.752207812114149E-004
                   128  0.000000000000000E+000
                   129  1.910848534352459E-004
                   130  6.088649258694731E-004
                   131  0.000000000000000E+000
                   132  4.925378213639414E-004
                   133  2.033804585919851E-003
                   134  0.000000000000000E+000
                   135  1.156547195966589E-005
                   136  0.000000000000000E+000
                   137  0.000000000000000E+000
                   138  3.821038816196756E-005
                   139  1.498058852343780E-006
                   140  1.905782884464268E-004
                   141  0.000000000000000E+000
                   142  0.000000000000000E+000
                   143  3.640969636854176E-004
                   144  2.406893961392657E-004
                   145  0.000000000000000E+000
                   146 -8.980548960346246E-006
                   147 -6.109857650422568E-005
                   148  0.000000000000000E+000
                   149  0.000000000000000E+000
                   150 -1.880444142639383E-005
                   151 -4.614637617094995E-005
                   152 -1.518600232102357E-004
                   153 -1.706114828952930E-004
                   154  4.792948339443379E-005
                   155  2.593820632726142E-004
                   156 -2.702236429338573E-005
                   157 -5.050832277886665E-004
                   158  0.000000000000000E+000
                   159  2.829353057354859E-005
                   160  6.238926922206444E-005
                   161  0.000000000000000E+000
                   162  7.580933748921888E-004
                   163 -3.491934999912082E-004
                   164  0.000000000000000E+000
                   165 -2.450881920262392E-006
                   166  0.000000000000000E+000
                   167  0.000000000000000E+000
                   168 -7.895196092356354E-006
                   169  2.567484527123893E-006
                   170  8.284803954775116E-005
                   171  0.000000000000000E+000
                   172  0.000000000000000E+000
                   173  2.138858504253598E-005
                   174 -1.092634888728301E-005
                   175  0.000000000000000E+000
                   176  1.990832580324870E-006
                   177 -9.825758149186705E-006
                   178  0.000000000000000E+000
                   179  0.000000000000000E+000
                   180 -1.729341839698928E-005
                   181 -1.631260290909336E-005
                   182 -1.526305970036873E-004
                   183 -4.483363521309568E-004
                   184  3.949423050285754E-005
                   185  2.152782471531435E-004
                   186 -4.431169205993482E-005
                   187 -4.242557270749122E-005
                   188  0.000000000000000E+000
                   189  2.347481137651143E-004
                   190  8.261411950034612E-005
                   191  0.000000000000000E+000
                   192  1.356205117631301E-003
                   193 -2.358488382965967E-004
                   194  0.000000000000000E+000
                   195  7.538002526187952E-007
                   196  0.000000000000000E+000
                   197  0.000000000000000E+000
                   198 -1.206996675731180E-005
                   199  4.267637619158572E-006
                   200 -1.416034493788450E-006
                   201  0.000000000000000E+000
                   202  0.000000000000000E+000
                   203 -8.601986342427741E-005
                   204 -1.911349676298869E-004
                   205  0.000000000000000E+000
                   206 -7.972469487255531E-006
                   207 -4.822759064192975E-006
                   208  0.000000000000000E+000
                   209  0.000000000000000E+000
                   210  9.454396823884985E-006
                   211 -4.989183027780693E-006
                   212 -3.368869435359234E-005
                   213  8.489350329944477E-005
                   214  7.214580249339461E-005
                   215  8.549937984950041E-005
                   216  0.000000000000000E+000
                   217  1.458113625290212E-003
                   218 -1.645875450348647E-003
                   219 -4.276113705094223E-004
                   220  1.717201776682201E-004
                   221  0.000000000000000E+000
                   222 -4.574661220316292E-004
                   223 -6.364199027136400E-004
                   224  3.204392488612121E-006
                   225 -6.880976041408825E-005
                   226  0.000000000000000E+000
                   227 -2.762574643080194E-004
                   228 -4.686564725823567E-004
                   229 -1.503626049891508E-005
                   230 -1.686107866425386E-005
                   231  0.000000000000000E+000
                   232 -8.495383621826438E-005
                   233 -4.796949688373767E-004
                   234  2.379257551534106E-006
                   235 -2.186682667574664E-006
                   236  0.000000000000000E+000
                   237 -1.629208645032473E-004
                   238 -3.788211990857540E-004
                   239  4.530994693913432E-006
                   240 -4.546816156447125E-007
                   241  0.000000000000000E+000
                   242  1.162839748402436E-005
                   243  3.298044257899559E-005
                   244 -5.092367991259850E-007
                   245  2.581109886660810E-005
                   246  0.000000000000000E+000
 Sym= __2_A'_
 Ene=   2.00000000000000     
 Spin= Alpha
 Occup=    1.00000000000000     
                     1 -5.069806635897420E-005
                     2 -2.610219360243276E-004
                     3  2.636339346493361E-003
                     4  1.166611083836677E-004
                     5  1.327792521599922E-003
                     6 -3.429682283343805E-004
                     7  2.905981444428568E-003
                     8  0.000000000000000E+000
                     9 -5.744537041331332E-005
                    10 -1.135632753688455E-004
                    11  0.000000000000000E+000
                    12  9.340137523138516E-006
                    13 -3.452550035800153E-004
                    14  0.000000000000000E+000
                    15  3.002218749671133E-005
                    16  0.000000000000000E+000
                    17  0.000000000000000E+000
                    18 -5.006358756106756E-005
                    19  1.807787347503999E-005
                    20 -1.210254220505609E-004
                    21  0.000000000000000E+000
                    22  0.000000000000000E+000
                    23  1.416923669782536E-004
                    24 -1.025526459088965E-004
                    25  0.000000000000000E+000
                    26 -1.904628589460911E-005
                    27  9.559459058317043E-005
                    28  0.000000000000000E+000
                    29  0.000000000000000E+000
                    30 -5.486049972416097E-005
                    31  1.498443903302260E-004
                    32   1.00102875431477     
                    33  9.244960274173795E-003
                    34  2.663273279395148E-003
                    35 -8.041124732939950E-003
                    36 -2.590095328280043E-005
                    37 -3.238435466212668E-003
                    38  0.000000000000000E+000
                    39 -1.231452717996866E-004
                    40  2.808371616932287E-004
                    41  0.000000000000000E+000
                    42 -7.367548264730587E-005
                    43  4.038832720306480E-003
                    44  0.000000000000000E+000
                    45 -5.472178920593792E-004
                    46  0.000000000000000E+000
                    47  0.000000000000000E+000
                    48 -1.823984402733537E-004
                    49  2.901012592420252E-005
                    50  5.352744191711886E-004
                    51  0.000000000000000E+000
                    52  0.000000000000000E+000
                    53 -7.072724620702532E-004
                    54 -2.616512625222597E-004
                    55  0.000000000000000E+000
                    56  7.464455613093418E-006
                    57  8.726629274910304E-005
                    58  0.000000000000000E+000
                    59  0.000000000000000E+000
                    60 -2.272136770491975E-005
                    61  3.847698804577697E-004
                    62  9.369029296502927E-003
                    63 -2.044212473076640E-003
                    64 -2.532036547092517E-004
                    65  2.771853476482996E-003
                    66  1.975362276917902E-005
                    67  6.621683680310233E-005
                    68  0.000000000000000E+000
                    69  5.667255936112332E-004
                    70  1.095152324574508E-004
                    71  0.000000000000000E+000
                    72 -2.051610479700073E-003
                    73  2.321433111386923E-004
                    74  0.000000000000000E+000
                    75  3.479411313576496E-005
                    76  0.000000000000000E+000
                    77  0.000000000000000E+000
                    78 -2.472165429252138E-006
                    79  4.161946549334195E-006
                    80 -4.194366808452343E-004
                    81  0.000000000000000E+000
                    82  0.000000000000000E+000
                    83 -6.318660497839528E-004
                    84 -2.787486615031957E-004
                    85  0.000000000000000E+000
                    86  3.045783450752458E-005
                    87 -5.877637374838695E-005
                    88  0.000000000000000E+000
                    89  0.000000000000000E+000
                    90  3.929482704426300E-005
                    91  1.449720305198827E-004
                    92  1.081967276913356E-002
                    93 -2.053099988029818E-003
                    94 -3.060848817862132E-004
                    95  3.157871589612568E-003
                    96  2.543649201282201E-005
                    97  2.189878823682099E-005
                    98  0.000000000000000E+000
                    99 -8.474438740990958E-004
                   100  4.371087509808859E-005
                   101  0.000000000000000E+000
                   102  1.818854758168735E-003
                   103  7.293747046547353E-005
                   104  0.000000000000000E+000
                   105  2.641451157981055E-005
                   106  0.000000000000000E+000
                   107  0.000000000000000E+000
                   108 -2.681982972590080E-006
                   109  4.103175802593698E-006
                   110 -4.268511641655675E-004
                   111  0.000000000000000E+000
                   112  0.000000000000000E+000
                   113 -4.544090228326616E-004
                   114  2.886706993123741E-004
                   115  0.000000000000000E+000
                   116 -2.961456758385728E-005
                   117 -6.755134853995829E-005
                   118  0.000000000000000E+000
                   119  0.000000000000000E+000
                   120 -1.484659757490015E-005
                   121  1.301548565854030E-004
                   122 -1.650684977477102E-004
                   123 -6.847323838440395E-004
                   124  2.293019207649277E-004
                   125 -1.221851632921977E-004
                   126  1.668375613634574E-006
                   127 -3.396163327543606E-004
                   128  0.000000000000000E+000
                   129 -7.217363516753875E-005
                   130  5.845426061158541E-004
                   131  0.000000000000000E+000
                   132  3.435404574493682E-004
                   133  8.322154037261238E-004
                   134  0.000000000000000E+000
                   135  1.883579173702050E-005
                   136  0.000000000000000E+000
                   137  0.000000000000000E+000
                   138  5.263205774120700E-006
                   139  4.392606105270056E-005
                   140  1.320100849854301E-004
                   141  0.000000000000000E+000
                   142  0.000000000000000E+000
                   143  2.487757068875656E-004
                   144 -1.296012499135099E-004
                   145  0.000000000000000E+000
                   146  8.391722693457490E-006
                   147 -3.585345952190409E-005
                   148  0.000000000000000E+000
                   149  0.000000000000000E+000
                   150 -4.342692967868785E-005
                   151  3.267385652014449E-005
                   152 -1.095194997840865E-004
                   153 -6.822278786211619E-004
                   154  2.354047564153009E-004
                   155 -8.967168270284508E-005
                   156 -1.797413719216234E-005
                   157 -3.307336877182954E-004
                   158  0.000000000000000E+000
                   159  1.037734927537057E-004
                   160  5.539177166062625E-004