[Molden Format]
[Atoms] AU
  N     1    7    -0.0570720500   -4.3511733100    0.0000000000        
  C     2    6     0.0307281700   -1.8105094600    0.0000000000        
  C     3    6    -2.2954543600   -0.4225345800    0.0000000000        
  C     4    6     2.3352574900   -0.3945250900    0.0000000000        
  C     5    6    -2.2755830800    2.1689505000    0.0000000000        
  C     6    6     2.2966909900    2.1946860000    0.0000000000        
  C     7    6     0.0059297500    3.5072513300    0.0000000000        
  H     8    1    -2.9252620400   -6.1786052400    0.0000000000        
  H     9    1     1.6996002300   -5.1717450000    0.0000000000        
  H    10    1    -4.0328276600   -1.4613926400    0.0000000000        
  H    11    1     4.0969318300   -1.3945687800    0.0000000000        
  H    12    1    -4.0316488300    3.1857806700    0.0000000000        
  H    13    1     4.0447389400    3.2267779800    0.0000000000        
  H    14    1    -0.0028545800    5.5348015400    0.0000000000        
[5D]
[7F]
[GTO]
  1  0
   s    12 1.00
  0.114200D+05  0.172695D-04
  0.171200D+04  0.134411D-03
  0.389300D+03  0.694561D-03
  0.110000D+03  0.278531D-02
  0.355700D+02  0.863457D-02
  0.125400D+02  0.199805D-01
  0.464400D+01  0.262908D-01
  0.129300D+01 -0.243845D-01
  0.511800D+00 -0.924934D-01
  0.178700D+00 -0.339683D+00
  0.246240D-01  0.345111D+00
  0.112530D-01  0.752750D+00
   s    10 1.00
  0.114200D+05  0.523000D-03
  0.171200D+04  0.404500D-02
  0.389300D+03  0.207750D-01
  0.110000D+03  0.807269D-01
  0.355700D+02  0.233074D+00
  0.125400D+02  0.433501D+00
  0.464400D+01  0.347472D+00
  0.129300D+01  0.412620D-01
  0.511800D+00 -0.850799D-02
  0.178700D+00  0.238400D-02
   s    10 1.00
  0.114200D+05 -0.115000D-03
  0.171200D+04 -0.895000D-03
  0.389300D+03 -0.462400D-02
  0.110000D+03 -0.185280D-01
  0.355700D+02 -0.573390D-01
  0.125400D+02 -0.132076D+00
  0.464400D+01 -0.172510D+00
  0.129300D+01  0.151814D+00
  0.511800D+00  0.599944D+00
  0.178700D+00  0.387462D+00
   s     1 1.00
  0.129300D+01  0.100000D+01
   s     1 1.00
  0.178700D+00  0.100000D+01
   p     5 1.00
  0.266300D+02  0.146700D-01
  0.594800D+01  0.917640D-01
  0.174200D+01  0.298683D+00
  0.555000D+00  0.498487D+00
  0.172500D+00  0.337023D+00
   p     1 1.00
  0.174200D+01  0.100000D+01
   p     1 1.00
  0.555000D+00  0.100000D+01
   d     1 1.00
  0.165400D+01  0.100000D+01
   d     1 1.00
  0.469000D+00  0.100000D+01
   f     1 1.00
  0.109300D+01  0.100000D+01
  
  2  0
   s    10 1.00
  0.823600D+04  0.531000D-03
  0.123500D+04  0.410800D-02
  0.280800D+03  0.210870D-01
  0.792700D+02  0.818530D-01
  0.255900D+02  0.234817D+00
  0.899700D+01  0.434401D+00
  0.331900D+01  0.346129D+00
  0.905900D+00  0.393780D-01
  0.364300D+00 -0.898300D-02
  0.128500D+00  0.238500D-02
   s    10 1.00
  0.823600D+04 -0.113000D-03
  0.123500D+04 -0.878000D-03
  0.280800D+03 -0.454000D-02
  0.792700D+02 -0.181330D-01
  0.255900D+02 -0.557600D-01
  0.899700D+01 -0.126895D+00
  0.331900D+01 -0.170352D+00
  0.905900D+00  0.140382D+00
  0.364300D+00  0.598684D+00
  0.128500D+00  0.395389D+00
   s     1 1.00
  0.905900D+00  0.100000D+01
   s     1 1.00
  0.364300D+00  0.100000D+01
   p     5 1.00
  0.187100D+02  0.140310D-01
  0.413300D+01  0.868660D-01
  0.120000D+01  0.290216D+00
  0.382700D+00  0.501008D+00
  0.120900D+00  0.343406D+00
   p     1 1.00
  0.382700D+00  0.100000D+01
   p     1 1.00
  0.120900D+00  0.100000D+01
   d     1 1.00
  0.109700D+01  0.100000D+01
   d     1 1.00
  0.318000D+00  0.100000D+01
   f     1 1.00
  0.761000D+00  0.100000D+01
  
  3  0
   s    10 1.00
  0.823600D+04  0.531000D-03
  0.123500D+04  0.410800D-02
  0.280800D+03  0.210870D-01
  0.792700D+02  0.818530D-01
  0.255900D+02  0.234817D+00
  0.899700D+01  0.434401D+00
  0.331900D+01  0.346129D+00
  0.905900D+00  0.393780D-01
  0.364300D+00 -0.898300D-02
  0.128500D+00  0.238500D-02
   s    10 1.00
  0.823600D+04 -0.113000D-03
  0.123500D+04 -0.878000D-03
  0.280800D+03 -0.454000D-02
  0.792700D+02 -0.181330D-01
  0.255900D+02 -0.557600D-01
  0.899700D+01 -0.126895D+00
  0.331900D+01 -0.170352D+00
  0.905900D+00  0.140382D+00
  0.364300D+00  0.598684D+00
  0.128500D+00  0.395389D+00
   s     1 1.00
  0.905900D+00  0.100000D+01
   s     1 1.00
  0.364300D+00  0.100000D+01
   p     5 1.00
  0.187100D+02  0.140310D-01
  0.413300D+01  0.868660D-01
  0.120000D+01  0.290216D+00
  0.382700D+00  0.501008D+00
  0.120900D+00  0.343406D+00
   p     1 1.00
  0.382700D+00  0.100000D+01
   p     1 1.00
  0.120900D+00  0.100000D+01
   d     1 1.00
  0.109700D+01  0.100000D+01
   d     1 1.00
  0.318000D+00  0.100000D+01
   f     1 1.00
  0.761000D+00  0.100000D+01
  
  4  0
   s    10 1.00
  0.823600D+04  0.531000D-03
  0.123500D+04  0.410800D-02
  0.280800D+03  0.210870D-01
  0.792700D+02  0.818530D-01
  0.255900D+02  0.234817D+00
  0.899700D+01  0.434401D+00
  0.331900D+01  0.346129D+00
  0.905900D+00  0.393780D-01
  0.364300D+00 -0.898300D-02
  0.128500D+00  0.238500D-02
   s    10 1.00
  0.823600D+04 -0.113000D-03
  0.123500D+04 -0.878000D-03
  0.280800D+03 -0.454000D-02
  0.792700D+02 -0.181330D-01
  0.255900D+02 -0.557600D-01
  0.899700D+01 -0.126895D+00
  0.331900D+01 -0.170352D+00
  0.905900D+00  0.140382D+00
  0.364300D+00  0.598684D+00
  0.128500D+00  0.395389D+00
   s     1 1.00
  0.905900D+00  0.100000D+01
   s     1 1.00
  0.364300D+00  0.100000D+01
   p     5 1.00
  0.187100D+02  0.140310D-01
  0.413300D+01  0.868660D-01
  0.120000D+01  0.290216D+00
  0.382700D+00  0.501008D+00
  0.120900D+00  0.343406D+00
   p     1 1.00
  0.382700D+00  0.100000D+01
   p     1 1.00
  0.120900D+00  0.100000D+01
   d     1 1.00
  0.109700D+01  0.100000D+01
   d     1 1.00
  0.318000D+00  0.100000D+01
   f     1 1.00
  0.761000D+00  0.100000D+01
  
  5  0
   s    10 1.00
  0.823600D+04  0.531000D-03
  0.123500D+04  0.410800D-02
  0.280800D+03  0.210870D-01
  0.792700D+02  0.818530D-01
  0.255900D+02  0.234817D+00
  0.899700D+01  0.434401D+00
  0.331900D+01  0.346129D+00
  0.905900D+00  0.393780D-01
  0.364300D+00 -0.898300D-02
  0.128500D+00  0.238500D-02
   s    10 1.00
  0.823600D+04 -0.113000D-03
  0.123500D+04 -0.878000D-03
  0.280800D+03 -0.454000D-02
  0.792700D+02 -0.181330D-01
  0.255900D+02 -0.557600D-01
  0.899700D+01 -0.126895D+00
  0.331900D+01 -0.170352D+00
  0.905900D+00  0.140382D+00
  0.364300D+00  0.598684D+00
  0.128500D+00  0.395389D+00
   s     1 1.00
  0.905900D+00  0.100000D+01
   s     1 1.00
  0.364300D+00  0.100000D+01
   p     5 1.00
  0.187100D+02  0.140310D-01
  0.413300D+01  0.868660D-01
  0.120000D+01  0.290216D+00
  0.382700D+00  0.501008D+00
  0.120900D+00  0.343406D+00
   p     1 1.00
  0.382700D+00  0.100000D+01
   p     1 1.00
  0.120900D+00  0.100000D+01
   d     1 1.00
  0.109700D+01  0.100000D+01
   d     1 1.00
  0.318000D+00  0.100000D+01
   f     1 1.00
  0.761000D+00  0.100000D+01
  
  6  0
   s    10 1.00
  0.823600D+04  0.531000D-03
  0.123500D+04  0.410800D-02
  0.280800D+03  0.210870D-01
  0.792700D+02  0.818530D-01
  0.255900D+02  0.234817D+00
  0.899700D+01  0.434401D+00
  0.331900D+01  0.346129D+00
  0.905900D+00  0.393780D-01
  0.364300D+00 -0.898300D-02
  0.128500D+00  0.238500D-02
   s    10 1.00
  0.823600D+04 -0.113000D-03
  0.123500D+04 -0.878000D-03
  0.280800D+03 -0.454000D-02
  0.792700D+02 -0.181330D-01
  0.255900D+02 -0.557600D-01
  0.899700D+01 -0.126895D+00
  0.331900D+01 -0.170352D+00
  0.905900D+00  0.140382D+00
  0.364300D+00  0.598684D+00
  0.128500D+00  0.395389D+00
   s     1 1.00
  0.905900D+00  0.100000D+01
   s     1 1.00
  0.364300D+00  0.100000D+01
   p     5 1.00
  0.187100D+02  0.140310D-01
  0.413300D+01  0.868660D-01
  0.120000D+01  0.290216D+00
  0.382700D+00  0.501008D+00
  0.120900D+00  0.343406D+00
   p     1 1.00
  0.382700D+00  0.100000D+01
   p     1 1.00
  0.120900D+00  0.100000D+01
   d     1 1.00
  0.109700D+01  0.100000D+01
   d     1 1.00
  0.318000D+00  0.100000D+01
   f     1 1.00
  0.761000D+00  0.100000D+01
  
  7  0
   s    10 1.00
  0.823600D+04  0.531000D-03
  0.123500D+04  0.410800D-02
  0.280800D+03  0.210870D-01
  0.792700D+02  0.818530D-01
  0.255900D+02  0.234817D+00
  0.899700D+01  0.434401D+00
  0.331900D+01  0.346129D+00
  0.905900D+00  0.393780D-01
  0.364300D+00 -0.898300D-02
  0.128500D+00  0.238500D-02
   s    10 1.00
  0.823600D+04 -0.113000D-03
  0.123500D+04 -0.878000D-03
  0.280800D+03 -0.454000D-02
  0.792700D+02 -0.181330D-01
  0.255900D+02 -0.557600D-01
  0.899700D+01 -0.126895D+00
  0.331900D+01 -0.170352D+00
  0.905900D+00  0.140382D+00
  0.364300D+00  0.598684D+00
  0.128500D+00  0.395389D+00
   s     1 1.00
  0.905900D+00  0.100000D+01
   s     1 1.00
  0.364300D+00  0.100000D+01
   p     5 1.00
  0.187100D+02  0.140310D-01
  0.413300D+01  0.868660D-01
  0.120000D+01  0.290216D+00
  0.382700D+00  0.501008D+00
  0.120900D+00  0.343406D+00
   p     1 1.00
  0.382700D+00  0.100000D+01
   p     1 1.00
  0.120900D+00  0.100000D+01
   d     1 1.00
  0.109700D+01  0.100000D+01
   d     1 1.00
  0.318000D+00  0.100000D+01
   f     1 1.00
  0.761000D+00  0.100000D+01
  
  8  0
   s     4 1.00
  0.130100D+02  0.196850D-01
  0.196200D+01  0.137977D+00
  0.444600D+00  0.478148D+00
  0.122000D+00  0.501240D+00
   s     1 1.00
  0.122000D+00  0.100000D+01
   p     1 1.00
  0.727000D+00  0.100000D+01
  
  9  0
   s     4 1.00
  0.130100D+02  0.196850D-01
  0.196200D+01  0.137977D+00
  0.444600D+00  0.478148D+00
  0.122000D+00  0.501240D+00
   s     1 1.00
  0.122000D+00  0.100000D+01
   p     1 1.00
  0.727000D+00  0.100000D+01
  
 10  0
   s     4 1.00
  0.130100D+02  0.196850D-01
  0.196200D+01  0.137977D+00
  0.444600D+00  0.478148D+00
  0.122000D+00  0.501240D+00
   s     1 1.00
  0.122000D+00  0.100000D+01
   p     1 1.00
  0.727000D+00  0.100000D+01
  
 11  0
   s     4 1.00
  0.130100D+02  0.196850D-01
  0.196200D+01  0.137977D+00
  0.444600D+00  0.478148D+00
  0.122000D+00  0.501240D+00
   s     1 1.00
  0.122000D+00  0.100000D+01
   p     1 1.00
  0.727000D+00  0.100000D+01
  
 12  0
   s     4 1.00
  0.130100D+02  0.196850D-01
  0.196200D+01  0.137977D+00
  0.444600D+00  0.478148D+00
  0.122000D+00  0.501240D+00
   s     1 1.00
  0.122000D+00  0.100000D+01
   p     1 1.00
  0.727000D+00  0.100000D+01
  
 13  0
   s     4 1.00
  0.130100D+02  0.196850D-01
  0.196200D+01  0.137977D+00
  0.444600D+00  0.478148D+00
  0.122000D+00  0.501240D+00
   s     1 1.00
  0.122000D+00  0.100000D+01
   p     1 1.00
  0.727000D+00  0.100000D+01
  
 14  0
   s     4 1.00
  0.130100D+02  0.196850D-01
  0.196200D+01  0.137977D+00
  0.444600D+00  0.478148D+00
  0.122000D+00  0.501240D+00
   s     1 1.00
  0.122000D+00  0.100000D+01
   p     1 1.00
  0.727000D+00  0.100000D+01
  
[MO]
 Sym= __1_A'_
 Ene=  0.000000000000000E+000
 Spin= Alpha
 Occup=    2.00000000000000     
                     1  7.803584800846422E-005
                     2  0.998339168077787     
                     3  2.214003403278277E-003
                     4  1.723206282396734E-003
                     5  5.217896138421428E-003
                     6  3.296735649151927E-003
                     7  6.041619763269605E-003
                     8  0.000000000000000E+000
                     9 -5.942381515353116E-004
                    10 -5.702007707688237E-004
                    11  0.000000000000000E+000
                    12 -2.375385642739965E-003
                    13 -1.611633441245472E-003
                    14  0.000000000000000E+000
                    15 -9.780962449444980E-005
                    16  0.000000000000000E+000
                    17  0.000000000000000E+000
                    18 -1.690615681810486E-004
                    19 -8.985303649744304E-005
                    20  1.211992655355432E-004
                    21  0.000000000000000E+000
                    22  0.000000000000000E+000
                    23 -2.666421116754422E-004
                    24  5.553831490728799E-004
                    25  0.000000000000000E+000
                    26 -1.126635864577251E-005
                    27 -5.415011403289671E-005
                    28  0.000000000000000E+000
                    29  0.000000000000000E+000
                    30  2.808259223177568E-005
                    31 -1.387055033868863E-004
                    32 -3.510771414846251E-004
                    33  1.226576951216761E-003
                    34  2.802602254884522E-004
                    35 -3.179810769539953E-004
                    36 -2.622717419499366E-004
                    37 -4.709632739869065E-003
                    38  0.000000000000000E+000
                    39  4.802955215174712E-004
                    40  3.059267336401879E-004
                    41  0.000000000000000E+000
                    42 -2.097599349838923E-003
                    43  5.329479477385035E-003
                    44  0.000000000000000E+000
                    45 -2.451552002496037E-005
                    46  0.000000000000000E+000
                    47  0.000000000000000E+000
                    48 -2.344602164793274E-004
                    49 -8.194405391400158E-006
                    50 -2.504098282735657E-004
                    51  0.000000000000000E+000
                    52  0.000000000000000E+000
                    53 -1.973165685641545E-005
                    54  8.312221504958108E-004
                    55  0.000000000000000E+000
                    56 -1.158494057120484E-005
                    57 -4.427997325056923E-005
                    58  0.000000000000000E+000
                    59  0.000000000000000E+000
                    60  2.186762838730564E-005
                    61 -1.112811386076192E-004
                    62 -4.854870811868896E-004
                    63 -2.264375253550788E-003
                    64 -9.384388766220602E-005
                    65  2.106813751691477E-003
                    66 -6.718242418279204E-004
                    67  5.175968935965418E-004
                    68  0.000000000000000E+000
                    69  4.523551835535256E-004
                    70  7.773084853364188E-004
                    71  0.000000000000000E+000
                    72 -1.805771797707034E-003
                    73  7.828877743066276E-004
                    74  0.000000000000000E+000
                    75 -4.117219635621725E-005
                    76  0.000000000000000E+000
                    77  0.000000000000000E+000
                    78 -8.098892269323944E-005
                    79 -2.873078285973394E-005
                    80 -1.291840709310464E-004
                    81  0.000000000000000E+000
                    82  0.000000000000000E+000
                    83  6.296286723781539E-005
                    84  6.169668585525535E-005
                    85  0.000000000000000E+000
                    86  1.163631979768252E-005
                    87 -4.876702987961232E-005
                    88  0.000000000000000E+000
                    89  0.000000000000000E+000
                    90 -1.863589501308224E-005
                    91 -1.497629394562601E-004
                    92 -1.638020177759766E-004
                    93 -1.153068035422712E-003
                    94  1.971217037058157E-004
                    95 -2.015862589651045E-004
                    96  5.638516578420437E-004
                    97  7.104196557210591E-004
                    98  0.000000000000000E+000
                    99  4.067272862378329E-004
                   100  3.334400235204026E-004
                   101  0.000000000000000E+000
                   102  4.756802642259610E-004
                   103 -1.687300317075678E-003
                   104  0.000000000000000E+000
                   105 -4.361209796182068E-007
                   106  0.000000000000000E+000
                   107  0.000000000000000E+000
                   108 -7.551049811992182E-005
                   109 -2.091836303831994E-005
                   110  1.000236548738218E-004
                   111  0.000000000000000E+000
                   112  0.000000000000000E+000
                   113 -1.752298597294860E-004
                   114 -9.887719468720339E-006
                   115  0.000000000000000E+000
                   116 -2.483535804386875E-005
                   117 -2.741779664404097E-005
                   118  0.000000000000000E+000
                   119  0.000000000000000E+000
                   120 -1.095648890895524E-005
                   121 -2.535590255318758E-005
                   122 -2.488172661570519E-004
                   123 -4.749174919028339E-004
                   124  1.641566727143457E-004
                   125  3.529298014194004E-004
                   126 -1.395417237954170E-005
                   127 -5.752250528079534E-004
                   128  0.000000000000000E+000
                   129  1.910846769720022E-004
                   130  6.088649201567101E-004
                   131  0.000000000000000E+000
                   132  4.925376228385828E-004
                   133  2.033803729474170E-003
                   134  0.000000000000000E+000
                   135  1.156541971288809E-005
                   136  0.000000000000000E+000
                   137  0.000000000000000E+000
                   138  3.821026647913890E-005
                   139  1.498149872171352E-006
                   140  1.905781676576955E-004
                   141  0.000000000000000E+000
                   142  0.000000000000000E+000
                   143  3.640966928024570E-004
                   144  2.406894727986469E-004
                   145  0.000000000000000E+000
                   146 -8.980548262436006E-006
                   147 -6.109852700435532E-005
                   148  0.000000000000000E+000
                   149  0.000000000000000E+000
                   150 -1.880448386436456E-005
                   151 -4.614631615467120E-005
                   152 -1.518599243424340E-004
                   153 -1.706079123342613E-004
                   154  4.792933519019688E-005
                   155  2.593817449254438E-004
                   156 -2.702314615817579E-005
                   157 -5.050877990094691E-004
                   158  0.000000000000000E+000
                   159  2.829371009845310E-005
                   160  6.238934194599179E-005
                   161  0.000000000000000E+000
                   162  7.580932258308322E-004
                   163 -3.491939346221830E-004
                   164  0.000000000000000E+000
                   165 -2.450936684892394E-006
                   166  0.000000000000000E+000
                   167  0.000000000000000E+000
                   168 -7.895328274018217E-006
                   169  2.567330490054606E-006
                   170  8.284792537305255E-005
                   171  0.000000000000000E+000
                   172  0.000000000000000E+000
                   173  2.138839318787252E-005
                   174 -1.092646498233893E-005
                   175  0.000000000000000E+000
                   176  1.990831690644114E-006
                   177 -9.825710924788353E-006
                   178  0.000000000000000E+000
                   179  0.000000000000000E+000
                   180 -1.729335523952924E-005
                   181 -1.631254728411772E-005
                   182 -1.526304199276322E-004
                   183 -4.483350447970460E-004
                   184  3.949418671739830E-005
                   185  2.152778552970754E-004
                   186 -4.431141710312788E-005
                   187 -4.242579551475937E-005
                   188  0.000000000000000E+000
                   189  2.347481012545822E-004
                   190  8.261408468547783E-005
                   191  0.000000000000000E+000
                   192  1.356204893657673E-003
                   193 -2.358483936325491E-004
                   194  0.000000000000000E+000
                   195  7.537907439752710E-007
                   196  0.000000000000000E+000
                   197  0.000000000000000E+000
                   198 -1.207004998906147E-005
                   199  4.267629396042590E-006
                   200 -1.415966104564419E-006
                   201  0.000000000000000E+000
                   202  0.000000000000000E+000
                   203 -8.601979408420028E-005
                   204 -1.911349504864171E-004
                   205  0.000000000000000E+000
                   206 -7.972470761296957E-006
                   207 -4.822758702981863E-006
                   208  0.000000000000000E+000
                   209  0.000000000000000E+000
                   210  9.454391368507839E-006
                   211 -4.989171486410438E-006
                   212 -3.368880986737320E-005
                   213  8.489318024125137E-005
                   214  7.214577878349185E-005
                   215  8.549935979027130E-005
                   216  0.000000000000000E+000
                   217  1.458112770472551E-003
                   218 -1.645875466976576E-003
                   219 -4.276112897174028E-004
                   220  1.717201211296989E-004
                   221  0.000000000000000E+000
                   222 -4.574670718010517E-004
                   223 -6.364185801770937E-004
                   224  3.204289617692923E-006
                   225 -6.880970434930673E-005
                   226  0.000000000000000E+000
                   227 -2.762560697213108E-004
                   228 -4.686558047298958E-004
                   229 -1.503623939862188E-005
                   230 -1.686093407284122E-005
                   231  0.000000000000000E+000
                   232 -8.495550088042697E-005
                   233 -4.796941361803593E-004
                   234  2.379191473968524E-006
                   235 -2.186710260897571E-006
                   236  0.000000000000000E+000
                   237 -1.629233024764702E-004
                   238 -3.788202427007009E-004
                   239  4.531088408708905E-006
                   240 -4.547015885657270E-007
                   241  0.000000000000000E+000
                   242  1.162918583888499E-005
                   243  3.298066237741495E-005
                   244 -5.092340743451736E-007
                   245  2.581104390408912E-005
                   246  0.000000000000000E+000
 Sym= __2_A'_
 Ene=  0.000000000000000E+000
 Spin= Alpha
 Occup=    2.00000000000000     
                     1 -5.069809093370419E-005
                     2 -2.610283527071860E-004
                     3  2.636339178098513E-003
                     4  1.166611032607040E-004
                     5  1.327792451608882E-003
                     6 -3.429683125541765E-004
                     7  2.905981282267130E-003
                     8  0.000000000000000E+000
                     9 -5.744536352230243E-005
                    10 -1.135632785126265E-004
                    11  0.000000000000000E+000
                    12  9.340148165994338E-006
                    13 -3.452549964891433E-004
                    14  0.000000000000000E+000
                    15  3.002218904292861E-005
                    16  0.000000000000000E+000
                    17  0.000000000000000E+000
                    18 -5.006358144203406E-005
                    19  1.807787532934241E-005
                    20 -1.210253925682364E-004
                    21  0.000000000000000E+000
                    22  0.000000000000000E+000
                    23  1.416923778747359E-004
                    24 -1.025526633932365E-004
                    25  0.000000000000000E+000
                    26 -1.904628449847591E-005
                    27  9.559460245648271E-005
                    28  0.000000000000000E+000
                    29  0.000000000000000E+000
                    30 -5.486049955654415E-005
                    31  1.498443830899922E-004
                    32   1.00102875106778     
                    33  9.244957474015512E-003
                    34  2.663273175404197E-003
                    35 -8.041123812169336E-003
                    36 -2.590114788122331E-005
                    37 -3.238436283150614E-003
                    38  0.000000000000000E+000
                    39 -1.231452227495220E-004
                    40  2.808373228971055E-004
                    41  0.000000000000000E+000
                    42 -7.367545933948453E-005
                    43  4.038832538813973E-003
                    44  0.000000000000000E+000
                    45 -5.472178412263823E-004
                    46  0.000000000000000E+000
                    47  0.000000000000000E+000
                    48 -1.823984631324557E-004
                    49  2.901011913784819E-005
                    50  5.352743375184410E-004
                    51  0.000000000000000E+000
                    52  0.000000000000000E+000
                    53 -7.072722763308170E-004
                    54 -2.616512881866262E-004
                    55  0.000000000000000E+000
                    56  7.464461044881713E-006
                    57  8.726630824150020E-005
                    58  0.000000000000000E+000
                    59  0.000000000000000E+000
                    60 -2.272137571045479E-005
                    61  3.847697992859495E-004
                    62  9.369139885861313E-003
                    63 -2.044211825513822E-003
                    64 -2.532032661702478E-004
                    65  2.771852399125740E-003
                    66  1.975277320092282E-005
                    67  6.621754586083194E-005
                    68  0.000000000000000E+000
                    69  5.667255012856314E-004
                    70  1.095151388147564E-004
                    71  0.000000000000000E+000
                    72 -2.051609988712620E-003
                    73  2.321431216409411E-004
                    74  0.000000000000000E+000
                    75  3.479408036624523E-005
                    76  0.000000000000000E+000
                    77  0.000000000000000E+000
                    78 -2.472220527932062E-006
                    79  4.161967589653717E-006
                    80 -4.194365865847229E-004
                    81  0.000000000000000E+000
                    82  0.000000000000000E+000
                    83 -6.318659907280410E-004
                    84 -2.787484984656288E-004
                    85  0.000000000000000E+000
                    86  3.045785608900407E-005
                    87 -5.877637727356319E-005
                    88  0.000000000000000E+000
                    89  0.000000000000000E+000
                    90  3.929483490152177E-005
                    91  1.449720043856035E-004
                    92  1.081985161918724E-002
                    93 -2.053098730427728E-003
                    94 -3.060842956448617E-004
                    95  3.157869982127096E-003
                    96  2.543810533571483E-005
                    97  2.189901587214612E-005
                    98  0.000000000000000E+000
                    99 -8.474438517682346E-004
                   100  4.371089383049860E-005
                   101  0.000000000000000E+000
                   102  1.818854166649393E-003
                   103  7.293741193617630E-005
                   104  0.000000000000000E+000
                   105  2.641444954684959E-005
                   106  0.000000000000000E+000
                   107  0.000000000000000E+000
                   108 -2.682024407277674E-006
                   109  4.103134159546802E-006
                   110 -4.268510318739305E-004
                   111  0.000000000000000E+000
                   112  0.000000000000000E+000
                   113 -4.544089511391658E-004
                   114  2.886704996098863E-004
                   115  0.000000000000000E+000
                   116 -2.961459718884685E-005
                   117 -6.755135065345101E-005
                   118  0.000000000000000E+000
                   119  0.000000000000000E+000
                   120 -1.484660064156139E-005
                   121  1.301548171109896E-004
                   122 -1.650663862692187E-004
                   123 -6.847321118425582E-004
                   124  2.293018642034381E-004
                   125 -1.221847557728458E-004
                   126  1.668433864561320E-006
                   127 -3.396168143222632E-004
                   128  0.000000000000000E+000
                   129 -7.217363742922223E-005
                   130  5.845425299757235E-004
                   131  0.000000000000000E+000
                   132  3.435403339243797E-004
                   133  8.322154440899186E-004
                   134  0.000000000000000E+000
                   135  1.883578780718044E-005
                   136  0.000000000000000E+000
                   137  0.000000000000000E+000
                   138  5.263195480081860E-006
                   139  4.392607351236671E-005
                   140  1.320100139003563E-004
                   141  0.000000000000000E+000
                   142  0.000000000000000E+000
                   143  2.487756616919330E-004
                   144 -1.296011465448864E-004
                   145  0.000000000000000E+000
                   146  8.391720548276062E-006
                   147 -3.585346432157615E-005
                   148  0.000000000000000E+000
                   149  0.000000000000000E+000
                   150 -4.342693597723294E-005
                   151  3.267385925126862E-005
                   152 -1.095127271942334E-004
                   153 -6.822278424776801E-004
                   154  2.354046978285637E-004
                   155 -8.967117340581487E-005
                   156 -1.797422052478530E-005
                   157 -3.307338305692880E-004
                   158  0.000000000000000E+000
                   159  1.037734631844088E-004
                   160  5.539176187716299E-004