===========================================================
===                   runc                              ===
===           version 7.0.2 , April 2021              ===
===          requires COLUMBUS version Col_7.0.2        ===
===                                                     ===
===   written by: Thomas Mueller                        ===
===   gradient ext. by: Michal Dallos                   ===
===               University of Vienna                  ===
===   maintained by: Felix Plasser                      ===
===               Loughborough University               ===
===========================================================


coremem. (seq.): 200000 MB,  coremem. (par.): 19000 MB
Vdisk size: 0 DP
Reading job control file control.run ... 
 ****** This is an 2c-QDPT MRCISD calculation ****** 
 model space size=4:0:4
SMOLCAS=/home-4/yshen57@jhu.edu/Software/Chemistry/Columbus-7.0.2_OpenMolcas-18.09-col/OpenMolcas/build
Found serial Molcas Installation at /home-4/yshen57@jhu.edu/Software/Chemistry/Columbus-7.0.2_OpenMolcas-18.09-col/OpenMolcas/build
  done 
INFO: keywords nadcoupl and seward are supported for DCI mode only!
seward specified, using also alaska
Creating various directories ... 
 done 
SMOLCAS=/home-4/yshen57@jhu.edu/Software/Chemistry/Columbus-7.0.2_OpenMolcas-18.09-col/OpenMolcas/build
PMOLCAS=
Checking for illegal keywords and keyword combinations ... done 

 Nonadiabatic coupling term calculation type: DCI+DCSF
  States involved in calcualtion:
   DRT1,state1;  DRT1,state2
   DRT1,state1;  DRT1,state3
   DRT1,state1;  DRT1,state4
   DRT1,state2;  DRT1,state3
   DRT1,state2;  DRT1,state4
   DRT1,state3;  DRT1,state4
   DRT2,state1;  DRT2,state2
   DRT2,state1;  DRT2,state3
   DRT2,state1;  DRT2,state4
   DRT2,state2;  DRT2,state3
   DRT2,state2;  DRT2,state4
   DRT2,state3;  DRT2,state4

Additional gradients computed:
   DRT1,state1
   DRT1,state2
   DRT1,state3
   DRT1,state4
   DRT2,state1
   DRT2,state2
   DRT2,state3
   DRT2,state4

Checking for complete set of input files ... 
mcscf calculation without preceeding scf calculation 
will use 
 /scratch/users/yshen57@jhu.edu/Molcas/sad-B2/mrci/mocoef as starting MOs 
Performing coupled non-rel. SO-CI calculation, nrroots: 4 0 4
starting cidrt.x   -m 200000 < cidrtin > temp at Mon May 16 07:04:28 EDT 2022

 -------------------- cidrt.x ------------------------
 spatial symmetry:  
 total number of configurations          0
 number of reference configurations     0
 --------------------------------------------------- 
 Preparing SO cidrtin files for 1 symmetries
cat ../cidrtin | sed -e 's/^.*input the molecular spatial symmetry/1 \/ molsym/' > cidrtin.so_A 
calling cidrt.x -m 200000 < cidrtin.so_A > cidrtls.soci_A ...
Checking the DRTs for consistency ...
calling reindex.x -i 1 -m 200000  ...
done

 ++++++++++++++++++ input file generation +++++++++++++ 
 runc start: Mon May 16 07:04:47 EDT 2022
 
  runc start: Mon May 16 07:04:47 EDT 2022
 
 starting unik.gets.x > unikls at Mon May 16 07:04:47 EDT 2022

 -------------------- unik.gets.x ------------------------
 --------------------------------------------------- 
 ++++++++++++++++++++ ao integral calculation ++++++++++++++++
starting pymolcas molcas.input.seward > molcas.output.seward  at Mon May 16 07:04:47 EDT 2022

Generating link ln -s ./molcas.OrdInt ORDINT 
 -------------------- seward ------------------------
      Basis set label: N.ANILINE.........
      Basis set label: C.ANILINE.........
      Basis set label: H.ANILINE.........
  Nuclear Coordinates in                   atomic units                                   Angstrom 
     Center  Label                x              y              z                     x              y              z
        1      N1               0.000000       0.000000      -4.366847              0.000000       0.000000      -2.310836
        2      C2               0.000000       0.000000      -1.774046              0.000000       0.000000      -0.938785
        3      C3               0.000000      -2.357301      -0.472199              0.000000      -1.247430      -0.249877
        4      C4               0.000000       2.357301      -0.472199              0.000000       1.247430      -0.249877
        5      C5               0.000000      -2.329682       2.215167              0.000000      -1.232815       1.172216
        6      C6               0.000000       2.329682       2.215167              0.000000       1.232815       1.172216
        7      C7               0.000000       0.000000       3.502473              0.000000       0.000000       1.853429
        8      H8               0.000000      -1.642610      -5.334976              0.000000      -0.869232      -2.823148
        9      H9               0.000000       1.642610      -5.334976              0.000000       0.869232      -2.823148
       10      H10              0.000000      -4.092787      -1.512046              0.000000      -2.165810      -0.800140
       11      H11              0.000000       4.092787      -1.512046              0.000000       2.165810      -0.800140
       12      H12              0.000000      -4.064195       3.257823              0.000000      -2.150679       1.723966
       13      H13              0.000000       4.064195       3.257823              0.000000       2.150679       1.723966
       14      H14              0.000000       0.000000       5.532399              0.000000       0.000000       2.927619
 
            Nuclear Potential Energy            269.46467285 au
 --------------------------------------------------- 
  >>>>>>>>>>>>> info: preparing drt no 1 out of 1 <<<<<<
starting mcdrt.x -m 200000 < mcdrtin > mcdrtls at Mon May 16 07:08:31 EDT 2022

 -------------------- mcdrt.x ------------------------
  Spin multiplicity: singlet 
  Spatial symmetry (#): 1
  Number of Configurations:       1275 
  --------------------------------------------------- 
 starting mcuft.x at Mon May 16 07:08:32 EDT 2022

 -------------------- mcuft.x ------------------------
 --------------------------------------------------- 
 ++++++++++++++++++++ MCSCF calculation +++++++++++++++
info: taking mocoef file from /scratch/users/yshen57@jhu.edu/Molcas/sad-B2/mrci/mocoef
adding flag 30 to mcscfin
Writing mcdenin files for mcscf.x for 1 DRTs
adding flag 26 to mcscfin
starting mcscf.x -m 200000 at Mon May 16 07:08:32 EDT 2022

 -------------------- mcscf.x ------------------------
 Individual total energies for all states: 
    DRT #1 state # 1 wt 0.250 total energy=     -285.898536794, rel. (eV)=   0.000000
    DRT #1 state # 2 wt 0.250 total energy=     -285.702849402, rel. (eV)=   5.324927
    DRT #1 state # 3 wt 0.250 total energy=     -285.681377384, rel. (eV)=   5.909211
    DRT #1 state # 4 wt 0.250 total energy=     -285.636710228, rel. (eV)=   7.124666
  --------------------------------------------------- 
 starting mcpc.x -m 200000 < mcpcin > mcpcls at Mon May 16 07:10:47 EDT 2022

 -------------------- mcpc.x ------------------------
 --------------------------------------------------- 
 starting mcpc.x -m 200000 < mcpcin > mcpcls at Mon May 16 07:10:47 EDT 2022

 -------------------- mcpc.x ------------------------
 --------------------------------------------------- 
 starting mcpc.x -m 200000 < mcpcin > mcpcls at Mon May 16 07:10:47 EDT 2022

 -------------------- mcpc.x ------------------------
 --------------------------------------------------- 
 starting mcpc.x -m 200000 < mcpcin > mcpcls at Mon May 16 07:10:47 EDT 2022

 -------------------- mcpc.x ------------------------
 --------------------------------------------------- 
 
========= state properties for state-averaged MCSCF =========
mcscf.drt1.st01.sp
starting exptvl.x -m 200000   at Mon May 16 07:10:47 EDT 2022

 -------------------- exptvl.x ------------------------
  === dipole moment === 
                     X               Y               Z   
   orign x       0.00000000      0.00000000      0.00000000
   orign y       0.00000000      0.00000000      0.00000000
   orign z       0.00000000      0.00000000      0.00000000
   nuclear       0.00000000      0.00000000     -0.92775769
   electronic    0.00000000     -0.00000000      0.03042252
   total         0.00000000     -0.00000000     -0.89733517
   total Dipole moment =   2.28080077    Debye
 --------------------------------------------------- 
 mcscf.drt1.st02.sp
starting exptvl.x -m 200000   at Mon May 16 07:10:47 EDT 2022

 -------------------- exptvl.x ------------------------
  === dipole moment === 
                     X               Y               Z   
   orign x       0.00000000      0.00000000      0.00000000
   orign y       0.00000000      0.00000000      0.00000000
   orign z       0.00000000      0.00000000      0.00000000
   nuclear       0.00000000      0.00000000     -0.92775769
   electronic   -0.00000000     -0.00000000      4.39726136
   total        -0.00000000     -0.00000000      3.46950367
   total Dipole moment =   8.81860748    Debye
 --------------------------------------------------- 
 mcscf.drt1.st03.sp
starting exptvl.x -m 200000   at Mon May 16 07:10:47 EDT 2022

 -------------------- exptvl.x ------------------------
  === dipole moment === 
                     X               Y               Z   
   orign x       0.00000000      0.00000000      0.00000000
   orign y       0.00000000      0.00000000      0.00000000
   orign z       0.00000000      0.00000000      0.00000000
   nuclear       0.00000000      0.00000000     -0.92775769
   electronic   -0.00000000     -0.00000000     -0.46657647
   total        -0.00000000     -0.00000000     -1.39433416
   total Dipole moment =   3.54404747    Debye
 --------------------------------------------------- 
 mcscf.drt1.st04.sp
starting exptvl.x -m 200000   at Mon May 16 07:10:47 EDT 2022

 -------------------- exptvl.x ------------------------
  === dipole moment === 
                     X               Y               Z   
   orign x       0.00000000      0.00000000      0.00000000
   orign y       0.00000000      0.00000000      0.00000000
   orign z       0.00000000      0.00000000      0.00000000
   nuclear       0.00000000      0.00000000     -0.92775769
   electronic   -0.00000000      0.00000000      5.37591002
   total        -0.00000000      0.00000000      4.44815233
   total Dipole moment =  11.30608674    Debye
 --------------------------------------------------- 
  using the MCSCF MOs ... 
starting cidrt.x  -m 200000 < cidrtin.1 > cidrtls at Mon May 16 07:10:48 EDT 2022

 -------------------- cidrt.x ------------------------
 total number of orbitals            :   246
 number of frozen core orbitals      :    18
 number of frozen virtual orbitals   :     0
 number of internal orbitals         :    14
 number of external orbitals         :   214
 spatial symmetry:   a  
 
 total number of configurations  158587185
 number of reference configurations  1275
 --------------------------------------------------- 
 starting cidrt.x  -m 200000 < cidrtin.2 > cidrtls at Mon May 16 07:10:49 EDT 2022

 -------------------- cidrt.x ------------------------
 total number of orbitals            :   246
 number of frozen core orbitals      :    18
 number of frozen virtual orbitals   :     0
 number of internal orbitals         :    14
 number of external orbitals         :   214
 spatial symmetry:   a  
 
 total number of configurations  282461366
 number of reference configurations  1666
 --------------------------------------------------- 
 starting tran.x -m 200000  at Mon May 16 07:10:53 EDT 2022

 -------------------- tran.x ------------------------
 --------------------------------------------------- 
  Starting ciudgav with DRT # 1 out of 2 

 *** starting pciudg section *** 
nproc: 48 machinefile:  
assuming machinefile syntax: one host name per line optionally repeated
 section2, MPI_STARTUP:
 /software/apps/mpi/openmpi/3.1/intel/18.0/bin/mpirun -np 48  /home-4/yshen57@jhu.edu/Software/Chemistry/Columbus-7.0.2_OpenMolcas-18.09-col/Columbus/pciudg.x -m 19000 
 -------------------- pciudg.x ------------------------
 type of calculation:          mr-sdci
 number of configurations:     158587185
 total mr-sdci energy             -286.0949830000 
 last mr-sdci energy change           0.0000000000 
 residual                             0.0000098347 
  type of calculation:          mr-sdci
 number of configurations:     158587185
 total mr-sdci energy             -285.9366121996 
 last mr-sdci energy change           0.0000000000 
 residual                             0.0000060866 
  type of calculation:          mr-sdci
 number of configurations:     158587185
 total mr-sdci energy             -285.9248266683 
 last mr-sdci energy change           0.0000000000 
 residual                             0.0000093437 
  type of calculation:          mr-sdci
 number of configurations:     158587185
 total mr-sdci energy             -285.8709087938 
 last mr-sdci energy change           0.0000000000 
 residual                             0.0000066676 
  --------------------------------------------------- 
 keyinfile returned docipci=0:
starting cipc.x -m 200000 < cipcin > cipcls at Mon May 16 22:43:52 EDT 2022

 -------------------- cipc.x ------------------------
 --------------------------------------------------- 
  Starting ciudgav with DRT # 2 out of 2 

 *** starting pciudg section *** 
nproc: 48 machinefile:  
assuming machinefile syntax: one host name per line optionally repeated
 section2, MPI_STARTUP:
 /software/apps/mpi/openmpi/3.1/intel/18.0/bin/mpirun -np 48  /home-4/yshen57@jhu.edu/Software/Chemistry/Columbus-7.0.2_OpenMolcas-18.09-col/Columbus/pciudg.x -m 19000 
 -------------------- pciudg.x ------------------------
 type of calculation:          mr-sdci
 number of configurations:     282461366
 total mr-sdci energy             -285.9474703740 
 last mr-sdci energy change           0.0000000000 
 residual                             0.0000062492 
  type of calculation:          mr-sdci
 number of configurations:     282461366
 total mr-sdci energy             -285.9424450954 
 last mr-sdci energy change          -0.0000000000 
 residual                             0.0000048215 
  type of calculation:          mr-sdci
 number of configurations:     282461366
 total mr-sdci energy             -285.9392508173 
 last mr-sdci energy change           0.0000000000 
 residual                             0.0000053918 
  type of calculation:          mr-sdci
 number of configurations:     282461366
 total mr-sdci energy             -285.9221496667 
 last mr-sdci energy change          -0.0000000000 
 residual                             0.0000065139 
  --------------------------------------------------- 
 keyinfile returned docipci=0:
starting cipc.x -m 200000 < cipcin > cipcls at Wed May 18 09:42:53 EDT 2022

 -------------------- cipc.x ------------------------
 --------------------------------------------------- 
 Reindex call
run_socinr: imult=1 irrep=1 
opening file =ciudgls.drt1.sp
opening file =ciudgls.drt1.sp
opening file =ciudgls.drt1.sp
opening file =ciudgls.drt1.sp
run_socinr: imult=3 irrep=1 
opening file =ciudgls.drt2.sp
opening file =ciudgls.drt2.sp
opening file =ciudgls.drt2.sp
opening file =ciudgls.drt2.sp
 copying /scratch/users/yshen57@jhu.edu/Molcas/sad-B2/mrci/cidrtfl.so__A --> cidrtfl.so__A 
 copying /scratch/users/yshen57@jhu.edu/Molcas/sad-B2/mrci/cidrtfl.so__A --> cidrtfl.so__A 
starting reindex.x -m 200000 > reindexls at Wed May 18 09:43:14 EDT 2022

 -------------------- reindex.x ------------------------
 --------------------------------------------------- 
 1      1        1           civfl_1_A             1      1    0+       1             1         civfl.so__A
1      1        2           civfl_1_A             1      1    0+       2    1005971284         civfl.so__A
1      1        3           civfl_1_A             1      1    0+       3    2011942567         civfl.so__A
1      1        4           civfl_1_A             1      1    0+       4    3017913850         civfl.so__A
3      1        1           civfl_3_A             1      3    0+       5    4023885133         civfl.so__A
3      1        1           civfl_3_A             1      3    1+       6    5029856416         civfl.so__A
3      1        1           civfl_3_A             1      3    1-       7    6035827699         civfl.so__A
3      1        2           civfl_3_A             1      3    0+       8    7041798982         civfl.so__A
3      1        2           civfl_3_A             1      3    1+       9    8047770265         civfl.so__A
3      1        2           civfl_3_A             1      3    1-      10    9053741548         civfl.so__A
3      1        3           civfl_3_A             1      3    0+      11   10059712831         civfl.so__A
3      1        3           civfl_3_A             1      3    1+      12   11065684114         civfl.so__A
3      1        3           civfl_3_A             1      3    1-      13   12071655397         civfl.so__A
3      1        4           civfl_3_A             1      3    0+      14   13077626680         civfl.so__A
3      1        4           civfl_3_A             1      3    1+      15   14083597963         civfl.so__A
3      1        4           civfl_3_A             1      3    1-      16   15089569246         civfl.so__A
 Executing ciudg.x  for gamma =A ...

 *** starting pciudg section *** 
nproc: 48 machinefile:  
assuming machinefile syntax: one host name per line optionally repeated
 section2, MPI_STARTUP:
 /software/apps/mpi/openmpi/3.1/intel/18.0/bin/mpirun -np 48  /home-4/yshen57@jhu.edu/Software/Chemistry/Columbus-7.0.2_OpenMolcas-18.09-col/Columbus/pciudg.x -m 19000 
 -------------------- pciudg.x ------------------------
 type of calculation:          mr-sdci
 number of configurations:     1005971283
 total mr-sdci energy             -286.0949830030 
 last mr-sdci energy change          36.1680000000 
 residual                            36.1680000000 
  type of calculation:          mr-sdci
 number of configurations:     1005971283
 total mr-sdci energy             -285.9474703913 
 last mr-sdci energy change          36.0210000000 
 residual                            36.0210000000 
  type of calculation:          mr-sdci
 number of configurations:     1005971283
 total mr-sdci energy             -285.9474703912 
 last mr-sdci energy change          36.0210000000 
 residual                            36.0210000000 
  type of calculation:          mr-sdci
 number of configurations:     1005971283
 total mr-sdci energy             -285.9474703851 
 last mr-sdci energy change          36.0210000000 
 residual                            36.0210000000 
  type of calculation:          mr-sdci
 number of configurations:     1005971283
 total mr-sdci energy             -285.9424450968 
 last mr-sdci energy change          36.0160000000 
 residual                            36.0160000000 
  type of calculation:          mr-sdci
 number of configurations:     1005971283
 total mr-sdci energy             -285.9424450962 
 last mr-sdci energy change          36.0150000000 
 residual                            36.0160000000 
  type of calculation:          mr-sdci
 number of configurations:     1005971283
 total mr-sdci energy             -285.9424450958 
 last mr-sdci energy change          36.0160000000 
 residual                            36.0160000000 
  type of calculation:          mr-sdci
 number of configurations:     1005971283
 total mr-sdci energy             -285.9392508135 
 last mr-sdci energy change          36.0120000000 
 residual                            36.0120000000 
  type of calculation:          mr-sdci
 number of configurations:     1005971283
 total mr-sdci energy             -285.9392508036 
 last mr-sdci energy change          36.0120000000 
 residual                            36.0120000000 
  type of calculation:          mr-sdci
 number of configurations:     1005971283
 total mr-sdci energy             -285.9392508024 
 last mr-sdci energy change          36.0120000000 
 residual                            36.0120000000 
  type of calculation:          mr-sdci
 number of configurations:     1005971283
 total mr-sdci energy             -285.9366121912 
 last mr-sdci energy change          36.0100000000 
 residual                            36.0100000000 
  type of calculation:          mr-sdci
 number of configurations:     1005971283
 total mr-sdci energy             -285.9248266679 
 last mr-sdci energy change          35.9980000000 
 residual                            35.9980000000 
  type of calculation:          mr-sdci
 number of configurations:     1005971283
 total mr-sdci energy             -285.9221496636 
 last mr-sdci energy change          35.9950000000 
 residual                            35.9950000000 
  type of calculation:          mr-sdci
 number of configurations:     1005971283
 total mr-sdci energy             -285.9221496636 
 last mr-sdci energy change          35.9950000000 
 residual                            35.9950000000 
  type of calculation:          mr-sdci
 number of configurations:     1005971283
 total mr-sdci energy             -285.9221496635 
 last mr-sdci energy change          35.9950000000 
 residual                            35.9950000000 
  type of calculation:          mr-sdci
 number of configurations:     1005971283
 total mr-sdci energy             -285.8709087932 
 last mr-sdci energy change          35.9440000000 
 residual                            35.9440000000 
  --------------------------------------------------- 
 ************* Results for Spin-Orbit CI gamma=A **************** 
Final spin-orbit CI state energies: 


-------------- HT matrix in AU ----------------  
-36.168042    
 0.000000    -36.009671    
 0.000000     0.000000    -35.997886    
 0.000000     0.000000     0.000000    -35.943968    
 0.000000     0.000000     0.000000     0.000002    -36.020529    
-0.000000     0.000011    -0.000000    -0.000000    -0.000000    -36.020529    
 0.000000     0.000000     0.000000    -0.000000     0.000000     0.000000    -36.020529    
 0.000000     0.000002     0.000000     0.000000     0.000000    -0.000000     0.000000    -36.015504    
-0.000000    -0.000000    -0.000000     0.000006     0.000000     0.000000    -0.000000     0.000000    -36.015504    
-0.000000    -0.000000     0.000000    -0.000000    -0.000000     0.000000     0.000000    -0.000000    -0.000000    -36.015504    
 0.000000     0.000000     0.000002    -0.000000     0.000000     0.000000    -0.000012     0.000000    -0.000000     0.000000    -36.012310    
 0.000021    -0.000000    -0.000000     0.000000    -0.000000     0.000000     0.000000     0.000000     0.000000     0.000002     0.000000    -36.012310    
 0.000000    -0.000000    -0.000000     0.000000     0.000012    -0.000000     0.000000    -0.000000    -0.000002     0.000000     0.000000     0.000000    -36.012310    
-0.000000     0.000000    -0.000000    -0.000001     0.000000     0.000000     0.000000     0.000000     0.000000    -0.000000     0.000000    -0.000000     0.000007    -35.995209    
-0.000000     0.000007    -0.000000     0.000000    -0.000000     0.000000     0.000000    -0.000000     0.000000     0.000000     0.000000     0.000000    -0.000000     0.000000    -35.995209    
 0.000000     0.000000     0.000000     0.000000    -0.000000    -0.000000     0.000000     0.000000    -0.000000     0.000000    -0.000007     0.000000     0.000000     0.000000    -0.000000    -35.995209    
-------------- HT matrix in eV ---------------- 
 -984.182   
    0.000    -979.873   
    0.000       0.000    -979.552   
    0.000       0.000       0.000    -978.085   
    0.000       0.000       0.000       0.000    -980.168   
   -0.000       0.000      -0.000      -0.000      -0.000    -980.168   
    0.000       0.000       0.000      -0.000       0.000       0.000    -980.168   
    0.000       0.000       0.000       0.000       0.000      -0.000       0.000    -980.032   
   -0.000      -0.000      -0.000       0.000       0.000       0.000      -0.000       0.000    -980.032   
   -0.000      -0.000       0.000      -0.000      -0.000       0.000       0.000      -0.000      -0.000    -980.032   
    0.000       0.000       0.000      -0.000       0.000       0.000      -0.000       0.000      -0.000       0.000    -979.945   
    0.001      -0.000      -0.000       0.000      -0.000       0.000       0.000       0.000       0.000       0.000       0.000    -979.945   
    0.000      -0.000      -0.000       0.000       0.000      -0.000       0.000      -0.000      -0.000       0.000       0.000       0.000    -979.945   
   -0.000       0.000      -0.000      -0.000       0.000       0.000       0.000       0.000       0.000      -0.000       0.000      -0.000       0.000    -979.479   
   -0.000       0.000      -0.000       0.000      -0.000       0.000       0.000      -0.000       0.000       0.000       0.000       0.000      -0.000       0.000    -979.479   
    0.000       0.000       0.000       0.000      -0.000      -0.000       0.000       0.000      -0.000       0.000      -0.000       0.000       0.000       0.000      -0.000    -979.479   
-------------- HT matrix in cm-1 ------------------- 
Eref = -36.16804191
     0.00   
     0.00    34758.43   
     0.00        0.00    37345.06   
     0.00        0.00        0.00    49178.69   
     0.00        0.00        0.00        0.42    32375.33   
     0.00        2.41        0.00        0.00        0.00    32375.33   
     0.00        0.00        0.01        0.00        0.00        0.00    32375.33   
     0.00        0.33        0.00        0.00        0.00       -0.01        0.00    33478.26   
     0.00        0.00        0.00        1.36        0.01        0.00        0.00        0.00    33478.26   
    -0.00        0.00        0.00        0.00        0.00        0.00        0.00        0.00        0.00    33478.26   
     0.00        0.00        0.51        0.00        0.00        0.00       -2.61        0.00        0.00        0.00    34179.32   
     4.71        0.00        0.00        0.00        0.00        0.00        0.00        0.00        0.00        0.35        0.00    34179.32   
     0.00        0.00        0.00        0.03        2.61        0.00        0.00        0.00       -0.35        0.00        0.00        0.00    34179.32   
     0.00        0.00        0.00       -0.19        0.00        0.00        0.00        0.00        0.01        0.00        0.00        0.00        1.61    37932.60   
     0.00        1.47        0.00        0.00        0.00        0.00        0.00       -0.01        0.00        0.00        0.00        0.00        0.00        0.00    37932.60   
     0.00        0.00        0.00        0.00        0.00        0.00        0.00        0.00        0.00        0.00       -1.61        0.00        0.00        0.00        0.00    37932.60   


Spin-Orbit CI: perturbational estimate of Spin-Orbit CI energies and wavefunctions 
                SO   1         SO   2         SO   3         SO   4         SO   5         SO   6         SO   7         SO   8

   energy  -286.09498300  -285.94747039  -285.94747039  -285.94747039  -285.94244510  -285.94244510  -285.94244510  -285.93925081
 
   NR   1    -0.99999999     0.00000000    -0.00000000    -0.00000000    -0.00000000     0.00000021     0.00000000    -0.00013772
   NR   2     0.00000000    -0.00000000     0.00000000    -0.00101260     0.00000000     0.00000000    -0.00026083     0.00000000
   NR   3     0.00000000    -0.00000000     0.00000251     0.00000000     0.00000000     0.00000000    -0.00000000    -0.00000000
   NR   4     0.00000000    -0.00002477    -0.00000000     0.00000000    -0.00008687    -0.00000000    -0.00000000     0.00000000
   NR   5     0.00000000     0.99999895     0.00000033    -0.00000181     0.00001203     0.00000000     0.00000000    -0.00000000
   NR   6    -0.00000000     0.00000181     0.00000000     0.99999949     0.00000000     0.00000000    -0.00001143    -0.00000000
   NR   7     0.00000000     0.00000033    -0.99999895     0.00000000    -0.00000000    -0.00000000     0.00000000    -0.00000000
   NR   8    -0.00000000     0.00000000     0.00000000     0.00001117    -0.00000488    -0.00001785     0.99999997    -0.00000000
   NR   9    -0.00000000    -0.00001130    -0.00000000     0.00000000     0.99999987     0.00000603     0.00000488     0.00000000
   NR  10    -0.00000014     0.00000000     0.00000000    -0.00000000     0.00000603    -0.99999987    -0.00001785    -0.00050514
   NR  11     0.00000000     0.00000000    -0.00144765    -0.00000000     0.00000000     0.00000000     0.00000000     0.00000000
   NR  12     0.00013772     0.00000000     0.00000000    -0.00000000    -0.00000000     0.00050514     0.00000001    -0.99999986
   NR  13     0.00000000    -0.00144766    -0.00000000     0.00000000     0.00050511     0.00000000     0.00000000    -0.00000043
   NR  14    -0.00000000     0.00000042     0.00000000    -0.00000000    -0.00000267    -0.00000000    -0.00000000     0.00000000
   NR  15    -0.00000000     0.00000000     0.00000000     0.00000027    -0.00000000    -0.00000000     0.00000257     0.00000000
   NR  16     0.00000000     0.00000000    -0.00000042     0.00000000     0.00000000     0.00000000    -0.00000000     0.00000000

                SO   9         SO  10         SO  11         SO  12         SO  13         SO  14         SO  15         SO  16

   energy  -285.93925080  -285.93925080  -285.93661219  -285.92482667  -285.92214966  -285.92214966  -285.92214966  -285.87090879
 
   NR   1    -0.00000000    -0.00000000     0.00000000     0.00000000    -0.00000000     0.00000000     0.00000000    -0.00000000
   NR   2     0.00000000     0.00000000     0.99999935    -0.00000000     0.00046335    -0.00000001    -0.00000000    -0.00000000
   NR   3     0.00016139     0.00000000     0.00000000     0.99999999    -0.00000000     0.00000000     0.00000799     0.00000000
   NR   4     0.00000000    -0.00000190    -0.00000000     0.00000000    -0.00000000    -0.00001677    -0.00000000    -1.00000000
   NR   5    -0.00000000     0.00144765     0.00000000     0.00000000    -0.00000000    -0.00000020    -0.00000000    -0.00002478
   NR   6    -0.00000000    -0.00000000     0.00101260    -0.00000000     0.00000020    -0.00000000    -0.00000000     0.00000000
   NR   7     0.00144766     0.00000000     0.00000000     0.00000227     0.00000000    -0.00000000     0.00000020     0.00000000
   NR   8     0.00000000    -0.00000000     0.00026084     0.00000000    -0.00000245     0.00000000     0.00000000    -0.00000000
   NR   9     0.00000000    -0.00050513    -0.00000000    -0.00000000    -0.00000000    -0.00000246    -0.00000000    -0.00008687
   NR  10    -0.00000000    -0.00000000     0.00000000     0.00000000     0.00000000     0.00000000     0.00000000     0.00000000
   NR  11    -0.99999885    -0.00000002     0.00000000     0.00016139    -0.00000000     0.00000000    -0.00042984     0.00000000
   NR  12    -0.00000000    -0.00000043     0.00000000    -0.00000000     0.00000000     0.00000000     0.00000000    -0.00000000
   NR  13    -0.00000002     0.99999873    -0.00000000    -0.00000000    -0.00000000    -0.00042984    -0.00000000    -0.00000190
   NR  14     0.00000000    -0.00042984    -0.00000000     0.00000000    -0.00001096    -0.99999991    -0.00000000     0.00001677
   NR  15     0.00000000     0.00000000    -0.00046335     0.00000000     0.99999989    -0.00001096    -0.00000016    -0.00000000
   NR  16    -0.00042984    -0.00000000    -0.00000000    -0.00000792     0.00000016    -0.00000000     0.99999991    -0.00000000
rescaling new expansion vector ... old norm=   4372.0065775276

 model space basis from reindexls .. 
 --SO-CI-------         -----NR-CI-------             ---model space---- 
 Gamma  root             S   irrep   root                S   ms* 
A          1             1   A         1                 1   0+
A          2             1   A         2                 1   0+
A          3             1   A         3                 1   0+
A          4             1   A         4                 1   0+
A          5             3   A         1                 3   0+
A          6             3   A         1                 3   1+
A          7             3   A         1                 3   1-
A          8             3   A         2                 3   0+
A          9             3   A         2                 3   1+
A         10             3   A         2                 3   1-
A         11             3   A         3                 3   0+
A         12             3   A         3                 3   1+
A         13             3   A         3                 3   1-
A         14             3   A         4                 3   0+
A         15             3   A         4                 3   1+
A         16             3   A         4                 3   1-

************************** SUMMARY *********************************

--------------  SO matrix for irrep A in eV ---------------- 
|1,0+;1,A,1>  -984.182   
|1,0+;1,A,2>     0.000    -979.873   
|1,0+;1,A,3>     0.000       0.000    -979.552   
|1,0+;1,A,4>     0.000       0.000       0.000    -978.085   
|3,0+;3,A,1>     0.000       0.000       0.000       0.000    -980.168   
|3,1+;3,A,1>    -0.000       0.000      -0.000      -0.000      -0.000    -980.168   
|3,1-;3,A,1>     0.000       0.000       0.000      -0.000       0.000       0.000    -980.168   
|3,0+;3,A,2>     0.000       0.000       0.000       0.000       0.000      -0.000       0.000    -980.032   
|3,1+;3,A,2>    -0.000      -0.000      -0.000       0.000       0.000       0.000      -0.000       0.000    -980.032   
|3,1-;3,A,2>    -0.000      -0.000       0.000      -0.000      -0.000       0.000       0.000      -0.000      -0.000    -980.032   
|3,0+;3,A,3>     0.000       0.000       0.000      -0.000       0.000       0.000      -0.000       0.000      -0.000       0.000    -979.945   
|3,1+;3,A,3>     0.001      -0.000      -0.000       0.000      -0.000       0.000       0.000       0.000       0.000       0.000       0.000    -979.945   
|3,1-;3,A,3>     0.000      -0.000      -0.000       0.000       0.000      -0.000       0.000      -0.000      -0.000       0.000       0.000       0.000    -979.945   
|3,0+;3,A,4>    -0.000       0.000      -0.000      -0.000       0.000       0.000       0.000       0.000       0.000      -0.000       0.000      -0.000       0.000    -979.479   
|3,1+;3,A,4>    -0.000       0.000      -0.000       0.000      -0.000       0.000       0.000      -0.000       0.000       0.000       0.000       0.000      -0.000       0.000    -979.479   
|3,1-;3,A,4>     0.000       0.000       0.000       0.000      -0.000      -0.000       0.000       0.000      -0.000       0.000      -0.000       0.000       0.000       0.000      -0.000    -979.479   

--------------  SO matrix for irrep A in cm-1 ------------------- 
Eref = -36.16804191
|1,0+;1,A,1>      0.00   
|1,0+;1,A,2>      0.00    34758.43   
|1,0+;1,A,3>      0.00        0.00    37345.06   
|1,0+;1,A,4>      0.00        0.00        0.00    49178.69   
|3,0+;3,A,1>      0.00        0.00        0.00        0.42    32375.33   
|3,1+;3,A,1>      0.00        2.41        0.00        0.00        0.00    32375.33   
|3,1-;3,A,1>      0.00        0.00        0.01        0.00        0.00        0.00    32375.33   
|3,0+;3,A,2>      0.00        0.33        0.00        0.00        0.00       -0.01        0.00    33478.26   
|3,1+;3,A,2>      0.00        0.00        0.00        1.36        0.01        0.00        0.00        0.00    33478.26   
|3,1-;3,A,2>     -0.00        0.00        0.00        0.00        0.00        0.00        0.00        0.00        0.00    33478.26   
|3,0+;3,A,3>      0.00        0.00        0.51        0.00        0.00        0.00       -2.61        0.00        0.00        0.00    34179.32   
|3,1+;3,A,3>      4.71        0.00        0.00        0.00        0.00        0.00        0.00        0.00        0.00        0.35        0.00    34179.32   
|3,1-;3,A,3>      0.00        0.00        0.00        0.03        2.61        0.00        0.00        0.00       -0.35        0.00        0.00        0.00    34179.32   
|3,0+;3,A,4>      0.00        0.00        0.00       -0.19        0.00        0.00        0.00        0.00        0.01        0.00        0.00        0.00        1.61    37932.60   
|3,1+;3,A,4>      0.00        1.47        0.00        0.00        0.00        0.00        0.00       -0.01        0.00        0.00        0.00        0.00        0.00        0.00    37932.60   
|3,1-;3,A,4>      0.00        0.00        0.00        0.00        0.00        0.00        0.00        0.00        0.00        0.00       -1.61        0.00        0.00        0.00        0.00    37932.60   


 ** perturbational estimate of Spin-Orbit CI energies and wavefunctions in model space basis** 

                      A  1         A  2         A  3         A  4         A  5         A  6         A  7         A  8

            energy  -286.09498300  -285.94747039  -285.94747039  -285.94747039  -285.94244510  -285.94244510  -285.94244510  -285.93925081
          
   |1,0+;1,A,1>    -0.99999999     0.00000000    -0.00000000    -0.00000000    -0.00000000     0.00000021     0.00000000    -0.00013772
   |1,0+;1,A,2>     0.00000000    -0.00000000     0.00000000    -0.00101260     0.00000000     0.00000000    -0.00026083     0.00000000
   |1,0+;1,A,3>     0.00000000    -0.00000000     0.00000251     0.00000000     0.00000000     0.00000000    -0.00000000    -0.00000000
   |1,0+;1,A,4>     0.00000000    -0.00002477    -0.00000000     0.00000000    -0.00008687    -0.00000000    -0.00000000     0.00000000
   |3,0+;3,A,1>     0.00000000     0.99999895     0.00000033    -0.00000181     0.00001203     0.00000000     0.00000000    -0.00000000
   |3,1+;3,A,1>    -0.00000000     0.00000181     0.00000000     0.99999949     0.00000000     0.00000000    -0.00001143    -0.00000000
   |3,1-;3,A,1>     0.00000000     0.00000033    -0.99999895     0.00000000    -0.00000000    -0.00000000     0.00000000    -0.00000000
   |3,0+;3,A,2>    -0.00000000     0.00000000     0.00000000     0.00001117    -0.00000488    -0.00001785     0.99999997    -0.00000000
   |3,1+;3,A,2>    -0.00000000    -0.00001130    -0.00000000     0.00000000     0.99999987     0.00000603     0.00000488     0.00000000
   |3,1-;3,A,2>    -0.00000014     0.00000000     0.00000000    -0.00000000     0.00000603    -0.99999987    -0.00001785    -0.00050514
   |3,0+;3,A,3>     0.00000000     0.00000000    -0.00144765    -0.00000000     0.00000000     0.00000000     0.00000000     0.00000000
   |3,1+;3,A,3>     0.00013772     0.00000000     0.00000000    -0.00000000    -0.00000000     0.00050514     0.00000001    -0.99999986
   |3,1-;3,A,3>     0.00000000    -0.00144766    -0.00000000     0.00000000     0.00050511     0.00000000     0.00000000    -0.00000043
   |3,0+;3,A,4>    -0.00000000     0.00000042     0.00000000    -0.00000000    -0.00000267    -0.00000000    -0.00000000     0.00000000
   |3,1+;3,A,4>    -0.00000000     0.00000000     0.00000000     0.00000027    -0.00000000    -0.00000000     0.00000257     0.00000000
   |3,1-;3,A,4>     0.00000000     0.00000000    -0.00000042     0.00000000     0.00000000     0.00000000    -0.00000000     0.00000000

                      A  9         A 10         A 11         A 12         A 13         A 14         A 15         A 16

            energy  -285.93925080  -285.93925080  -285.93661219  -285.92482667  -285.92214966  -285.92214966  -285.92214966  -285.87090879
          
   |1,0+;1,A,1>    -0.00000000    -0.00000000     0.00000000     0.00000000    -0.00000000     0.00000000     0.00000000    -0.00000000
   |1,0+;1,A,2>     0.00000000     0.00000000     0.99999935    -0.00000000     0.00046335    -0.00000001    -0.00000000    -0.00000000
   |1,0+;1,A,3>     0.00016139     0.00000000     0.00000000     0.99999999    -0.00000000     0.00000000     0.00000799     0.00000000
   |1,0+;1,A,4>     0.00000000    -0.00000190    -0.00000000     0.00000000    -0.00000000    -0.00001677    -0.00000000    -1.00000000
   |3,0+;3,A,1>    -0.00000000     0.00144765     0.00000000     0.00000000    -0.00000000    -0.00000020    -0.00000000    -0.00002478
   |3,1+;3,A,1>    -0.00000000    -0.00000000     0.00101260    -0.00000000     0.00000020    -0.00000000    -0.00000000     0.00000000
   |3,1-;3,A,1>     0.00144766     0.00000000     0.00000000     0.00000227     0.00000000    -0.00000000     0.00000020     0.00000000
   |3,0+;3,A,2>     0.00000000    -0.00000000     0.00026084     0.00000000    -0.00000245     0.00000000     0.00000000    -0.00000000
   |3,1+;3,A,2>     0.00000000    -0.00050513    -0.00000000    -0.00000000    -0.00000000    -0.00000246    -0.00000000    -0.00008687
   |3,1-;3,A,2>    -0.00000000    -0.00000000     0.00000000     0.00000000     0.00000000     0.00000000     0.00000000     0.00000000
   |3,0+;3,A,3>    -0.99999885    -0.00000002     0.00000000     0.00016139    -0.00000000     0.00000000    -0.00042984     0.00000000
   |3,1+;3,A,3>    -0.00000000    -0.00000043     0.00000000    -0.00000000     0.00000000     0.00000000     0.00000000    -0.00000000
   |3,1-;3,A,3>    -0.00000002     0.99999873    -0.00000000    -0.00000000    -0.00000000    -0.00042984    -0.00000000    -0.00000190
   |3,0+;3,A,4>     0.00000000    -0.00042984    -0.00000000     0.00000000    -0.00001096    -0.99999991    -0.00000000     0.00001677
   |3,1+;3,A,4>     0.00000000     0.00000000    -0.00046335     0.00000000     0.99999989    -0.00001096    -0.00000016    -0.00000000
   |3,1-;3,A,4>    -0.00042984    -0.00000000    -0.00000000    -0.00000792     0.00000016    -0.00000000     0.99999991    -0.00000000
rescaling new expansion vector ... old norm=   4372.0065775276

Sorted Energies:
1  -286.09498300 
2  -285.94747039 
3  -285.94747039 
4  -285.94747039 
5  -285.94244510 
6  -285.94244510 
7  -285.94244510 
8  -285.93925081 
9  -285.93925080 
10  -285.93925080 
11  -285.93661219 
12  -285.92482667 
13  -285.92214966 
14  -285.92214966 
15  -285.92214966 
16  -285.87090879 
Not computing transition moment with identical bra and ket.
 Calculating transition moment for (1,1) => (1,2)
 starting transci.x -m 200000 at Wed May 18 11:42:20 EDT 2022

 -------------------- transci.x ------------------------

                          State No. 1            State No. 2

   Space symmetry:           a                      a   
   No. of CSFs:          ********               ********
   State energies:      -286.09498300          -285.93661220  a.u.

   Transition energy:     0.15837080  a.u.
   Transition energy:     4.31        eV

       Transition moment components:

                 x            y            z

electron         -0.022840    -0.000000    -0.000000  e*bohr
frozen core       0.000000     0.000000     0.000000  e*bohr
total (elec)     -0.022840    -0.000000    -0.000000  e*bohr


   Tr.dipole length:     0.022840    e*bohr
   Oscillator strength :  0.000055
   Einstein A coef.:     0.4438E+05  1/sec
   Einstein B coef.:     0.2117E+06  sec/g

                 x            y            z

<L> electron     0.000000    -0.310261     0.000000  e*bohr


   <L> value length:     0.310261    e*bohr
 --------------------------------------------------- 
  Calculating transition moment for (1,1) => (1,3)
 starting transci.x -m 200000 at Wed May 18 11:44:34 EDT 2022

 -------------------- transci.x ------------------------

                          State No. 1            State No. 2

   Space symmetry:           a                      a   
   No. of CSFs:          ********               ********
   State energies:      -286.09498300          -285.92482667  a.u.

   Transition energy:     0.17015633  a.u.
   Transition energy:     4.63        eV

       Transition moment components:

                 x            y            z

electron          0.000000    -0.589503    -0.000000  e*bohr
frozen core       0.000000     0.000000     0.000000  e*bohr
total (elec)      0.000000    -0.589503    -0.000000  e*bohr


   Tr.dipole length:     0.589503    e*bohr
   Oscillator strength :  0.039421
   Einstein A coef.:     0.3667E+08  1/sec
   Einstein B coef.:     0.1410E+09  sec/g

                 x            y            z

<L> electron     0.695447     0.000000    -0.000000  e*bohr


   <L> value length:     0.695447    e*bohr
 --------------------------------------------------- 
  Calculating transition moment for (1,1) => (1,4)
 starting transci.x -m 200000 at Wed May 18 11:46:45 EDT 2022

 -------------------- transci.x ------------------------

                          State No. 1            State No. 2

   Space symmetry:           a                      a   
   No. of CSFs:          ********               ********
   State energies:      -286.09498300          -285.87090879  a.u.

   Transition energy:     0.22407421  a.u.
   Transition energy:     6.10        eV

       Transition moment components:

                 x            y            z

electron          0.000000    -0.000000    -0.000000  e*bohr
frozen core       0.000000     0.000000     0.000000  e*bohr
total (elec)      0.000000    -0.000000    -0.000000  e*bohr


   Tr.dipole length:     0.000000    e*bohr
   Oscillator strength :  0.000000
   Einstein A coef.:     0.8002E-11  1/sec
   Einstein B coef.:     0.1348E-10  sec/g

                 x            y            z

<L> electron     0.000000     0.000000     0.456359  e*bohr


   <L> value length:     0.456359    e*bohr
 --------------------------------------------------- 
 Not computing transition moment with identical bra and ket.
 Calculating transition moment for (1,2) => (1,3)
 starting transci.x -m 200000 at Wed May 18 11:49:01 EDT 2022

 -------------------- transci.x ------------------------

                          State No. 1            State No. 2

   Space symmetry:           a                      a   
   No. of CSFs:          ********               ********
   State energies:      -285.93661220          -285.92482667  a.u.

   Transition energy:     0.01178553  a.u.
   Transition energy:     0.32        eV

       Transition moment components:

                 x            y            z

electron         -0.000000    -0.000000     0.000000  e*bohr
frozen core       0.000000     0.000000     0.000000  e*bohr
total (elec)     -0.000000    -0.000000     0.000000  e*bohr


   Tr.dipole length:     0.000000    e*bohr
   Oscillator strength :  0.000000
   Einstein A coef.:     0.4351E-12  1/sec
   Einstein B coef.:     0.5036E-08  sec/g

                 x            y            z

<L> electron    -0.000000     0.000000     0.136749  e*bohr


   <L> value length:     0.136749    e*bohr
 --------------------------------------------------- 
  Calculating transition moment for (1,2) => (1,4)
 starting transci.x -m 200000 at Wed May 18 11:51:13 EDT 2022

 -------------------- transci.x ------------------------

                          State No. 1            State No. 2

   Space symmetry:           a                      a   
   No. of CSFs:          ********               ********
   State energies:      -285.93661220          -285.87090879  a.u.

   Transition energy:     0.06570341  a.u.
   Transition energy:     1.79        eV

       Transition moment components:

                 x            y            z

electron          0.000000    -0.195689    -0.000000  e*bohr
frozen core       0.000000     0.000000     0.000000  e*bohr
total (elec)      0.000000    -0.195689    -0.000000  e*bohr


   Tr.dipole length:     0.195689    e*bohr
   Oscillator strength :  0.001677
   Einstein A coef.:     0.2326E+06  1/sec
   Einstein B coef.:     0.1554E+08  sec/g

                 x            y            z

<L> electron     0.569115     0.000000     0.000000  e*bohr


   <L> value length:     0.569115    e*bohr
 --------------------------------------------------- 
 Not computing transition moment with identical bra and ket.
 Calculating transition moment for (1,3) => (1,4)
 starting transci.x -m 200000 at Wed May 18 11:53:22 EDT 2022

 -------------------- transci.x ------------------------

                          State No. 1            State No. 2

   Space symmetry:           a                      a   
   No. of CSFs:          ********               ********
   State energies:      -285.92482667          -285.87090879  a.u.

   Transition energy:     0.05391787  a.u.
   Transition energy:     1.47        eV

       Transition moment components:

                 x            y            z

electron          0.023484     0.000000     0.000000  e*bohr
frozen core       0.000000     0.000000     0.000000  e*bohr
total (elec)      0.023484     0.000000     0.000000  e*bohr


   Tr.dipole length:     0.023484    e*bohr
   Oscillator strength :  0.000020
   Einstein A coef.:     0.1852E+04  1/sec
   Einstein B coef.:     0.2238E+06  sec/g

                 x            y            z

<L> electron     0.000000     0.136988     0.000000  e*bohr


   <L> value length:     0.136988    e*bohr
 --------------------------------------------------- 
 Not computing transition moment with identical bra and ket.
Not computing transition moment with identical bra and ket.
 Calculating transition moment for (2,1) => (2,2)
 starting transci.x -m 200000 at Wed May 18 11:55:31 EDT 2022

 -------------------- transci.x ------------------------

                          State No. 1            State No. 2

   Space symmetry:           a                      a   
   No. of CSFs:          ********               ********
   State energies:      -285.94747037          -285.94244510  a.u.

   Transition energy:     0.00502528  a.u.
   Transition energy:     0.14        eV

       Transition moment components:

                 x            y            z

electron          0.000000    -0.324381     0.000000  e*bohr
frozen core       0.000000     0.000000     0.000000  e*bohr
total (elec)      0.000000    -0.324381     0.000000  e*bohr


   Tr.dipole length:     0.324381    e*bohr
   Oscillator strength :  0.000353
   Einstein A coef.:     0.2860E+03  1/sec
   Einstein B coef.:     0.4270E+08  sec/g

                 x            y            z

<L> electron    -1.142971    -0.000000    -0.000000  e*bohr


   <L> value length:     1.142971    e*bohr
 --------------------------------------------------- 
  Calculating transition moment for (2,1) => (2,3)
 starting transci.x -m 200000 at Wed May 18 11:59:38 EDT 2022

 -------------------- transci.x ------------------------

                          State No. 1            State No. 2

   Space symmetry:           a                      a   
   No. of CSFs:          ********               ********
   State energies:      -285.94747037          -285.93925082  a.u.

   Transition energy:     0.00821956  a.u.
   Transition energy:     0.22        eV

       Transition moment components:

                 x            y            z

electron         -0.011650    -0.000000    -0.000000  e*bohr
frozen core       0.000000     0.000000     0.000000  e*bohr
total (elec)     -0.011650    -0.000000    -0.000000  e*bohr


   Tr.dipole length:     0.011650    e*bohr
   Oscillator strength :  0.000001
   Einstein A coef.:     0.1614E+01  1/sec
   Einstein B coef.:     0.5508E+05  sec/g

                 x            y            z

<L> electron    -0.000000     0.146742     0.000000  e*bohr


   <L> value length:     0.146742    e*bohr
 --------------------------------------------------- 
  Calculating transition moment for (2,1) => (2,4)
 starting transci.x -m 200000 at Wed May 18 12:03:48 EDT 2022

 -------------------- transci.x ------------------------

                          State No. 1            State No. 2

   Space symmetry:           a                      a   
   No. of CSFs:          ********               ********
   State energies:      -285.94747037          -285.92214967  a.u.

   Transition energy:     0.02532071  a.u.
   Transition energy:     0.69        eV

       Transition moment components:

                 x            y            z

electron          0.000000    -0.000000     0.169013  e*bohr
frozen core       0.000000     0.000000     0.000000  e*bohr
total (elec)      0.000000    -0.000000     0.169013  e*bohr


   Tr.dipole length:     0.169013    e*bohr
   Oscillator strength :  0.000482
   Einstein A coef.:     0.9933E+04  1/sec
   Einstein B coef.:     0.1159E+08  sec/g

                 x            y            z

<L> electron     0.000000    -0.000000    -0.000000  e*bohr


   <L> value length:     0.000000    e*bohr
 --------------------------------------------------- 
 Not computing transition moment with identical bra and ket.
 Calculating transition moment for (2,2) => (2,3)
 starting transci.x -m 200000 at Wed May 18 12:07:56 EDT 2022

 -------------------- transci.x ------------------------

                          State No. 1            State No. 2

   Space symmetry:           a                      a   
   No. of CSFs:          ********               ********
   State energies:      -285.94244510          -285.93925082  a.u.

   Transition energy:     0.00319428  a.u.
   Transition energy:     0.09        eV

       Transition moment components:

                 x            y            z

electron          0.000000     0.000000     0.000000  e*bohr
frozen core       0.000000     0.000000     0.000000  e*bohr
total (elec)      0.000000     0.000000     0.000000  e*bohr


   Tr.dipole length:     0.000000    e*bohr
   Oscillator strength :  0.000000
   Einstein A coef.:     0.2362E-12  1/sec
   Einstein B coef.:     0.1373E-06  sec/g

                 x            y            z

<L> electron    -0.000000    -0.000000     0.097979  e*bohr


   <L> value length:     0.097979    e*bohr
 --------------------------------------------------- 
  Calculating transition moment for (2,2) => (2,4)
 starting transci.x -m 200000 at Wed May 18 12:11:58 EDT 2022

 -------------------- transci.x ------------------------

                          State No. 1            State No. 2

   Space symmetry:           a                      a   
   No. of CSFs:          ********               ********
   State energies:      -285.94244510          -285.92214967  a.u.

   Transition energy:     0.02029543  a.u.
   Transition energy:     0.55        eV

       Transition moment components:

                 x            y            z

electron          0.000000     0.065332     0.000000  e*bohr
frozen core       0.000000     0.000000     0.000000  e*bohr
total (elec)      0.000000     0.065332     0.000000  e*bohr


   Tr.dipole length:     0.065332    e*bohr
   Oscillator strength :  0.000058
   Einstein A coef.:     0.7642E+03  1/sec
   Einstein B coef.:     0.1732E+07  sec/g

                 x            y            z

<L> electron     0.505648     0.000000    -0.000000  e*bohr


   <L> value length:     0.505648    e*bohr
 --------------------------------------------------- 
 Not computing transition moment with identical bra and ket.
 Calculating transition moment for (2,3) => (2,4)
 starting transci.x -m 200000 at Wed May 18 12:16:01 EDT 2022

 -------------------- transci.x ------------------------

                          State No. 1            State No. 2

   Space symmetry:           a                      a   
   No. of CSFs:          ********               ********
   State energies:      -285.93925082          -285.92214967  a.u.

   Transition energy:     0.01710115  a.u.
   Transition energy:     0.47        eV

       Transition moment components:

                 x            y            z

electron         -0.035391     0.000000     0.000000  e*bohr
frozen core       0.000000     0.000000     0.000000  e*bohr
total (elec)     -0.035391     0.000000     0.000000  e*bohr


   Tr.dipole length:     0.035391    e*bohr
   Oscillator strength :  0.000014
   Einstein A coef.:     0.1342E+03  1/sec
   Einstein B coef.:     0.5083E+06  sec/g

                 x            y            z

<L> electron     0.000000    -0.085790    -0.000000  e*bohr


   <L> value length:     0.085790    e*bohr
 --------------------------------------------------- 
 Not computing transition moment with identical bra and ket.
 --- ci properties for state 1 of  DRT 1 ----
starting exptvl.x -m 200000  at Wed May 18 12:20:04 EDT 2022

 -------------------- exptvl.x ------------------------
  === dipole moment === 
                     X               Y               Z   
   orign x       0.00000000      0.00000000      0.00000000
   orign y       0.00000000      0.00000000      0.00000000
   orign z       0.00000000      0.00000000      0.00000000
   nuclear       0.00000000      0.00000000     -0.92775769
   electronic   -0.00000000     -0.00000000      0.13699247
   total        -0.00000000     -0.00000000     -0.79076522
   total Dipole moment =   2.00992670    Debye
 !timer: exptvl required                 cpu_time=     0.191 walltime=     0.599
 --------------------------------------------------- 
  --- ci properties for state 2 of  DRT 1 ----
starting exptvl.x -m 200000  at Wed May 18 12:20:05 EDT 2022

 -------------------- exptvl.x ------------------------
  === dipole moment === 
                     X               Y               Z   
   orign x       0.00000000      0.00000000      0.00000000
   orign y       0.00000000      0.00000000      0.00000000
   orign z       0.00000000      0.00000000      0.00000000
   nuclear       0.00000000      0.00000000     -0.92775769
   electronic   -0.00000000     -0.00000000      4.06823896
   total        -0.00000000     -0.00000000      3.14048127
   total Dipole moment =   7.98231513    Debye
 --------------------------------------------------- 
  --- ci properties for state 3 of  DRT 1 ----
starting exptvl.x -m 200000  at Wed May 18 12:20:05 EDT 2022

 -------------------- exptvl.x ------------------------
  === dipole moment === 
                     X               Y               Z   
   orign x       0.00000000      0.00000000      0.00000000
   orign y       0.00000000      0.00000000      0.00000000
   orign z       0.00000000      0.00000000      0.00000000
   nuclear       0.00000000      0.00000000     -0.92775769
   electronic   -0.00000000     -0.00000000     -0.31233064
   total        -0.00000000     -0.00000000     -1.24008833
   total Dipole moment =   3.15199326    Debye
 --------------------------------------------------- 
  --- ci properties for state 4 of  DRT 1 ----
starting exptvl.x -m 200000  at Wed May 18 12:20:06 EDT 2022

 -------------------- exptvl.x ------------------------
  === dipole moment === 
                     X               Y               Z   
   orign x       0.00000000      0.00000000      0.00000000
   orign y       0.00000000      0.00000000      0.00000000
   orign z       0.00000000      0.00000000      0.00000000
   nuclear       0.00000000      0.00000000     -0.92775769
   electronic   -0.00000000     -0.00000000      5.02798044
   total        -0.00000000     -0.00000000      4.10022275
   total Dipole moment =  10.42173706    Debye
 --------------------------------------------------- 
  --- ci properties for state 1 of  DRT 2 ----
starting exptvl.x -m 200000  at Wed May 18 12:20:06 EDT 2022

 -------------------- exptvl.x ------------------------
  === dipole moment === 
                     X               Y               Z   
   orign x       0.00000000      0.00000000      0.00000000
   orign y       0.00000000      0.00000000      0.00000000
   orign z       0.00000000      0.00000000      0.00000000
   nuclear       0.00000000      0.00000000     -0.92775769
   electronic   -0.00000000      0.00000000      0.10069511
   total        -0.00000000      0.00000000     -0.82706258
   total Dipole moment =   2.10218549    Debye
 --------------------------------------------------- 
  --- ci properties for state 2 of  DRT 2 ----
starting exptvl.x -m 200000  at Wed May 18 12:20:06 EDT 2022

 -------------------- exptvl.x ------------------------
  === dipole moment === 
                     X               Y               Z   
   orign x       0.00000000      0.00000000      0.00000000
   orign y       0.00000000      0.00000000      0.00000000
   orign z       0.00000000      0.00000000      0.00000000
   nuclear       0.00000000      0.00000000     -0.92775769
   electronic   -0.00000000     -0.00000000     -0.59696334
   total        -0.00000000     -0.00000000     -1.52472103
   total Dipole moment =   3.87545815    Debye
 --------------------------------------------------- 
  --- ci properties for state 3 of  DRT 2 ----
starting exptvl.x -m 200000  at Wed May 18 12:20:07 EDT 2022

 -------------------- exptvl.x ------------------------
  === dipole moment === 
                     X               Y               Z   
   orign x       0.00000000      0.00000000      0.00000000
   orign y       0.00000000      0.00000000      0.00000000
   orign z       0.00000000      0.00000000      0.00000000
   nuclear       0.00000000      0.00000000     -0.92775769
   electronic   -0.00000000     -0.00000000      4.01498487
   total        -0.00000000     -0.00000000      3.08722718
   total Dipole moment =   7.84695659    Debye
 --------------------------------------------------- 
  --- ci properties for state 4 of  DRT 2 ----
starting exptvl.x -m 200000  at Wed May 18 12:20:07 EDT 2022

 -------------------- exptvl.x ------------------------
  === dipole moment === 
                     X               Y               Z   
   orign x       0.00000000      0.00000000      0.00000000
   orign y       0.00000000      0.00000000      0.00000000
   orign z       0.00000000      0.00000000      0.00000000
   nuclear       0.00000000      0.00000000     -0.92775769
   electronic   -0.00000000     -0.00000000     -0.21199828
   total        -0.00000000     -0.00000000     -1.13975597
   total Dipole moment =   2.89697359    Debye
 --------------------------------------------------- 
 starting mo_convert.x at Wed May 18 12:20:07 EDT 2022

 -------------------- mo_convert.x ------------------------
 --------------------------------------------------- 
 starting pymolcas molcas.input.molden > molcas.output.molden at Wed May 18 12:20:08 EDT 2022

Generating link ln -s ./molcas.OrdInt ORDINT 
 -------------------- molden ------------------------
 --------------------------------------------------- 
 starting mo_convert.x at Wed May 18 12:20:33 EDT 2022

 -------------------- mo_convert.x ------------------------
 --------------------------------------------------- 
 starting pymolcas molcas.input.molden > molcas.output.molden at Wed May 18 12:20:33 EDT 2022

Generating link ln -s ./molcas.OrdInt ORDINT 
 -------------------- molden ------------------------
 --------------------------------------------------- 
 starting mo_convert.x at Wed May 18 12:20:51 EDT 2022

 -------------------- mo_convert.x ------------------------
 --------------------------------------------------- 
 starting pymolcas molcas.input.molden > molcas.output.molden at Wed May 18 12:20:51 EDT 2022

Generating link ln -s ./molcas.OrdInt ORDINT 
 -------------------- molden ------------------------
 --------------------------------------------------- 
 starting mo_convert.x at Wed May 18 12:21:05 EDT 2022

 -------------------- mo_convert.x ------------------------
 --------------------------------------------------- 
 starting pymolcas molcas.input.molden > molcas.output.molden at Wed May 18 12:21:06 EDT 2022

Generating link ln -s ./molcas.OrdInt ORDINT 
 -------------------- molden ------------------------
 --------------------------------------------------- 
 starting mo_convert.x at Wed May 18 12:21:20 EDT 2022

 -------------------- mo_convert.x ------------------------
 --------------------------------------------------- 
 starting pymolcas molcas.input.molden > molcas.output.molden at Wed May 18 12:21:20 EDT 2022

Generating link ln -s ./molcas.OrdInt ORDINT 
 -------------------- molden ------------------------
 --------------------------------------------------- 
 starting mo_convert.x at Wed May 18 12:21:34 EDT 2022

 -------------------- mo_convert.x ------------------------
 --------------------------------------------------- 
 starting pymolcas molcas.input.molden > molcas.output.molden at Wed May 18 12:21:35 EDT 2022

Generating link ln -s ./molcas.OrdInt ORDINT 
 -------------------- molden ------------------------
 --------------------------------------------------- 
 starting mo_convert.x at Wed May 18 12:21:48 EDT 2022

 -------------------- mo_convert.x ------------------------
 --------------------------------------------------- 
 starting pymolcas molcas.input.molden > molcas.output.molden at Wed May 18 12:21:51 EDT 2022

Generating link ln -s ./molcas.OrdInt ORDINT 
 -------------------- molden ------------------------
 --------------------------------------------------- 
 starting mo_convert.x at Wed May 18 12:22:05 EDT 2022

 -------------------- mo_convert.x ------------------------
 --------------------------------------------------- 
 starting pymolcas molcas.input.molden > molcas.output.molden at Wed May 18 12:22:05 EDT 2022

Generating link ln -s ./molcas.OrdInt ORDINT 
 -------------------- molden ------------------------
 --------------------------------------------------- 
 starting mo_convert.x at Wed May 18 12:22:20 EDT 2022

 -------------------- mo_convert.x ------------------------
 --------------------------------------------------- 
 starting pymolcas molcas.input.molden > molcas.output.molden at Wed May 18 12:22:20 EDT 2022

Generating link ln -s ./molcas.OrdInt ORDINT 
 -------------------- molden ------------------------
 --------------------------------------------------- 
 starting mo_convert.x at Wed May 18 12:22:34 EDT 2022

 -------------------- mo_convert.x ------------------------
 --------------------------------------------------- 
 starting pymolcas molcas.input.molden > molcas.output.molden at Wed May 18 12:22:35 EDT 2022

Generating link ln -s ./molcas.OrdInt ORDINT 
 -------------------- molden ------------------------
 --------------------------------------------------- 
 starting mo_convert.x at Wed May 18 12:22:49 EDT 2022

 -------------------- mo_convert.x ------------------------
 --------------------------------------------------- 
 starting pymolcas molcas.input.molden > molcas.output.molden at Wed May 18 12:22:49 EDT 2022

Generating link ln -s ./molcas.OrdInt ORDINT 
 -------------------- molden ------------------------
 --------------------------------------------------- 
 starting mo_convert.x at Wed May 18 12:23:03 EDT 2022

 -------------------- mo_convert.x ------------------------
 --------------------------------------------------- 
 starting pymolcas molcas.input.molden > molcas.output.molden at Wed May 18 12:23:04 EDT 2022

Generating link ln -s ./molcas.OrdInt ORDINT 
 -------------------- molden ------------------------
 --------------------------------------------------- 
 starting mo_convert.x at Wed May 18 12:23:18 EDT 2022

 -------------------- mo_convert.x ------------------------
 --------------------------------------------------- 
 starting pymolcas molcas.input.molden > molcas.output.molden at Wed May 18 12:23:18 EDT 2022

Generating link ln -s ./molcas.OrdInt ORDINT 
 -------------------- molden ------------------------
 --------------------------------------------------- 
 starting mo_convert.x at Wed May 18 12:23:32 EDT 2022

 -------------------- mo_convert.x ------------------------
 --------------------------------------------------- 
 starting pymolcas molcas.input.molden > molcas.output.molden at Wed May 18 12:23:32 EDT 2022

Generating link ln -s ./molcas.OrdInt ORDINT 
 -------------------- molden ------------------------
 --------------------------------------------------- 
 

 +++++++++++ STARTING GRADIENTS AND NAD. COUPLINGS CALCULATION +++++++++++ 

 Using new transition density code ... 
INFO: this is a frozen core gradient calculation
starting cidrt.x  -m 200000 < cidrtin.cigrd > cidrtls.cigrd at Wed May 18 12:23:47 EDT 2022

 -------------------- cidrt.x ------------------------
 total number of orbitals            :   246
 number of frozen core orbitals      :    18
 number of frozen virtual orbitals   :     0
 number of internal orbitals         :    14
 number of external orbitals         :   214
 spatial symmetry:   a  
 
 total number of configurations  282461366
 number of reference configurations  1666
 --------------------------------------------------- 
 starting tran.x -m 200000  at Wed May 18 12:23:54 EDT 2022

 -------------------- tran.x ------------------------
 --------------------------------------------------- 
 ---- Computing 8 gradient(s)  ----

 --- Computing gradient for DRT:1, State; 1

starting cigrd.x -m 200000 at Wed May 18 12:29:45 EDT 2022

 -------------------- cigrd.x ------------------------
 Total energy (ciudg) :  -286.094983000105 
  Effective energy     :  -286.094983011127 
  Delta E              :     0.000000011022 
  --------------------------------------------------- 
 starting tran.x -m 200000  at Wed May 18 12:34:52 EDT 2022

 -------------------- tran.x ------------------------
 --------------------------------------------------- 
 starting pymolcas molcas.input.alaska > molcas.output.alaska  at Wed May 18 12:38:54 EDT 2022

Generating link ln -s ./molcas.OrdInt ORDINT 
 -------------------- alaska ------------------------
 --------------------------------------------------- 
 cartesian gradient by alaska (MOLCAS)

 === Gradient of DRT 1, state 1 === 
  -0.172567D-08   0.394435D-08   0.178032D-01
   0.140168D-07  -0.262862D-08  -0.151208D-01
   0.870579D-09  -0.267030D-01  -0.328343D-01
  -0.652299D-09   0.267030D-01  -0.328343D-01
   0.903825D-09  -0.259079D-01   0.280518D-01
  -0.108089D-08   0.259079D-01   0.280518D-01
  -0.598001D-08   0.625125D-08   0.794335D-02
  -0.450493D-08  -0.229592D-02  -0.302597D-03
   0.300785D-09   0.229592D-02  -0.302597D-03
  -0.318468D-09   0.888793D-03   0.200541D-03
  -0.167864D-08  -0.888794D-03   0.200546D-03
  -0.473380D-09   0.128518D-02  -0.383023D-03
   0.228807D-08  -0.128518D-02  -0.383024D-03
  -0.196572D-08  -0.210202D-08  -0.905586D-04
===================================
 --- Computing gradient for DRT:1, State; 2

starting cigrd.x -m 200000 at Wed May 18 12:40:07 EDT 2022

 -------------------- cigrd.x ------------------------
 Total energy (ciudg) :  -285.936612199766 
  Effective energy     :  -285.936612211489 
  Delta E              :     0.000000011723 
  --------------------------------------------------- 
 starting tran.x -m 200000  at Wed May 18 12:45:31 EDT 2022

 -------------------- tran.x ------------------------
 --------------------------------------------------- 
 starting pymolcas molcas.input.alaska > molcas.output.alaska  at Wed May 18 12:49:36 EDT 2022

Generating link ln -s ./molcas.OrdInt ORDINT 
 -------------------- alaska ------------------------
 --------------------------------------------------- 
 cartesian gradient by alaska (MOLCAS)

 === Gradient of DRT 1, state 2 === 
  -0.105527D-07  -0.858903D-08  -0.535866D-01
   0.101366D-07  -0.197917D-08   0.402159D-01
  -0.427419D-08  -0.756209D-03  -0.539476D-01
   0.744473D-08   0.756221D-03  -0.539476D-01
   0.206832D-08  -0.134218D-01   0.459303D-01
   0.298020D-08   0.134218D-01   0.459303D-01
  -0.228719D-08   0.112206D-07   0.793030D-02
  -0.188212D-08   0.127915D-01   0.100264D-01
   0.144071D-08  -0.127915D-01   0.100264D-01
  -0.137223D-08  -0.186269D-02  -0.734280D-03
  -0.401437D-09   0.186268D-02  -0.734277D-03
  -0.108099D-09   0.277142D-03   0.113012D-02
   0.498873D-09  -0.277142D-03   0.113012D-02
  -0.369151D-08  -0.177491D-08   0.630505D-03
===================================
 --- Computing gradient for DRT:1, State; 3

starting cigrd.x -m 200000 at Wed May 18 12:50:54 EDT 2022

 -------------------- cigrd.x ------------------------
 Total energy (ciudg) :  -285.924826668461 
  Effective energy     :  -285.924826680994 
  Delta E              :     0.000000012533 
  --------------------------------------------------- 
 starting tran.x -m 200000  at Wed May 18 12:56:05 EDT 2022

 -------------------- tran.x ------------------------
 --------------------------------------------------- 
 starting pymolcas molcas.input.alaska > molcas.output.alaska  at Wed May 18 13:00:19 EDT 2022

Generating link ln -s ./molcas.OrdInt ORDINT 
 -------------------- alaska ------------------------
 --------------------------------------------------- 
 cartesian gradient by alaska (MOLCAS)

 === Gradient of DRT 1, state 3 === 
  -0.280676D-09   0.433312D-08  -0.675373D-05
   0.426033D-08  -0.960702D-08  -0.157703D-05
   0.400535D-08  -0.376104D-06   0.375437D-05
  -0.201859D-08   0.373686D-06   0.373544D-05
  -0.507752D-08   0.331576D-05   0.150758D-05
   0.588957D-08  -0.331570D-05   0.151421D-05
   0.198321D-08   0.991593D-08  -0.340817D-05
  -0.292658D-08   0.179171D-05   0.118049D-05
   0.556164D-10  -0.179259D-05   0.118002D-05
  -0.103947D-08   0.560875D-06   0.580411D-06
  -0.207956D-08  -0.561686D-06   0.583624D-06
  -0.124189D-08  -0.740482D-07  -0.828826D-06
   0.126731D-08   0.747109D-07  -0.832633D-06
  -0.279709D-08  -0.124980D-08  -0.635736D-06
===================================
 --- Computing gradient for DRT:1, State; 4

starting cigrd.x -m 200000 at Wed May 18 13:01:35 EDT 2022

 -------------------- cigrd.x ------------------------
 Total energy (ciudg) :  -285.870908793949 
  Effective energy     :  -285.870908804501 
  Delta E              :     0.000000010552 
  --------------------------------------------------- 
 starting tran.x -m 200000  at Wed May 18 13:06:49 EDT 2022

 -------------------- tran.x ------------------------
 --------------------------------------------------- 
 starting pymolcas molcas.input.alaska > molcas.output.alaska  at Wed May 18 13:11:02 EDT 2022

Generating link ln -s ./molcas.OrdInt ORDINT 
 -------------------- alaska ------------------------
 --------------------------------------------------- 
 cartesian gradient by alaska (MOLCAS)

 === Gradient of DRT 1, state 4 === 
  -0.337718D-08   0.159718D-09  -0.294596D-01
   0.943600D-08  -0.361327D-08   0.401491D-01
  -0.132869D-08  -0.228783D-01   0.146108D-02
   0.183078D-08   0.228783D-01   0.146107D-02
  -0.798445D-08  -0.357005D-01  -0.125530D-01
   0.141778D-08   0.357005D-01  -0.125530D-01
   0.262961D-08  -0.165549D-09   0.958373D-03
  -0.347465D-08   0.352546D-02   0.482280D-02
   0.519998D-09  -0.352547D-02   0.482280D-02
  -0.185671D-08  -0.209991D-02  -0.902864D-03
   0.130249D-08   0.209991D-02  -0.902864D-03
   0.148014D-08   0.187523D-03   0.388525D-03
   0.121504D-08  -0.187521D-03   0.388524D-03
  -0.181015D-08  -0.185409D-08   0.191905D-02
===================================
 --- Computing gradient for DRT:2, State; 1

starting cigrd.x -m 200000 at Wed May 18 13:12:21 EDT 2022

 -------------------- cigrd.x ------------------------
 Total energy (ciudg) :  -285.947470374120 
  Effective energy     :  -285.947470385658 
  Delta E              :     0.000000011538 
  --------------------------------------------------- 
 starting tran.x -m 200000  at Wed May 18 13:17:58 EDT 2022

 -------------------- tran.x ------------------------
 --------------------------------------------------- 
 starting pymolcas molcas.input.alaska > molcas.output.alaska  at Wed May 18 13:22:16 EDT 2022

Generating link ln -s ./molcas.OrdInt ORDINT 
 -------------------- alaska ------------------------
 --------------------------------------------------- 
 cartesian gradient by alaska (MOLCAS)

 === Gradient of DRT 2, state 1 === 
   0.115984D-08   0.343232D-08   0.265386D-01
   0.503270D-08  -0.386338D-08   0.956928D-03
   0.188758D-08  -0.229090D-02  -0.261267D-01
   0.221531D-09   0.229090D-02  -0.261267D-01
  -0.492661D-08   0.738345D-02   0.212727D-01
   0.746588D-08  -0.738345D-02   0.212727D-01
  -0.276828D-08   0.788111D-08  -0.174295D-01
  -0.406024D-08  -0.321216D-02   0.535068D-04
   0.339341D-09   0.321216D-02   0.535059D-04
  -0.139075D-08   0.930035D-03  -0.662275D-03
  -0.835606D-09  -0.930037D-03  -0.662274D-03
  -0.175834D-08   0.547808D-03   0.132957D-03
   0.186821D-08  -0.547810D-03   0.132955D-03
  -0.223525D-08  -0.711602D-09   0.593684D-03
===================================
 --- Computing gradient for DRT:2, State; 2

starting cigrd.x -m 200000 at Wed May 18 13:23:37 EDT 2022

 -------------------- cigrd.x ------------------------
 Total energy (ciudg) :  -285.942445095515 
  Effective energy     :  -285.942445108337 
  Delta E              :     0.000000012822 
  --------------------------------------------------- 
 starting tran.x -m 200000  at Wed May 18 13:29:16 EDT 2022

 -------------------- tran.x ------------------------
 --------------------------------------------------- 
 starting pymolcas molcas.input.alaska > molcas.output.alaska  at Wed May 18 13:33:29 EDT 2022

Generating link ln -s ./molcas.OrdInt ORDINT 
 -------------------- alaska ------------------------
 --------------------------------------------------- 
 cartesian gradient by alaska (MOLCAS)

 === Gradient of DRT 2, state 2 === 
  -0.347804D-08   0.115704D-08  -0.190409D-01
   0.707082D-08  -0.465471D-08   0.137421D-01
  -0.111930D-08   0.228263D-04   0.144159D-04
   0.150733D-08  -0.228298D-04   0.143827D-04
   0.246750D-08  -0.485965D-02  -0.788983D-02
   0.118501D-09   0.485965D-02  -0.788981D-02
  -0.253574D-10   0.101384D-07   0.204398D-01
  -0.284633D-08   0.135574D-02  -0.177523D-03
   0.330748D-09  -0.135574D-02  -0.177523D-03
   0.525065D-10  -0.624165D-03   0.654100D-03
  -0.760363D-09   0.624163D-03   0.654101D-03
  -0.114935D-08  -0.382969D-03   0.180461D-03
  -0.329045D-10   0.382968D-03   0.180457D-03
  -0.213576D-08  -0.162989D-08  -0.704162D-03
===================================
 --- Computing gradient for DRT:2, State; 3

starting cigrd.x -m 200000 at Wed May 18 13:34:42 EDT 2022

 -------------------- cigrd.x ------------------------
 Total energy (ciudg) :  -285.939250817414 
  Effective energy     :  -285.939250828992 
  Delta E              :     0.000000011578 
  --------------------------------------------------- 
 starting tran.x -m 200000  at Wed May 18 13:39:57 EDT 2022

 -------------------- tran.x ------------------------
 --------------------------------------------------- 
 starting pymolcas molcas.input.alaska > molcas.output.alaska  at Wed May 18 13:43:59 EDT 2022

Generating link ln -s ./molcas.OrdInt ORDINT 
 -------------------- alaska ------------------------
 --------------------------------------------------- 
 cartesian gradient by alaska (MOLCAS)

 === Gradient of DRT 2, state 3 === 
  -0.990790D-08  -0.616677D-08  -0.536831D-01
   0.139198D-07  -0.231796D-08   0.370292D-01
  -0.253836D-08  -0.158957D-02  -0.528383D-01
   0.826065D-08   0.158958D-02  -0.528384D-01
   0.163369D-08  -0.141543D-01   0.446346D-01
  -0.595391D-09   0.141543D-01   0.446346D-01
  -0.555444D-08   0.110820D-07   0.868268D-02
  -0.170654D-08   0.157316D-01   0.115687D-01
   0.126712D-08  -0.157316D-01   0.115687D-01
   0.244490D-10  -0.194683D-02  -0.743710D-03
  -0.119401D-08   0.194682D-02  -0.743708D-03
  -0.124489D-09   0.307962D-03   0.107360D-02
  -0.347318D-09  -0.307961D-03   0.107360D-02
  -0.313730D-08  -0.167860D-08   0.581492D-03
===================================
 --- Computing gradient for DRT:2, State; 4

starting cigrd.x -m 200000 at Wed May 18 13:45:13 EDT 2022

 -------------------- cigrd.x ------------------------
 Total energy (ciudg) :  -285.922149666839 
  Effective energy     :  -285.922149678530 
[...]
   2.571540E-07  -2.051126E+01  -7.397778E-07
   1.117678E-06   9.307901E+00  -1.916282E+00
   7.724461E-07   9.307901E+00   1.916282E+00
  -6.015956E-07  -8.577497E+00  -5.390118E+00
  -3.661156E-07  -8.577497E+00   5.390118E+00
  -1.249208E-07   1.593484E+01   1.229247E-06
   2.501632E-07   3.326668E-03   1.048236E-01
   4.224281E-07   3.326688E-03  -1.048238E-01
  -5.027896E-07  -1.610800E-02  -1.312401E-01
  -2.718319E-07  -1.610739E-02   1.312395E-01
   1.953572E-07   8.520218E-02  -7.468446E-02
  -9.906381E-08   8.520159E-02   7.468386E-02
   1.490497E-07   3.696470E-01  -2.881652E-07
===================================

 Norm of the nonadiabatic coupling vector: 
 |h(drt2.state1,drt2.state2)|= 32.6730354213883 

 Cross-check of the non-adiabatic coupling term:
  DeltaE= -0.00502527859998736

  <L>*dE form CIGRD   :   -0.0000000000     0.0004311187     0.0000000000
  <L>*dE form NADCOUPL:    0.0057452939    -0.0000000001    -0.0000000012
 -------------------------------------------------------------------------
  Difference          :   -0.0057452939     0.0004311188     0.0000000012

 NOTE: This test is meaningless at a point of conical intersection!


 -------- NAD. COUPLING for DRT:2 STATE:1 AND DRT:2 STATE:3 --------
opening file =ciudgls.drt2.sp
opening file =ciudgls.drt2.sp
extracted: energy1= -285.9474703740   energy2=-285.9392508173   deltae=-0.00821955669999852
starting cigrd.x -m 200000 at Wed May 18 15:15:55 EDT 2022

 -------------------- cigrd.x ------------------------
 Total energy (ciudg) :    -0.000000000605 
  Effective energy     :     0.000000000340 
  Delta E              :    -0.000000000945 
  --------------------------------------------------- 
 starting tran.x -m 200000  at Wed May 18 15:21:00 EDT 2022

 -------------------- tran.x ------------------------
 --------------------------------------------------- 
  adding keyword NONUC to alaska input
starting pymolcas molcas.input.alaska > molcas.output.alaska  at Wed May 18 15:24:59 EDT 2022

Generating link ln -s ./molcas.OrdInt ORDINT 
 -------------------- alaska ------------------------
 --------------------------------------------------- 
 cartesian gradient by alaska (MOLCAS)

 Calculating the Dx(r,s) term of D[CSF] nonadiabatic coupling term.
dxcalc: INPUT LINE SEPARATOR 
 
starting tran.x -m 200000  at Wed May 18 15:25:58 EDT 2022

 -------------------- tran.x ------------------------
 --------------------------------------------------- 
 starting tdmrunfile.x > tdmrunfilels at Wed May 18 15:25:58 EDT 2022

 -------------------- tdmrunfile.x ------------------------
 --------------------------------------------------- 
 starting pymolcas molcas.input.alaska > molcas.output.alaska  at Wed May 18 15:25:58 EDT 2022

Generating link ln -s ./molcas.OrdInt ORDINT 
 -------------------- alaska ------------------------
 --------------------------------------------------- 
 
 === Non-adiabatic coupling for DRT 2 STATE 1 and DRT 2 STATE 3 === 
  -1.245302E-01  -1.041581E-07   2.705406E-08
   2.064519E+00   1.255973E-07  -8.227347E-08
  -6.543560E-01  -4.669166E-08  -2.985775E-08
  -6.543548E-01   1.061649E-07  -3.648437E-08
  -5.454935E-01  -2.336709E-07   1.740716E-07
  -5.454935E-01  -9.393443E-08   7.946853E-09
   5.770332E-01   2.229173E-07  -1.005920E-07
  -2.460915E-01   7.834830E-09  -4.036734E-08
  -2.460915E-01   2.503128E-08  -2.895104E-08
   9.085203E-02   4.321242E-09   2.906019E-08
   9.085179E-02  -2.605968E-08   2.221399E-08
   5.031575E-02   1.084943E-08  -1.086190E-08
   5.031587E-02   1.964624E-08   4.682825E-08
   6.572272E-02  -1.781867E-08   2.221951E-08
===================================

 Norm of the nonadiabatic coupling vector: 
 |h(drt2.state1,drt2.state3)|= 2.49182939822116 

 Cross-check of the non-adiabatic coupling term:
  DeltaE= -0.00821955669999852

  <L>*dE form CIGRD   :   -0.0000000000     0.0007051558     0.0000000000
  <L>*dE form NADCOUPL:    0.0000000024    -0.0012003330     0.0000000195
 -------------------------------------------------------------------------
  Difference          :   -0.0000000024     0.0019054887    -0.0000000195

 NOTE: This test is meaningless at a point of conical intersection!


 -------- NAD. COUPLING for DRT:2 STATE:1 AND DRT:2 STATE:4 --------
opening file =ciudgls.drt2.sp
opening file =ciudgls.drt2.sp
extracted: energy1= -285.9474703740   energy2=-285.9221496667   deltae=-0.0253207072999544
starting cigrd.x -m 200000 at Wed May 18 15:26:57 EDT 2022

 -------------------- cigrd.x ------------------------
 Total energy (ciudg) :     0.000000000077 
  Effective energy     :    -0.000000004468 
  Delta E              :     0.000000004545 
  --------------------------------------------------- 
 starting tran.x -m 200000  at Wed May 18 15:32:10 EDT 2022

 -------------------- tran.x ------------------------
 --------------------------------------------------- 
  adding keyword NONUC to alaska input
starting pymolcas molcas.input.alaska > molcas.output.alaska  at Wed May 18 15:36:15 EDT 2022

Generating link ln -s ./molcas.OrdInt ORDINT 
 -------------------- alaska ------------------------
 --------------------------------------------------- 
 cartesian gradient by alaska (MOLCAS)

 Calculating the Dx(r,s) term of D[CSF] nonadiabatic coupling term.
dxcalc: INPUT LINE SEPARATOR 
 
starting tran.x -m 200000  at Wed May 18 15:37:24 EDT 2022

 -------------------- tran.x ------------------------
 --------------------------------------------------- 
 starting tdmrunfile.x > tdmrunfilels at Wed May 18 15:37:24 EDT 2022

 -------------------- tdmrunfile.x ------------------------
 --------------------------------------------------- 
 starting pymolcas molcas.input.alaska > molcas.output.alaska  at Wed May 18 15:37:24 EDT 2022

Generating link ln -s ./molcas.OrdInt ORDINT 
 -------------------- alaska ------------------------
 --------------------------------------------------- 
 
 === Non-adiabatic coupling for DRT 2 STATE 1 and DRT 2 STATE 4 === 
  -7.696401E-08   2.493941E-08  -1.239839E-01
  -9.376802E-08  -4.523750E-07  -6.559387E-01
   6.730266E-08  -9.393948E-01   2.993470E+00
   2.152612E-07   9.393948E-01   2.993470E+00
   9.115544E-08  -1.150338E+00  -3.085174E+00
  -1.933279E-08   1.150338E+00  -3.085174E+00
  -1.814884E-07  -4.930646E-08   1.064917E+00
   8.433706E-09  -2.167056E-02  -3.944399E-02
   4.238310E-09   2.167060E-02  -3.944399E-02
   6.027105E-08  -4.734124E-02   3.218013E-02
  -4.251181E-08   4.734163E-02   3.218013E-02
  -4.058593E-08  -3.132304E-02  -3.449133E-02
  -4.530408E-08   3.132304E-02  -3.449129E-02
   5.329748E-08  -2.228923E-08  -1.558108E-02
===================================

 Norm of the nonadiabatic coupling vector: 
 |h(drt2.state1,drt2.state4)|= 6.55474403690301 

 Cross-check of the non-adiabatic coupling term:
  DeltaE= -0.0253207072999544

  <L>*dE form CIGRD   :   -0.0000000000     0.0021722635     0.0000000000
  <L>*dE form NADCOUPL:   -0.0000000145     0.0000000047    -0.0000000090
 -------------------------------------------------------------------------
  Difference          :    0.0000000145     0.0021722587     0.0000000090

 NOTE: This test is meaningless at a point of conical intersection!


 -------- NAD. COUPLING for DRT:2 STATE:2 AND DRT:2 STATE:3 --------
opening file =ciudgls.drt2.sp
opening file =ciudgls.drt2.sp
extracted: energy1= -285.9424450954   energy2=-285.9392508173   deltae=-0.00319427810001116
starting cigrd.x -m 200000 at Wed May 18 15:38:30 EDT 2022

 -------------------- cigrd.x ------------------------
 Total energy (ciudg) :    -0.000000000467 
  Effective energy     :     0.000000002543 
  Delta E              :    -0.000000003010 
  --------------------------------------------------- 
 starting tran.x -m 200000  at Wed May 18 15:43:22 EDT 2022

 -------------------- tran.x ------------------------
 --------------------------------------------------- 
  adding keyword NONUC to alaska input
starting pymolcas molcas.input.alaska > molcas.output.alaska  at Wed May 18 15:47:20 EDT 2022

Generating link ln -s ./molcas.OrdInt ORDINT 
 -------------------- alaska ------------------------
 --------------------------------------------------- 
 cartesian gradient by alaska (MOLCAS)

 Calculating the Dx(r,s) term of D[CSF] nonadiabatic coupling term.
dxcalc: INPUT LINE SEPARATOR 
 
starting tran.x -m 200000  at Wed May 18 15:48:20 EDT 2022

 -------------------- tran.x ------------------------
 --------------------------------------------------- 
 starting tdmrunfile.x > tdmrunfilels at Wed May 18 15:48:21 EDT 2022

 -------------------- tdmrunfile.x ------------------------
 --------------------------------------------------- 
 starting pymolcas molcas.input.alaska > molcas.output.alaska  at Wed May 18 15:48:21 EDT 2022

Generating link ln -s ./molcas.OrdInt ORDINT 
 -------------------- alaska ------------------------
 --------------------------------------------------- 
 
 === Non-adiabatic coupling for DRT 2 STATE 2 and DRT 2 STATE 3 === 
  -1.316202E-06  -2.435940E-08   2.091057E-06
  -8.622801E-07  -2.427095E-07  -4.738994E-07
   1.805363E+00   8.499851E-07  -4.021345E-07
  -1.805363E+00  -7.384531E-07  -1.007644E-06
  -1.334578E+00   1.166122E-06   2.441386E-07
   1.334581E+00  -1.246540E-06   4.296839E-07
  -2.798505E-07   2.168794E-07  -4.435787E-07
   4.732432E-01  -6.993176E-09  -3.515257E-10
  -4.732432E-01  -1.469756E-09  -1.110715E-08
  -7.179248E-01  -2.585228E-08  -3.497345E-07
   7.179248E-01   6.814612E-08  -2.641747E-07
   2.618325E-01  -2.642806E-07   7.647822E-08
  -2.618328E-01   2.025940E-07   2.147542E-08
  -1.661632E-07   4.693054E-08   8.976978E-08
===================================

 Norm of the nonadiabatic coupling vector: 
 |h(drt2.state2,drt2.state3)|= 3.420049231852 

 Cross-check of the non-adiabatic coupling term:
  DeltaE= -0.00319427810001116

  <L>*dE form CIGRD   :   -0.0000000000     0.0002740371     0.0000000000
  <L>*dE form NADCOUPL:    0.0000000064    -0.0000000361    -0.0003182661
 -------------------------------------------------------------------------
  Difference          :   -0.0000000064     0.0002740732     0.0003182661

 NOTE: This test is meaningless at a point of conical intersection!


 -------- NAD. COUPLING for DRT:2 STATE:2 AND DRT:2 STATE:4 --------
opening file =ciudgls.drt2.sp
opening file =ciudgls.drt2.sp
extracted: energy1= -285.9424450954   energy2=-285.9221496667   deltae=-0.020295428699967
starting cigrd.x -m 200000 at Wed May 18 15:49:20 EDT 2022

 -------------------- cigrd.x ------------------------
 Total energy (ciudg) :     0.000000000203 
  Effective energy     :    -0.000000000639 
  Delta E              :     0.000000000842 
  --------------------------------------------------- 
 starting tran.x -m 200000  at Wed May 18 15:54:28 EDT 2022

 -------------------- tran.x ------------------------
 --------------------------------------------------- 
  adding keyword NONUC to alaska input
starting pymolcas molcas.input.alaska > molcas.output.alaska  at Wed May 18 15:58:33 EDT 2022

Generating link ln -s ./molcas.OrdInt ORDINT 
 -------------------- alaska ------------------------
 --------------------------------------------------- 
 cartesian gradient by alaska (MOLCAS)

 Calculating the Dx(r,s) term of D[CSF] nonadiabatic coupling term.
dxcalc: INPUT LINE SEPARATOR 
 
starting tran.x -m 200000  at Wed May 18 15:59:37 EDT 2022

 -------------------- tran.x ------------------------
 --------------------------------------------------- 
 starting tdmrunfile.x > tdmrunfilels at Wed May 18 15:59:38 EDT 2022

 -------------------- tdmrunfile.x ------------------------
 --------------------------------------------------- 
 starting pymolcas molcas.input.alaska > molcas.output.alaska  at Wed May 18 15:59:38 EDT 2022

Generating link ln -s ./molcas.OrdInt ORDINT 
 -------------------- alaska ------------------------
 --------------------------------------------------- 
 
 === Non-adiabatic coupling for DRT 2 STATE 2 and DRT 2 STATE 4 === 
  -1.178005E-07  -1.160463E-01  -3.997402E-08
   7.101862E-08   6.391766E-01   1.580084E-07
  -2.101891E-07   1.473599E-01  -9.742623E-03
   1.602796E-07   1.473594E-01   9.741834E-03
  -9.491805E-08  -3.802510E-01   5.435518E-01
  -3.264924E-08  -3.802510E-01  -5.435469E-01
   2.002194E-07  -7.362975E-02   1.909947E-07
   3.830365E-08   1.249877E-03  -2.635509E-02
   2.647690E-08   1.249891E-03   2.635513E-02
   1.152287E-07  -2.370511E-02  -2.516688E-02
  -7.324232E-08  -2.370496E-02   2.516688E-02
  -7.920386E-09   2.406988E-02  -3.578117E-02
  -6.140620E-08   2.406979E-02   3.578113E-02
  -1.351345E-08   1.531187E-02   1.201236E-09
===================================

 Norm of the nonadiabatic coupling vector: 
 |h(drt2.state2,drt2.state4)|= 1.1657034443333 

 Cross-check of the non-adiabatic coupling term:
  DeltaE= -0.020295428699967

  <L>*dE form CIGRD   :   -0.0000000000     0.0017411448     0.0000000000
  <L>*dE form NADCOUPL:   -0.0102641966    -0.0000000025     0.0000000002
 -------------------------------------------------------------------------
  Difference          :    0.0102641966     0.0017411473    -0.0000000002

 NOTE: This test is meaningless at a point of conical intersection!


 -------- NAD. COUPLING for DRT:2 STATE:3 AND DRT:2 STATE:4 --------
opening file =ciudgls.drt2.sp
opening file =ciudgls.drt2.sp
extracted: energy1= -285.9392508173   energy2=-285.9221496667   deltae=-0.0171011505999559
starting cigrd.x -m 200000 at Wed May 18 16:00:42 EDT 2022

 -------------------- cigrd.x ------------------------
 Total energy (ciudg) :    -0.000000000426 
  Effective energy     :    -0.000000000700 
  Delta E              :     0.000000000274 
  --------------------------------------------------- 
 starting tran.x -m 200000  at Wed May 18 16:06:02 EDT 2022

 -------------------- tran.x ------------------------
 --------------------------------------------------- 
  adding keyword NONUC to alaska input
starting pymolcas molcas.input.alaska > molcas.output.alaska  at Wed May 18 16:10:08 EDT 2022

Generating link ln -s ./molcas.OrdInt ORDINT 
 -------------------- alaska ------------------------
 --------------------------------------------------- 
 cartesian gradient by alaska (MOLCAS)

 Calculating the Dx(r,s) term of D[CSF] nonadiabatic coupling term.
dxcalc: INPUT LINE SEPARATOR 
 
starting tran.x -m 200000  at Wed May 18 16:11:08 EDT 2022

 -------------------- tran.x ------------------------
 --------------------------------------------------- 
 starting tdmrunfile.x > tdmrunfilels at Wed May 18 16:11:08 EDT 2022

 -------------------- tdmrunfile.x ------------------------
 --------------------------------------------------- 
 starting pymolcas molcas.input.alaska > molcas.output.alaska  at Wed May 18 16:11:08 EDT 2022

Generating link ln -s ./molcas.OrdInt ORDINT 
 -------------------- alaska ------------------------
 --------------------------------------------------- 
 
 === Non-adiabatic coupling for DRT 2 STATE 3 and DRT 2 STATE 4 === 
  -3.245685E-02  -2.322568E-08   2.101760E-08
   7.140077E-01   3.917333E-08  -7.659906E-08
  -2.212605E-01  -4.116223E-08   1.671755E-08
  -2.212605E-01  -4.618187E-08  -2.118260E-08
  -2.501602E-01   1.223814E-08   3.429362E-08
  -2.501608E-01  -4.303134E-08   6.053410E-08
   2.576727E-01   7.092297E-08  -7.446766E-08
  -8.321100E-02   7.371030E-09   1.196780E-08
  -8.321100E-02   1.620636E-08   1.487477E-09
   5.781439E-02   2.475277E-08   2.294573E-08
   5.781427E-02  -1.633228E-08  -2.894623E-09
   2.177217E-02   1.013226E-08   9.623128E-09
   2.177229E-02  -5.568048E-09   7.900289E-09
   3.264910E-02  -5.280719E-09  -1.135422E-08
===================================

 Norm of the nonadiabatic coupling vector: 
 |h(drt2.state3,drt2.state4)|= 0.907125025474777 

 Cross-check of the non-adiabatic coupling term:
  DeltaE= -0.0171011505999559

  <L>*dE form CIGRD   :   -0.0000000000     0.0014671077     0.0000000000
  <L>*dE form NADCOUPL:    0.0000000044     0.0014755637    -0.0000000234
 -------------------------------------------------------------------------
  Difference          :   -0.0000000044    -0.0000084560     0.0000000234

 NOTE: This test is meaningless at a point of conical intersection!



============== timings ===================

   unik.gets.x    
   mcdrt.x        
   mcuft.x        
 * mcscf.x          walltime    0:02:14
   mcpc.x         
   mcpc.x         
   mcpc.x         
   mcpc.x         
   exptvl.x       
   exptvl.x       
   exptvl.x       
   exptvl.x       
   cidrt.x        
   cidrt.x        
 * tran.x           walltime    0:05:10
 * pciudg.x -m 19000   walltime   15:27:48
 * cipc.x           walltime    0:00:13
 * pciudg.x -m 19000   walltime   34:58:47
 * cipc.x           walltime    0:00:20
 * reindex.x        walltime    0:04:19
 * pciudg.x -m 19000   walltime    1:54:47
 * transci.x        walltime    0:02:14
 * transci.x        walltime    0:02:11
 * transci.x        walltime    0:02:16
 * transci.x        walltime    0:02:12
 * transci.x        walltime    0:02:09
 * transci.x        walltime    0:02:09
 * transci.x        walltime    0:04:07
 * transci.x        walltime    0:04:10
 * transci.x        walltime    0:04:08
 * transci.x        walltime    0:04:02
 * transci.x        walltime    0:04:03
 * transci.x        walltime    0:04:03
   exptvl.x       
   exptvl.x       
   exptvl.x       
   exptvl.x       
   exptvl.x       
   exptvl.x       
   exptvl.x       
   exptvl.x       
   mo_convert.x   
   mo_convert.x   
   mo_convert.x   
   mo_convert.x   
   mo_convert.x   
   mo_convert.x   
   mo_convert.x   
   mo_convert.x   
   mo_convert.x   
   mo_convert.x   
   mo_convert.x   
   mo_convert.x   
   mo_convert.x   
   mo_convert.x   
 * cidrt.x          walltime    0:00:06
 * tran.x           walltime    0:05:51
 * cigrd.x          walltime    0:05:07
 * tran.x           walltime    0:04:02
 * cigrd.x          walltime    0:05:23
 * tran.x           walltime    0:04:05
 * cigrd.x          walltime    0:05:10
 * tran.x           walltime    0:04:14
 * cigrd.x          walltime    0:05:13
 * tran.x           walltime    0:04:13
 * cigrd.x          walltime    0:05:37
 * tran.x           walltime    0:04:17
 * cigrd.x          walltime    0:05:38
 * tran.x           walltime    0:04:13
 * cigrd.x          walltime    0:05:14
 * tran.x           walltime    0:04:02
 * cigrd.x          walltime    0:05:28
 * tran.x           walltime    0:04:13
 * cigrd.x          walltime    0:05:19
 * tran.x           walltime    0:04:08
   tran.x         
   tdmrunfile.x   
 * cigrd.x          walltime    0:05:25
 * tran.x           walltime    0:04:12
   tran.x         
   tdmrunfile.x   
 * cigrd.x          walltime    0:05:14
 * tran.x           walltime    0:03:51
   tran.x         
   tdmrunfile.x   
 * cigrd.x          walltime    0:05:21
 * tran.x           walltime    0:04:03
   tran.x         
   tdmrunfile.x   
 * cigrd.x          walltime    0:04:59
 * tran.x           walltime    0:04:00
   tran.x         
   tdmrunfile.x   
 * cigrd.x          walltime    0:05:07
 * tran.x           walltime    0:03:57
   tran.x         
   tdmrunfile.x   
 * cigrd.x          walltime    0:05:10
 * tran.x           walltime    0:04:04
   tran.x         
   tdmrunfile.x   
 * cigrd.x          walltime    0:05:04
 * tran.x           walltime    0:03:58
   tran.x         
   tdmrunfile.x   
 * cigrd.x          walltime    0:05:12
 * tran.x           walltime    0:04:05
   tran.x         
   tdmrunfile.x   
 * cigrd.x          walltime    0:04:51
 * tran.x           walltime    0:03:57
   tran.x         
   tdmrunfile.x   
 * cigrd.x          walltime    0:05:07
 * tran.x           walltime    0:04:05
   tran.x         
   tdmrunfile.x   
 * cigrd.x          walltime    0:05:19
 * tran.x           walltime    0:04:06
   tran.x         
   tdmrunfile.x   

==========================================

