[Molden Format]
[Atoms] AU
  N     1    7    -0.1306972600   -4.3531317600    0.0000000000        
  C     2    6     0.0192185400   -1.8113074100    0.0000000000        
  C     3    6    -2.2981157500   -0.4175575400    0.0000000000        
  C     4    6     2.3310671500   -0.3919889300    0.0000000000        
  C     5    6    -2.2765273800    2.1629043100    0.0000000000        
  C     6    6     2.3042912800    2.1831071000    0.0000000000        
  C     7    6     0.0134819000    3.4922023300    0.0000000000        
  H     8    1    -4.6489369300   -7.7773242200    0.0000000000        
  H     9    1     1.6694059600   -5.1100380000    0.0000000000        
  H    10    1    -4.0368041300   -1.4558844400    0.0000000000        
  H    11    1     4.0904987200   -1.4046937000    0.0000000000        
  H    12    1    -4.0250703300    3.1927386600    0.0000000000        
  H    13    1     4.0467821300    3.2236651900    0.0000000000        
  H    14    1     0.0052225300    5.5203983600    0.0000000000        
[5D]
[7F]
[GTO]
  1  0
   s    12 1.00
  0.114200D+05  0.172695D-04
  0.171200D+04  0.134411D-03
  0.389300D+03  0.694561D-03
  0.110000D+03  0.278531D-02
  0.355700D+02  0.863457D-02
  0.125400D+02  0.199805D-01
  0.464400D+01  0.262908D-01
  0.129300D+01 -0.243845D-01
  0.511800D+00 -0.924934D-01
  0.178700D+00 -0.339683D+00
  0.246240D-01  0.345111D+00
  0.112530D-01  0.752750D+00
   s    10 1.00
  0.114200D+05  0.523000D-03
  0.171200D+04  0.404500D-02
  0.389300D+03  0.207750D-01
  0.110000D+03  0.807269D-01
  0.355700D+02  0.233074D+00
  0.125400D+02  0.433501D+00
  0.464400D+01  0.347472D+00
  0.129300D+01  0.412620D-01
  0.511800D+00 -0.850799D-02
  0.178700D+00  0.238400D-02
   s    10 1.00
  0.114200D+05 -0.115000D-03
  0.171200D+04 -0.895000D-03
  0.389300D+03 -0.462400D-02
  0.110000D+03 -0.185280D-01
  0.355700D+02 -0.573390D-01
  0.125400D+02 -0.132076D+00
  0.464400D+01 -0.172510D+00
  0.129300D+01  0.151814D+00
  0.511800D+00  0.599944D+00
  0.178700D+00  0.387462D+00
   s     1 1.00
  0.129300D+01  0.100000D+01
   s     1 1.00
  0.178700D+00  0.100000D+01
   p     5 1.00
  0.266300D+02  0.146700D-01
  0.594800D+01  0.917640D-01
  0.174200D+01  0.298683D+00
  0.555000D+00  0.498487D+00
  0.172500D+00  0.337023D+00
   p     1 1.00
  0.174200D+01  0.100000D+01
   p     1 1.00
  0.555000D+00  0.100000D+01
   d     1 1.00
  0.165400D+01  0.100000D+01
   d     1 1.00
  0.469000D+00  0.100000D+01
   f     1 1.00
  0.109300D+01  0.100000D+01
  
  2  0
   s    10 1.00
  0.823600D+04  0.531000D-03
  0.123500D+04  0.410800D-02
  0.280800D+03  0.210870D-01
  0.792700D+02  0.818530D-01
  0.255900D+02  0.234817D+00
  0.899700D+01  0.434401D+00
  0.331900D+01  0.346129D+00
  0.905900D+00  0.393780D-01
  0.364300D+00 -0.898300D-02
  0.128500D+00  0.238500D-02
   s    10 1.00
  0.823600D+04 -0.113000D-03
  0.123500D+04 -0.878000D-03
  0.280800D+03 -0.454000D-02
  0.792700D+02 -0.181330D-01
  0.255900D+02 -0.557600D-01
  0.899700D+01 -0.126895D+00
  0.331900D+01 -0.170352D+00
  0.905900D+00  0.140382D+00
  0.364300D+00  0.598684D+00
  0.128500D+00  0.395389D+00
   s     1 1.00
  0.905900D+00  0.100000D+01
   s     1 1.00
  0.364300D+00  0.100000D+01
   p     5 1.00
  0.187100D+02  0.140310D-01
  0.413300D+01  0.868660D-01
  0.120000D+01  0.290216D+00
  0.382700D+00  0.501008D+00
  0.120900D+00  0.343406D+00
   p     1 1.00
  0.382700D+00  0.100000D+01
   p     1 1.00
  0.120900D+00  0.100000D+01
   d     1 1.00
  0.109700D+01  0.100000D+01
   d     1 1.00
  0.318000D+00  0.100000D+01
   f     1 1.00
  0.761000D+00  0.100000D+01
  
  3  0
   s    10 1.00
  0.823600D+04  0.531000D-03
  0.123500D+04  0.410800D-02
  0.280800D+03  0.210870D-01
  0.792700D+02  0.818530D-01
  0.255900D+02  0.234817D+00
  0.899700D+01  0.434401D+00
  0.331900D+01  0.346129D+00
  0.905900D+00  0.393780D-01
  0.364300D+00 -0.898300D-02
  0.128500D+00  0.238500D-02
   s    10 1.00
  0.823600D+04 -0.113000D-03
  0.123500D+04 -0.878000D-03
  0.280800D+03 -0.454000D-02
  0.792700D+02 -0.181330D-01
  0.255900D+02 -0.557600D-01
  0.899700D+01 -0.126895D+00
  0.331900D+01 -0.170352D+00
  0.905900D+00  0.140382D+00
  0.364300D+00  0.598684D+00
  0.128500D+00  0.395389D+00
   s     1 1.00
  0.905900D+00  0.100000D+01
   s     1 1.00
  0.364300D+00  0.100000D+01
   p     5 1.00
  0.187100D+02  0.140310D-01
  0.413300D+01  0.868660D-01
  0.120000D+01  0.290216D+00
  0.382700D+00  0.501008D+00
  0.120900D+00  0.343406D+00
   p     1 1.00
  0.382700D+00  0.100000D+01
   p     1 1.00
  0.120900D+00  0.100000D+01
   d     1 1.00
  0.109700D+01  0.100000D+01
   d     1 1.00
  0.318000D+00  0.100000D+01
   f     1 1.00
  0.761000D+00  0.100000D+01
  
  4  0
   s    10 1.00
  0.823600D+04  0.531000D-03
  0.123500D+04  0.410800D-02
  0.280800D+03  0.210870D-01
  0.792700D+02  0.818530D-01
  0.255900D+02  0.234817D+00
  0.899700D+01  0.434401D+00
  0.331900D+01  0.346129D+00
  0.905900D+00  0.393780D-01
  0.364300D+00 -0.898300D-02
  0.128500D+00  0.238500D-02
   s    10 1.00
  0.823600D+04 -0.113000D-03
  0.123500D+04 -0.878000D-03
  0.280800D+03 -0.454000D-02
  0.792700D+02 -0.181330D-01
  0.255900D+02 -0.557600D-01
  0.899700D+01 -0.126895D+00
  0.331900D+01 -0.170352D+00
  0.905900D+00  0.140382D+00
  0.364300D+00  0.598684D+00
  0.128500D+00  0.395389D+00
   s     1 1.00
  0.905900D+00  0.100000D+01
   s     1 1.00
  0.364300D+00  0.100000D+01
   p     5 1.00
  0.187100D+02  0.140310D-01
  0.413300D+01  0.868660D-01
  0.120000D+01  0.290216D+00
  0.382700D+00  0.501008D+00
  0.120900D+00  0.343406D+00
   p     1 1.00
  0.382700D+00  0.100000D+01
   p     1 1.00
  0.120900D+00  0.100000D+01
   d     1 1.00
  0.109700D+01  0.100000D+01
   d     1 1.00
  0.318000D+00  0.100000D+01
   f     1 1.00
  0.761000D+00  0.100000D+01
  
  5  0
   s    10 1.00
  0.823600D+04  0.531000D-03
  0.123500D+04  0.410800D-02
  0.280800D+03  0.210870D-01
  0.792700D+02  0.818530D-01
  0.255900D+02  0.234817D+00
  0.899700D+01  0.434401D+00
  0.331900D+01  0.346129D+00
  0.905900D+00  0.393780D-01
  0.364300D+00 -0.898300D-02
  0.128500D+00  0.238500D-02
   s    10 1.00
  0.823600D+04 -0.113000D-03
  0.123500D+04 -0.878000D-03
  0.280800D+03 -0.454000D-02
  0.792700D+02 -0.181330D-01
  0.255900D+02 -0.557600D-01
  0.899700D+01 -0.126895D+00
  0.331900D+01 -0.170352D+00
  0.905900D+00  0.140382D+00
  0.364300D+00  0.598684D+00
  0.128500D+00  0.395389D+00
   s     1 1.00
  0.905900D+00  0.100000D+01
   s     1 1.00
  0.364300D+00  0.100000D+01
   p     5 1.00
  0.187100D+02  0.140310D-01
  0.413300D+01  0.868660D-01
  0.120000D+01  0.290216D+00
  0.382700D+00  0.501008D+00
  0.120900D+00  0.343406D+00
   p     1 1.00
  0.382700D+00  0.100000D+01
   p     1 1.00
  0.120900D+00  0.100000D+01
   d     1 1.00
  0.109700D+01  0.100000D+01
   d     1 1.00
  0.318000D+00  0.100000D+01
   f     1 1.00
  0.761000D+00  0.100000D+01
  
  6  0
   s    10 1.00
  0.823600D+04  0.531000D-03
  0.123500D+04  0.410800D-02
  0.280800D+03  0.210870D-01
  0.792700D+02  0.818530D-01
  0.255900D+02  0.234817D+00
  0.899700D+01  0.434401D+00
  0.331900D+01  0.346129D+00
  0.905900D+00  0.393780D-01
  0.364300D+00 -0.898300D-02
  0.128500D+00  0.238500D-02
   s    10 1.00
  0.823600D+04 -0.113000D-03
  0.123500D+04 -0.878000D-03
  0.280800D+03 -0.454000D-02
  0.792700D+02 -0.181330D-01
  0.255900D+02 -0.557600D-01
  0.899700D+01 -0.126895D+00
  0.331900D+01 -0.170352D+00
  0.905900D+00  0.140382D+00
  0.364300D+00  0.598684D+00
  0.128500D+00  0.395389D+00
   s     1 1.00
  0.905900D+00  0.100000D+01
   s     1 1.00
  0.364300D+00  0.100000D+01
   p     5 1.00
  0.187100D+02  0.140310D-01
  0.413300D+01  0.868660D-01
  0.120000D+01  0.290216D+00
  0.382700D+00  0.501008D+00
  0.120900D+00  0.343406D+00
   p     1 1.00
  0.382700D+00  0.100000D+01
   p     1 1.00
  0.120900D+00  0.100000D+01
   d     1 1.00
  0.109700D+01  0.100000D+01
   d     1 1.00
  0.318000D+00  0.100000D+01
   f     1 1.00
  0.761000D+00  0.100000D+01
  
  7  0
   s    10 1.00
  0.823600D+04  0.531000D-03
  0.123500D+04  0.410800D-02
  0.280800D+03  0.210870D-01
  0.792700D+02  0.818530D-01
  0.255900D+02  0.234817D+00
  0.899700D+01  0.434401D+00
  0.331900D+01  0.346129D+00
  0.905900D+00  0.393780D-01
  0.364300D+00 -0.898300D-02
  0.128500D+00  0.238500D-02
   s    10 1.00
  0.823600D+04 -0.113000D-03
  0.123500D+04 -0.878000D-03
  0.280800D+03 -0.454000D-02
  0.792700D+02 -0.181330D-01
  0.255900D+02 -0.557600D-01
  0.899700D+01 -0.126895D+00
  0.331900D+01 -0.170352D+00
  0.905900D+00  0.140382D+00
  0.364300D+00  0.598684D+00
  0.128500D+00  0.395389D+00
   s     1 1.00
  0.905900D+00  0.100000D+01
   s     1 1.00
  0.364300D+00  0.100000D+01
   p     5 1.00
  0.187100D+02  0.140310D-01
  0.413300D+01  0.868660D-01
  0.120000D+01  0.290216D+00
  0.382700D+00  0.501008D+00
  0.120900D+00  0.343406D+00
   p     1 1.00
  0.382700D+00  0.100000D+01
   p     1 1.00
  0.120900D+00  0.100000D+01
   d     1 1.00
  0.109700D+01  0.100000D+01
   d     1 1.00
  0.318000D+00  0.100000D+01
   f     1 1.00
  0.761000D+00  0.100000D+01
  
  8  0
   s     4 1.00
  0.130100D+02  0.196850D-01
  0.196200D+01  0.137977D+00
  0.444600D+00  0.478148D+00
  0.122000D+00  0.501240D+00
   s     1 1.00
  0.122000D+00  0.100000D+01
   p     1 1.00
  0.727000D+00  0.100000D+01
  
  9  0
   s     4 1.00
  0.130100D+02  0.196850D-01
  0.196200D+01  0.137977D+00
  0.444600D+00  0.478148D+00
  0.122000D+00  0.501240D+00
   s     1 1.00
  0.122000D+00  0.100000D+01
   p     1 1.00
  0.727000D+00  0.100000D+01
  
 10  0
   s     4 1.00
  0.130100D+02  0.196850D-01
  0.196200D+01  0.137977D+00
  0.444600D+00  0.478148D+00
  0.122000D+00  0.501240D+00
   s     1 1.00
  0.122000D+00  0.100000D+01
   p     1 1.00
  0.727000D+00  0.100000D+01
  
 11  0
   s     4 1.00
  0.130100D+02  0.196850D-01
  0.196200D+01  0.137977D+00
  0.444600D+00  0.478148D+00
  0.122000D+00  0.501240D+00
   s     1 1.00
  0.122000D+00  0.100000D+01
   p     1 1.00
  0.727000D+00  0.100000D+01
  
 12  0
   s     4 1.00
  0.130100D+02  0.196850D-01
  0.196200D+01  0.137977D+00
  0.444600D+00  0.478148D+00
  0.122000D+00  0.501240D+00
   s     1 1.00
  0.122000D+00  0.100000D+01
   p     1 1.00
  0.727000D+00  0.100000D+01
  
 13  0
   s     4 1.00
  0.130100D+02  0.196850D-01
  0.196200D+01  0.137977D+00
  0.444600D+00  0.478148D+00
  0.122000D+00  0.501240D+00
   s     1 1.00
  0.122000D+00  0.100000D+01
   p     1 1.00
  0.727000D+00  0.100000D+01
  
 14  0
   s     4 1.00
  0.130100D+02  0.196850D-01
  0.196200D+01  0.137977D+00
  0.444600D+00  0.478148D+00
  0.122000D+00  0.501240D+00
   s     1 1.00
  0.122000D+00  0.100000D+01
   p     1 1.00
  0.727000D+00  0.100000D+01
  
[MO]
 Sym= __1_a__
 Ene=  0.000000000000000E+000
 Spin= Alpha
 Occup=    2.00000000000000     
                     1  1.132574958380950E-004
                     2  0.998344945385800     
                     3 -2.668767036913970E-003
                     4  1.837504162215200E-003
                     5  6.570947234365430E-003
                     6  2.867804274544980E-003
                     7  5.965540331159350E-003
                     8  0.000000000000000E+000
                     9 -7.125922500022670E-004
                    10 -7.290823853053700E-004
                    11  0.000000000000000E+000
                    12 -2.507167358527010E-003
                    13 -1.905494469676190E-003
                    14  0.000000000000000E+000
                    15 -2.967591354020448E-005
                    16  0.000000000000000E+000
                    17  0.000000000000000E+000
                    18 -1.570719362411886E-004
                    19 -5.742424334508440E-005
                    20  8.863576561676697E-005
                    21  0.000000000000000E+000
                    22  0.000000000000000E+000
                    23 -2.087039232716820E-004
                    24  5.099981429554699E-004
                    25  0.000000000000000E+000
                    26 -5.567678518409037E-006
                    27 -5.020758129966521E-005
                    28  0.000000000000000E+000
                    29  0.000000000000000E+000
                    30  3.968763708816656E-005
                    31 -1.084764734789904E-004
                    32 -3.844698607295590E-004
                    33  1.833019735625090E-004
                    34  3.266325047743730E-004
                    35 -1.145664353849810E-004
                    36 -6.936255718035009E-005
                    37 -2.712735190968680E-003
                    38  0.000000000000000E+000
                    39  3.724115595030550E-004
                    40  2.160545207445840E-004
                    41  0.000000000000000E+000
                    42 -2.090090709601490E-003
                    43  5.122290750366840E-003
                    44  0.000000000000000E+000
                    45  4.285598368313395E-006
                    46  0.000000000000000E+000
                    47  0.000000000000000E+000
                    48 -1.323061005649730E-004
                    49  1.988415222329240E-005
                    50 -1.971708784796820E-004
                    51  0.000000000000000E+000
                    52  0.000000000000000E+000
                    53  5.165205795082080E-005
                    54  7.791610042121930E-004
                    55  0.000000000000000E+000
                    56 -3.371936075534643E-006
                    57 -7.287407477945863E-005
                    58  0.000000000000000E+000
                    59  0.000000000000000E+000
                    60  2.438633924182792E-005
                    61 -1.258606583871102E-004
                    62 -5.576953376649480E-004
                    63 -2.228998122240210E-003
                    64 -8.740650926733350E-005
                    65  2.267210156432980E-003
                    66 -5.119655679870860E-004
                    67  1.532696554008580E-004
                    68  0.000000000000000E+000
                    69  3.985698587157140E-004
                    70  9.001282826068770E-004
                    71  0.000000000000000E+000
                    72 -1.771056350878370E-003
                    73  7.161797430559800E-004
                    74  0.000000000000000E+000
                    75 -4.431552385997698E-005
                    76  0.000000000000000E+000
                    77  0.000000000000000E+000
                    78 -6.437014240734340E-005
                    79 -2.039837527225410E-005
                    80 -1.338507329789650E-004
                    81  0.000000000000000E+000
                    82  0.000000000000000E+000
                    83  3.221983791890880E-005
                    84  1.196647018580870E-005
                    85  0.000000000000000E+000
                    86  8.728127632150417E-006
                    87 -4.684946162745092E-005
                    88  0.000000000000000E+000
                    89  0.000000000000000E+000
                    90 -2.173192817831790E-005
                    91 -1.559102877582820E-004
                    92 -1.790814980256670E-004
                    93 -6.536748292175500E-004
                    94  1.601591250964580E-004
                    95 -7.233885077135850E-005
                    96  2.174433725357160E-004
                    97  1.115216219430850E-005
                    98  0.000000000000000E+000
                    99  3.427503123301340E-004
                   100  3.811842315790480E-004
                   101  0.000000000000000E+000
                   102  6.094515776581880E-004
                   103 -1.786245286055350E-003
                   104  0.000000000000000E+000
                   105 -1.170998548518761E-005
                   106  0.000000000000000E+000
                   107  0.000000000000000E+000
                   108 -4.544526007923020E-005
                   109 -1.300045338258620E-005
                   110  8.516181916439726E-005
                   111  0.000000000000000E+000
                   112  0.000000000000000E+000
                   113 -1.631094893665304E-004
                   114  8.753526376227401E-005
                   115  0.000000000000000E+000
                   116 -1.956587271692667E-005
                   117 -2.211004952643138E-005
                   118  0.000000000000000E+000
                   119  0.000000000000000E+000
                   120 -1.125237731609199E-005
                   121 -3.702479433797277E-005
                   122 -2.455318830273670E-004
                   123 -5.973340701545720E-004
                   124  1.713740817623720E-004
                   125  3.096173804222070E-004
                   126 -3.395356834762610E-005
                   127 -3.368036335795720E-004
                   128  0.000000000000000E+000
                   129  2.448302766307100E-004
                   130  6.601577033122410E-004
                   131  0.000000000000000E+000
                   132  4.491771521897210E-004
                   133  2.038421944249990E-003
                   134  0.000000000000000E+000
                   135  1.413005041910313E-005
                   136  0.000000000000000E+000
                   137  0.000000000000000E+000
                   138  4.659236705597660E-005
                   139 -1.935974510230590E-006
                   140  2.069185811425710E-004
                   141  0.000000000000000E+000
                   142  0.000000000000000E+000
                   143  4.111407831210020E-004
                   144  2.284686058601710E-004
                   145  0.000000000000000E+000
                   146 -1.270395004671472E-005
                   147 -6.505419182522581E-005
                   148  0.000000000000000E+000
                   149  0.000000000000000E+000
                   150 -1.319201085655907E-005
                   151 -5.444133594843882E-005
                   152 -1.323969285079570E-004
                   153 -3.625546970441920E-004
                   154  5.510423446954000E-005
                   155  1.924285025077710E-004
                   156  8.475216095225690E-006
                   157 -8.592663297863480E-005
                   158  0.000000000000000E+000
                   159  1.295057412700790E-005
                   160  5.160820853086330E-005
                   161  0.000000000000000E+000
                   162  7.471685017399840E-004
                   163 -3.965398812671230E-004
                   164  0.000000000000000E+000
                   165  1.793193010411876E-006
                   166  0.000000000000000E+000
                   167  0.000000000000000E+000
                   168  2.817643338028540E-006
                   169  9.984309543588269E-006
                   170  1.054536889517338E-004
                   171  0.000000000000000E+000
                   172  0.000000000000000E+000
                   173  4.819356624751980E-005
                   174  2.844690449409760E-005
                   175  0.000000000000000E+000
                   176  3.111732918042601E-006
                   177 -1.389939151436697E-005
                   178  0.000000000000000E+000
                   179  0.000000000000000E+000
                   180 -2.132188273858041E-005
                   181 -2.983547378657377E-005
                   182 -1.372993520201940E-004
                   183 -4.000653388005950E-004
                   184  3.268830212798590E-005
                   185  1.988508505963760E-004
                   186 -5.089831726255380E-005
                   187 -6.417212303047610E-005
                   188  0.000000000000000E+000
                   189  2.722167587679080E-004
                   190  1.197612778978170E-004
                   191  0.000000000000000E+000
                   192  1.372726659291710E-003
                   193 -3.417041558043340E-004
                   194  0.000000000000000E+000
                   195  1.395691312080201E-006
                   196  0.000000000000000E+000
                   197  0.000000000000000E+000
                   198 -3.559707979634840E-006
                   199  4.510427631557440E-006
                   200 -8.742399914913688E-006
                   201  0.000000000000000E+000
                   202  0.000000000000000E+000
                   203 -7.989305136374339E-005
                   204 -2.056899442364190E-004
                   205  0.000000000000000E+000
                   206 -1.025798649786065E-005
                   207 -4.101780976811260E-006
                   208  0.000000000000000E+000
                   209  0.000000000000000E+000
                   210  8.163661505137671E-006
                   211 -3.745758690012519E-006
                   212 -5.361664085254420E-005
                   213  9.183083982871060E-005
                   214  1.824072007629720E-005
                   215  2.017519799383320E-005
                   216  0.000000000000000E+000
                   217 -8.876752003657300E-004
                   218 -6.303071857524190E-004
                   219 -2.416744402431230E-004
                   220  6.407910864408630E-005
                   221  0.000000000000000E+000
                   222 -2.084948303172150E-004
                   223 -6.016068738834050E-004
                   224  2.391792207062300E-005
                   225 -5.936433944469260E-005
                   226  0.000000000000000E+000
                   227  6.738641166316220E-005
                   228 -6.810419560860221E-004
                   229 -4.551539978936830E-005
                   230 -1.258754178398480E-005
                   231  0.000000000000000E+000
                   232  4.298457471804590E-006
                   233 -5.090502064464040E-004
                   234  1.233905171443230E-005
                   235 -4.216592825141240E-006
                   236  0.000000000000000E+000
                   237  7.611189222771950E-006
                   238 -3.680553283351860E-004
                   239 -6.636871274469600E-006
                   240 -1.964691100923900E-006
                   241  0.000000000000000E+000
                   242 -6.387702235235190E-005
                   243  9.434304473771200E-005
                   244  3.970673741962930E-007
                   245  3.103153995371890E-005
                   246  0.000000000000000E+000
 Sym= __2_a__
 Ene=  0.000000000000000E+000
 Spin= Alpha
 Occup=    2.00000000000000     
                     1  4.086700491009410E-005
                     2  2.932701452025010E-004
                     3 -3.607722653921840E-003
                     4 -1.006900460672760E-004
                     5 -1.443479099390140E-003
                     6  8.462546913019110E-004
                     7 -3.815524083457570E-003
                     8  0.000000000000000E+000
                     9  6.287365579014800E-006
                    10  9.714094045674820E-005
                    11  0.000000000000000E+000
                    12 -1.913509614932600E-006
                    13  2.622700200706430E-004
                    14  0.000000000000000E+000
                    15 -1.875559315360124E-005
                    16  0.000000000000000E+000
                    17  0.000000000000000E+000
                    18  7.515742543343920E-005
                    19 -3.155598738759140E-005
                    20  1.421270578204622E-004
                    21  0.000000000000000E+000
                    22  0.000000000000000E+000
                    23 -3.494767314709360E-005
                    24  1.494503094734720E-004
                    25  0.000000000000000E+000
                    26  1.354341031720686E-005
                    27 -8.205740098445094E-005
                    28  0.000000000000000E+000
                    29  0.000000000000000E+000
                    30  7.285045301653521E-005
                    31 -1.333960593565521E-004
                    32  -1.00078161434493     
                    33 -9.343895478101230E-003
                    34 -2.832513341668220E-003
                    35  8.152932856031881E-003
                    36  3.587868041726220E-004
                    37  4.366216515392640E-003
                    38  0.000000000000000E+000
                    39  2.444904006725820E-004
                    40 -3.449426445852990E-004
                    41  0.000000000000000E+000
                    42  2.748613015640730E-005
                    43 -4.443608169448290E-003
                    44  0.000000000000000E+000
                    45  5.176952072863685E-004
                    46  0.000000000000000E+000
                    47  0.000000000000000E+000
                    48  2.206905498475840E-004
                    49 -4.538472178418070E-005
                    50 -5.551349316157330E-004
                    51  0.000000000000000E+000
                    52  0.000000000000000E+000
                    53  6.795215139316380E-004
                    54  4.743449332344050E-004
                    55  0.000000000000000E+000
                    56 -2.295194420374034E-005
                    57 -1.032706083671474E-004
                    58  0.000000000000000E+000
                    59  0.000000000000000E+000
                    60  4.606861085029018E-005
                    61 -3.762368434191845E-004
                    62 -1.401770714912520E-002
                    63  2.248581727074370E-003
                    64  2.096391185193690E-004
                    65 -2.653464215362720E-003
                    66  1.193984914997170E-004
                    67 -3.334591098149450E-004
                    68  0.000000000000000E+000
                    69 -4.598031975933580E-004
                    70 -1.722391488272490E-004
                    71  0.000000000000000E+000
                    72  2.123031517801010E-003
                    73 -2.832500291680830E-004
                    74  0.000000000000000E+000
                    75 -3.819648951665554E-005
                    76  0.000000000000000E+000
                    77  0.000000000000000E+000
                    78  2.788557449711360E-005
                    79 -5.527611833442920E-006
                    80  4.213204809836033E-004
                    81  0.000000000000000E+000
                    82  0.000000000000000E+000
                    83  7.118075541668600E-004
                    84  2.221777074683130E-004
                    85  0.000000000000000E+000
                    86 -3.076548062935015E-005
                    87  5.858558514351488E-005
                    88  0.000000000000000E+000
                    89  0.000000000000000E+000
                    90 -4.963198805205094E-005
                    91 -1.523671403911955E-004
                    92 -1.777437493487960E-002
                    93  2.327659645858550E-003
                    94  2.967535518273430E-004
                    95 -3.235028355732720E-003
                    96 -5.391902692981560E-004
                    97 -5.162708177397579E-004
                    98  0.000000000000000E+000
                    99  1.000439002231940E-003
                   100  1.756994889905530E-005
                   101  0.000000000000000E+000
                   102 -1.752901156712210E-003
                   103  7.729701099401520E-005
                   104  0.000000000000000E+000
                   105 -2.167399446524410E-005
                   106  0.000000000000000E+000
                   107  0.000000000000000E+000
                   108  2.310810919338480E-005
                   109 -8.169026083103960E-007
                   110  4.146589316900309E-004
                   111  0.000000000000000E+000
                   112  0.000000000000000E+000
                   113  3.787913488932620E-004
                   114 -2.470856621151340E-004
                   115  0.000000000000000E+000
                   116  3.454143574538895E-005
                   117  7.459410197407140E-005
                   118  0.000000000000000E+000
                   119  0.000000000000000E+000
                   120  1.172286486904654E-005
                   121 -1.369988789744537E-004
                   122 -1.291691698653180E-004
                   123  5.780765434728880E-004
                   124 -2.289894652824220E-004
                   125  1.217091048204760E-004
                   126  1.036841843225260E-005
                   127  5.604341833491890E-004
                   128  0.000000000000000E+000
                   129  6.706356499885420E-005
                   130 -6.404079524974800E-004
                   131  0.000000000000000E+000
                   132 -3.670097941197910E-004
                   133 -9.741680178409510E-004
                   134  0.000000000000000E+000
                   135 -1.785677491639186E-005
                   136  0.000000000000000E+000
                   137  0.000000000000000E+000
                   138 -6.816745623254340E-007
                   139 -4.875700646103510E-005
                   140 -1.258976174931599E-004
                   141  0.000000000000000E+000
                   142  0.000000000000000E+000
                   143 -2.616776640708820E-004
                   144  9.932897670559969E-005
                   145  0.000000000000000E+000
                   146 -9.006895009619055E-006
                   147  3.558779636094477E-005
                   148  0.000000000000000E+000
                   149  0.000000000000000E+000
                   150  4.717100197662388E-005
                   151 -3.821108910402748E-005
                   152 -5.050623137932471E-004
                   153  5.219761127441720E-004
                   154 -2.280067026877140E-004
                   155  2.522356037366250E-005
                   156  7.383100721737480E-005
                   157  6.383935693253370E-004
                   158  0.000000000000000E+000
                   159 -1.539767967674590E-004
                   160 -5.498177789111170E-004