[Molden Format]
[Atoms] AU
  N     1    7    -0.1306972600   -4.3531317600    0.0000000000        
  C     2    6     0.0192185400   -1.8113074100    0.0000000000        
  C     3    6    -2.2981157500   -0.4175575400    0.0000000000        
  C     4    6     2.3310671500   -0.3919889300    0.0000000000        
  C     5    6    -2.2765273800    2.1629043100    0.0000000000        
  C     6    6     2.3042912800    2.1831071000    0.0000000000        
  C     7    6     0.0134819000    3.4922023300    0.0000000000        
  H     8    1    -4.6489369300   -7.7773242200    0.0000000000        
  H     9    1     1.6694059600   -5.1100380000    0.0000000000        
  H    10    1    -4.0368041300   -1.4558844400    0.0000000000        
  H    11    1     4.0904987200   -1.4046937000    0.0000000000        
  H    12    1    -4.0250703300    3.1927386600    0.0000000000        
  H    13    1     4.0467821300    3.2236651900    0.0000000000        
  H    14    1     0.0052225300    5.5203983600    0.0000000000        
[5D]
[7F]
[GTO]
  1  0
   s    12 1.00
  0.114200D+05  0.172695D-04
  0.171200D+04  0.134411D-03
  0.389300D+03  0.694561D-03
  0.110000D+03  0.278531D-02
  0.355700D+02  0.863457D-02
  0.125400D+02  0.199805D-01
  0.464400D+01  0.262908D-01
  0.129300D+01 -0.243845D-01
  0.511800D+00 -0.924934D-01
  0.178700D+00 -0.339683D+00
  0.246240D-01  0.345111D+00
  0.112530D-01  0.752750D+00
   s    10 1.00
  0.114200D+05  0.523000D-03
  0.171200D+04  0.404500D-02
  0.389300D+03  0.207750D-01
  0.110000D+03  0.807269D-01
  0.355700D+02  0.233074D+00
  0.125400D+02  0.433501D+00
  0.464400D+01  0.347472D+00
  0.129300D+01  0.412620D-01
  0.511800D+00 -0.850799D-02
  0.178700D+00  0.238400D-02
   s    10 1.00
  0.114200D+05 -0.115000D-03
  0.171200D+04 -0.895000D-03
  0.389300D+03 -0.462400D-02
  0.110000D+03 -0.185280D-01
  0.355700D+02 -0.573390D-01
  0.125400D+02 -0.132076D+00
  0.464400D+01 -0.172510D+00
  0.129300D+01  0.151814D+00
  0.511800D+00  0.599944D+00
  0.178700D+00  0.387462D+00
   s     1 1.00
  0.129300D+01  0.100000D+01
   s     1 1.00
  0.178700D+00  0.100000D+01
   p     5 1.00
  0.266300D+02  0.146700D-01
  0.594800D+01  0.917640D-01
  0.174200D+01  0.298683D+00
  0.555000D+00  0.498487D+00
  0.172500D+00  0.337023D+00
   p     1 1.00
  0.174200D+01  0.100000D+01
   p     1 1.00
  0.555000D+00  0.100000D+01
   d     1 1.00
  0.165400D+01  0.100000D+01
   d     1 1.00
  0.469000D+00  0.100000D+01
   f     1 1.00
  0.109300D+01  0.100000D+01
  
  2  0
   s    10 1.00
  0.823600D+04  0.531000D-03
  0.123500D+04  0.410800D-02
  0.280800D+03  0.210870D-01
  0.792700D+02  0.818530D-01
  0.255900D+02  0.234817D+00
  0.899700D+01  0.434401D+00
  0.331900D+01  0.346129D+00
  0.905900D+00  0.393780D-01
  0.364300D+00 -0.898300D-02
  0.128500D+00  0.238500D-02
   s    10 1.00
  0.823600D+04 -0.113000D-03
  0.123500D+04 -0.878000D-03
  0.280800D+03 -0.454000D-02
  0.792700D+02 -0.181330D-01
  0.255900D+02 -0.557600D-01
  0.899700D+01 -0.126895D+00
  0.331900D+01 -0.170352D+00
  0.905900D+00  0.140382D+00
  0.364300D+00  0.598684D+00
  0.128500D+00  0.395389D+00
   s     1 1.00
  0.905900D+00  0.100000D+01
   s     1 1.00
  0.364300D+00  0.100000D+01
   p     5 1.00
  0.187100D+02  0.140310D-01
  0.413300D+01  0.868660D-01
  0.120000D+01  0.290216D+00
  0.382700D+00  0.501008D+00
  0.120900D+00  0.343406D+00
   p     1 1.00
  0.382700D+00  0.100000D+01
   p     1 1.00
  0.120900D+00  0.100000D+01
   d     1 1.00
  0.109700D+01  0.100000D+01
   d     1 1.00
  0.318000D+00  0.100000D+01
   f     1 1.00
  0.761000D+00  0.100000D+01
  
  3  0
   s    10 1.00
  0.823600D+04  0.531000D-03
  0.123500D+04  0.410800D-02
  0.280800D+03  0.210870D-01
  0.792700D+02  0.818530D-01
  0.255900D+02  0.234817D+00
  0.899700D+01  0.434401D+00
  0.331900D+01  0.346129D+00
  0.905900D+00  0.393780D-01
  0.364300D+00 -0.898300D-02
  0.128500D+00  0.238500D-02
   s    10 1.00
  0.823600D+04 -0.113000D-03
  0.123500D+04 -0.878000D-03
  0.280800D+03 -0.454000D-02
  0.792700D+02 -0.181330D-01
  0.255900D+02 -0.557600D-01
  0.899700D+01 -0.126895D+00
  0.331900D+01 -0.170352D+00
  0.905900D+00  0.140382D+00
  0.364300D+00  0.598684D+00
  0.128500D+00  0.395389D+00
   s     1 1.00
  0.905900D+00  0.100000D+01
   s     1 1.00
  0.364300D+00  0.100000D+01
   p     5 1.00
  0.187100D+02  0.140310D-01
  0.413300D+01  0.868660D-01
  0.120000D+01  0.290216D+00
  0.382700D+00  0.501008D+00
  0.120900D+00  0.343406D+00
   p     1 1.00
  0.382700D+00  0.100000D+01
   p     1 1.00
  0.120900D+00  0.100000D+01
   d     1 1.00
  0.109700D+01  0.100000D+01
   d     1 1.00
  0.318000D+00  0.100000D+01
   f     1 1.00
  0.761000D+00  0.100000D+01
  
  4  0
   s    10 1.00
  0.823600D+04  0.531000D-03
  0.123500D+04  0.410800D-02
  0.280800D+03  0.210870D-01
  0.792700D+02  0.818530D-01
  0.255900D+02  0.234817D+00
  0.899700D+01  0.434401D+00
  0.331900D+01  0.346129D+00
  0.905900D+00  0.393780D-01
  0.364300D+00 -0.898300D-02
  0.128500D+00  0.238500D-02
   s    10 1.00
  0.823600D+04 -0.113000D-03
  0.123500D+04 -0.878000D-03
  0.280800D+03 -0.454000D-02
  0.792700D+02 -0.181330D-01
  0.255900D+02 -0.557600D-01
  0.899700D+01 -0.126895D+00
  0.331900D+01 -0.170352D+00
  0.905900D+00  0.140382D+00
  0.364300D+00  0.598684D+00
  0.128500D+00  0.395389D+00
   s     1 1.00
  0.905900D+00  0.100000D+01
   s     1 1.00
  0.364300D+00  0.100000D+01
   p     5 1.00
  0.187100D+02  0.140310D-01
  0.413300D+01  0.868660D-01
  0.120000D+01  0.290216D+00
  0.382700D+00  0.501008D+00
  0.120900D+00  0.343406D+00
   p     1 1.00
  0.382700D+00  0.100000D+01
   p     1 1.00
  0.120900D+00  0.100000D+01
   d     1 1.00
  0.109700D+01  0.100000D+01
   d     1 1.00
  0.318000D+00  0.100000D+01
   f     1 1.00
  0.761000D+00  0.100000D+01
  
  5  0
   s    10 1.00
  0.823600D+04  0.531000D-03
  0.123500D+04  0.410800D-02
  0.280800D+03  0.210870D-01
  0.792700D+02  0.818530D-01
  0.255900D+02  0.234817D+00
  0.899700D+01  0.434401D+00
  0.331900D+01  0.346129D+00
  0.905900D+00  0.393780D-01
  0.364300D+00 -0.898300D-02
  0.128500D+00  0.238500D-02
   s    10 1.00
  0.823600D+04 -0.113000D-03
  0.123500D+04 -0.878000D-03
  0.280800D+03 -0.454000D-02
  0.792700D+02 -0.181330D-01
  0.255900D+02 -0.557600D-01
  0.899700D+01 -0.126895D+00
  0.331900D+01 -0.170352D+00
  0.905900D+00  0.140382D+00
  0.364300D+00  0.598684D+00
  0.128500D+00  0.395389D+00
   s     1 1.00
  0.905900D+00  0.100000D+01
   s     1 1.00
  0.364300D+00  0.100000D+01
   p     5 1.00
  0.187100D+02  0.140310D-01
  0.413300D+01  0.868660D-01
  0.120000D+01  0.290216D+00
  0.382700D+00  0.501008D+00
  0.120900D+00  0.343406D+00
   p     1 1.00
  0.382700D+00  0.100000D+01
   p     1 1.00
  0.120900D+00  0.100000D+01
   d     1 1.00
  0.109700D+01  0.100000D+01
   d     1 1.00
  0.318000D+00  0.100000D+01
   f     1 1.00
  0.761000D+00  0.100000D+01
  
  6  0
   s    10 1.00
  0.823600D+04  0.531000D-03
  0.123500D+04  0.410800D-02
  0.280800D+03  0.210870D-01
  0.792700D+02  0.818530D-01
  0.255900D+02  0.234817D+00
  0.899700D+01  0.434401D+00
  0.331900D+01  0.346129D+00
  0.905900D+00  0.393780D-01
  0.364300D+00 -0.898300D-02
  0.128500D+00  0.238500D-02
   s    10 1.00
  0.823600D+04 -0.113000D-03
  0.123500D+04 -0.878000D-03
  0.280800D+03 -0.454000D-02
  0.792700D+02 -0.181330D-01
  0.255900D+02 -0.557600D-01
  0.899700D+01 -0.126895D+00
  0.331900D+01 -0.170352D+00
  0.905900D+00  0.140382D+00
  0.364300D+00  0.598684D+00
  0.128500D+00  0.395389D+00
   s     1 1.00
  0.905900D+00  0.100000D+01
   s     1 1.00
  0.364300D+00  0.100000D+01
   p     5 1.00
  0.187100D+02  0.140310D-01
  0.413300D+01  0.868660D-01
  0.120000D+01  0.290216D+00
  0.382700D+00  0.501008D+00
  0.120900D+00  0.343406D+00
   p     1 1.00
  0.382700D+00  0.100000D+01
   p     1 1.00
  0.120900D+00  0.100000D+01
   d     1 1.00
  0.109700D+01  0.100000D+01
   d     1 1.00
  0.318000D+00  0.100000D+01
   f     1 1.00
  0.761000D+00  0.100000D+01
  
  7  0
   s    10 1.00
  0.823600D+04  0.531000D-03
  0.123500D+04  0.410800D-02
  0.280800D+03  0.210870D-01
  0.792700D+02  0.818530D-01
  0.255900D+02  0.234817D+00
  0.899700D+01  0.434401D+00
  0.331900D+01  0.346129D+00
  0.905900D+00  0.393780D-01
  0.364300D+00 -0.898300D-02
  0.128500D+00  0.238500D-02
   s    10 1.00
  0.823600D+04 -0.113000D-03
  0.123500D+04 -0.878000D-03
  0.280800D+03 -0.454000D-02
  0.792700D+02 -0.181330D-01
  0.255900D+02 -0.557600D-01
  0.899700D+01 -0.126895D+00
  0.331900D+01 -0.170352D+00
  0.905900D+00  0.140382D+00
  0.364300D+00  0.598684D+00
  0.128500D+00  0.395389D+00
   s     1 1.00
  0.905900D+00  0.100000D+01
   s     1 1.00
  0.364300D+00  0.100000D+01
   p     5 1.00
  0.187100D+02  0.140310D-01
  0.413300D+01  0.868660D-01
  0.120000D+01  0.290216D+00
  0.382700D+00  0.501008D+00
  0.120900D+00  0.343406D+00
   p     1 1.00
  0.382700D+00  0.100000D+01
   p     1 1.00
  0.120900D+00  0.100000D+01
   d     1 1.00
  0.109700D+01  0.100000D+01
   d     1 1.00
  0.318000D+00  0.100000D+01
   f     1 1.00
  0.761000D+00  0.100000D+01
  
  8  0
   s     4 1.00
  0.130100D+02  0.196850D-01
  0.196200D+01  0.137977D+00
  0.444600D+00  0.478148D+00
  0.122000D+00  0.501240D+00
   s     1 1.00
  0.122000D+00  0.100000D+01
   p     1 1.00
  0.727000D+00  0.100000D+01
  
  9  0
   s     4 1.00
  0.130100D+02  0.196850D-01
  0.196200D+01  0.137977D+00
  0.444600D+00  0.478148D+00
  0.122000D+00  0.501240D+00
   s     1 1.00
  0.122000D+00  0.100000D+01
   p     1 1.00
  0.727000D+00  0.100000D+01
  
 10  0
   s     4 1.00
  0.130100D+02  0.196850D-01
  0.196200D+01  0.137977D+00
  0.444600D+00  0.478148D+00
  0.122000D+00  0.501240D+00
   s     1 1.00
  0.122000D+00  0.100000D+01
   p     1 1.00
  0.727000D+00  0.100000D+01
  
 11  0
   s     4 1.00
  0.130100D+02  0.196850D-01
  0.196200D+01  0.137977D+00
  0.444600D+00  0.478148D+00
  0.122000D+00  0.501240D+00
   s     1 1.00
  0.122000D+00  0.100000D+01
   p     1 1.00
  0.727000D+00  0.100000D+01
  
 12  0
   s     4 1.00
  0.130100D+02  0.196850D-01
  0.196200D+01  0.137977D+00
  0.444600D+00  0.478148D+00
  0.122000D+00  0.501240D+00
   s     1 1.00
  0.122000D+00  0.100000D+01
   p     1 1.00
  0.727000D+00  0.100000D+01
  
 13  0
   s     4 1.00
  0.130100D+02  0.196850D-01
  0.196200D+01  0.137977D+00
  0.444600D+00  0.478148D+00
  0.122000D+00  0.501240D+00
   s     1 1.00
  0.122000D+00  0.100000D+01
   p     1 1.00
  0.727000D+00  0.100000D+01
  
 14  0
   s     4 1.00
  0.130100D+02  0.196850D-01
  0.196200D+01  0.137977D+00
  0.444600D+00  0.478148D+00
  0.122000D+00  0.501240D+00
   s     1 1.00
  0.122000D+00  0.100000D+01
   p     1 1.00
  0.727000D+00  0.100000D+01
  
[MO]
 Sym= __1_A__
 Ene=  0.000000000000000E+000
 Spin= Alpha
 Occup=    2.00000000000000     
                     1  1.132574954583608E-004
                     2  0.998344945386754     
                     3 -2.668767057918761E-003
                     4  1.837504162525034E-003
                     5  6.570947236224269E-003
                     6  2.867804259800691E-003
                     7  5.965540328087804E-003
                     8  0.000000000000000E+000
                     9 -7.125922506127553E-004
                    10 -7.290823853182168E-004
                    11  0.000000000000000E+000
                    12 -2.507167358254413E-003
                    13 -1.905494471005738E-003
                    14  0.000000000000000E+000
                    15 -2.967591323970932E-005
                    16  0.000000000000000E+000
                    17  0.000000000000000E+000
                    18 -1.570719362713454E-004
                    19 -5.742424357262541E-005
                    20  8.863576625418706E-005
                    21  0.000000000000000E+000
                    22  0.000000000000000E+000
                    23 -2.087039223976170E-004
                    24  5.099981408329024E-004
                    25  0.000000000000000E+000
                    26 -5.567678322945135E-006
                    27 -5.020758111803123E-005
                    28  0.000000000000000E+000
                    29  0.000000000000000E+000
                    30  3.968763676970398E-005
                    31 -1.084764732971262E-004
                    32 -3.844698521589551E-004
                    33  1.833019348285142E-004
                    34  3.266325050323464E-004
                    35 -1.145664322813375E-004
                    36 -6.936261302350757E-005
                    37 -2.712735190483859E-003
                    38  0.000000000000000E+000
                    39  3.724115612811735E-004
                    40  2.160545181413482E-004
                    41  0.000000000000000E+000
                    42 -2.090090692202852E-003
                    43  5.122290746079802E-003
                    44  0.000000000000000E+000
                    45  4.285598921277058E-006
                    46  0.000000000000000E+000
                    47  0.000000000000000E+000
                    48 -1.323061010486690E-004
                    49  1.988415094541960E-005
                    50 -1.971708770531089E-004
                    51  0.000000000000000E+000
                    52  0.000000000000000E+000
                    53  5.165205614775142E-005
                    54  7.791610011610953E-004
                    55  0.000000000000000E+000
                    56 -3.371935523266989E-006
                    57 -7.287407468238803E-005
                    58  0.000000000000000E+000
                    59  0.000000000000000E+000
                    60  2.438633919361094E-005
                    61 -1.258606589810556E-004
                    62 -5.576953365101464E-004
                    63 -2.228998112682692E-003
                    64 -8.740650965608423E-005
                    65  2.267210155156534E-003
                    66 -5.119655425907439E-004
                    67  1.532696534272186E-004
                    68  0.000000000000000E+000
                    69  3.985698562066531E-004
                    70  9.001282805698407E-004
                    71  0.000000000000000E+000
                    72 -1.771056348658398E-003
                    73  7.161797395712358E-004
                    74  0.000000000000000E+000
                    75 -4.431552399855103E-005
                    76  0.000000000000000E+000
                    77  0.000000000000000E+000
                    78 -6.437014258196235E-005
                    79 -2.039837615374150E-005
                    80 -1.338507333433377E-004
                    81  0.000000000000000E+000
                    82  0.000000000000000E+000
                    83  3.221983758843538E-005
                    84  1.196646965580008E-005
                    85  0.000000000000000E+000
                    86  8.728127456582545E-006
                    87 -4.684946151853306E-005
                    88  0.000000000000000E+000
                    89  0.000000000000000E+000
                    90 -2.173192802524166E-005
                    91 -1.559102879073704E-004
                    92 -1.790814963198253E-004
                    93 -6.536748483069665E-004
                    94  1.601591251394925E-004
                    95 -7.233884853112015E-005
                    96  2.174434028567428E-004
                    97  1.115221825857723E-005
                    98  0.000000000000000E+000
                    99  3.427503098636281E-004
                   100  3.811842257803877E-004
                   101  0.000000000000000E+000
                   102  6.094515721135309E-004
                   103 -1.786245296483024E-003
                   104  0.000000000000000E+000
                   105 -1.170998519957762E-005
                   106  0.000000000000000E+000
                   107  0.000000000000000E+000
                   108 -4.544526136307654E-005
                   109 -1.300045471901887E-005
                   110  8.516181961433640E-005
                   111  0.000000000000000E+000
                   112  0.000000000000000E+000
                   113 -1.631094890161219E-004
                   114  8.753526223023313E-005
                   115  0.000000000000000E+000
                   116 -1.956587299950039E-005
                   117 -2.211004999184739E-005
                   118  0.000000000000000E+000
                   119  0.000000000000000E+000
                   120 -1.125237709574399E-005
                   121 -3.702479414464916E-005
                   122 -2.455318823114699E-004
                   123 -5.973340699162154E-004
                   124  1.713740816034931E-004
                   125  3.096173800280614E-004
                   126 -3.395356914458133E-005
                   127 -3.368036371296716E-004
                   128  0.000000000000000E+000
                   129  2.448302763646070E-004
                   130  6.601577027032850E-004
                   131  0.000000000000000E+000
                   132  4.491771483944375E-004
                   133  2.038421938839456E-003
                   134  0.000000000000000E+000
                   135  1.413005038535834E-005
                   136  0.000000000000000E+000
                   137  0.000000000000000E+000
                   138  4.659236699142588E-005
                   139 -1.935974899460477E-006
                   140  2.069185810569905E-004
                   141  0.000000000000000E+000
                   142  0.000000000000000E+000
                   143  4.111407821694860E-004
                   144  2.284686049593144E-004
                   145  0.000000000000000E+000
                   146 -1.270395005925075E-005
                   147 -6.505419173039789E-005
                   148  0.000000000000000E+000
                   149  0.000000000000000E+000
                   150 -1.319201072711837E-005
                   151 -5.444133594316242E-005
                   152 -1.323969285903174E-004
                   153 -3.625546769363640E-004
                   154  5.510423385435394E-005
                   155  1.924285024118584E-004
                   156  8.475208159472912E-006
                   157 -8.592666814155187E-005
                   158  0.000000000000000E+000
                   159  1.295057487535038E-005
                   160  5.160821048184137E-005
                   161  0.000000000000000E+000
                   162  7.471684999303483E-004
                   163 -3.965398745809589E-004
                   164  0.000000000000000E+000
                   165  1.793192617814538E-006
                   166  0.000000000000000E+000
                   167  0.000000000000000E+000
                   168  2.817642242731788E-006
                   169  9.984308864030961E-006
                   170  1.054536882966221E-004
                   171  0.000000000000000E+000
                   172  0.000000000000000E+000
                   173  4.819356545518700E-005
                   174  2.844690417049653E-005
                   175  0.000000000000000E+000
                   176  3.111732962150932E-006
                   177 -1.389939124998875E-005
                   178  0.000000000000000E+000
                   179  0.000000000000000E+000
                   180 -2.132188257236773E-005
                   181 -2.983547335685839E-005
                   182 -1.372993518571086E-004
                   183 -4.000653385352468E-004
                   184  3.268830208717032E-005
                   185  1.988508505973691E-004
                   186 -5.089831520478235E-005
                   187 -6.417212188064748E-005
                   188  0.000000000000000E+000
                   189  2.722167581833173E-004
                   190  1.197612773374748E-004
                   191  0.000000000000000E+000
                   192  1.372726654993519E-003
                   193 -3.417041529021922E-004
                   194  0.000000000000000E+000
                   195  1.395691270082584E-006
                   196  0.000000000000000E+000
                   197  0.000000000000000E+000
                   198 -3.559708460225284E-006
                   199  4.510427408774885E-006
                   200 -8.742399621305726E-006
                   201  0.000000000000000E+000
                   202  0.000000000000000E+000
                   203 -7.989305146931940E-005
                   204 -2.056899441934223E-004
                   205  0.000000000000000E+000
                   206 -1.025798645709027E-005
                   207 -4.101780966062953E-006
                   208  0.000000000000000E+000
                   209  0.000000000000000E+000
                   210  8.163661576856082E-006
                   211 -3.745758611858432E-006
                   212 -5.361664086492718E-005
                   213  9.183083918789756E-005
                   214  1.824072004972127E-005
                   215  2.017519796246638E-005
                   216  0.000000000000000E+000
                   217 -8.876752182685698E-004
                   218 -6.303071760485101E-004
                   219 -2.416744388414486E-004
                   220  6.407910764505482E-005
                   221  0.000000000000000E+000
                   222 -2.084948499085607E-004
                   223 -6.016068679719709E-004
                   224  2.391792130158277E-005
                   225 -5.936434011705126E-005
                   226  0.000000000000000E+000
                   227  6.738640528083161E-005
                   228 -6.810419510011133E-004
                   229 -4.551539872632827E-005
                   230 -1.258754137983818E-005
                   231  0.000000000000000E+000
                   232  4.298458697227499E-006
                   233 -5.090502051255754E-004
                   234  1.233905171885885E-005
                   235 -4.216592829081262E-006
                   236  0.000000000000000E+000
                   237  7.611170113607848E-006
                   238 -3.680553240192516E-004
                   239 -6.636870371886739E-006
                   240 -1.964691087310497E-006
                   241  0.000000000000000E+000
                   242 -6.387701800148921E-005
                   243  9.434304390211209E-005
                   244  3.970673536190707E-007
                   245  3.103153973724628E-005
                   246  0.000000000000000E+000
 Sym= __2_A__
 Ene=  0.000000000000000E+000
 Spin= Alpha
 Occup=    2.00000000000000     
                     1  4.086700480364697E-005
                     2  2.932701529656881E-004
                     3 -3.607722659856954E-003
                     4 -1.006900460169492E-004
                     5 -1.443479099651800E-003
                     6  8.462546837577316E-004
                     7 -3.815524085098212E-003
                     8  0.000000000000000E+000
                     9  6.287365580128738E-006
                    10  9.714094049693469E-005
                    11  0.000000000000000E+000
                    12 -1.913509843446715E-006
                    13  2.622700194731234E-004
                    14  0.000000000000000E+000
                    15 -1.875559308785772E-005
                    16  0.000000000000000E+000
                    17  0.000000000000000E+000
                    18  7.515742540338113E-005
                    19 -3.155598762003407E-005
                    20  1.421270579670727E-004
                    21  0.000000000000000E+000
                    22  0.000000000000000E+000
                    23 -3.494767305714268E-005
                    24  1.494503080193900E-004
                    25  0.000000000000000E+000
                    26  1.354341040998200E-005
                    27 -8.205740096194823E-005
                    28  0.000000000000000E+000
                    29  0.000000000000000E+000
                    30  7.285045277045192E-005
                    31 -1.333960593600233E-004
                    32  -1.00078161434469     
                    33 -9.343895483787265E-003
                    34 -2.832513341433589E-003
                    35  8.152932854983719E-003
                    36  3.587867635508040E-004
                    37  4.366216516939037E-003
                    38  0.000000000000000E+000
                    39  2.444904032891501E-004
                    40 -3.449426453330749E-004
                    41  0.000000000000000E+000
                    42  2.748614108587143E-005
                    43 -4.443608168794754E-003
                    44  0.000000000000000E+000
                    45  5.176952073739493E-004
                    46  0.000000000000000E+000
                    47  0.000000000000000E+000
                    48  2.206905502011098E-004
                    49 -4.538472287009777E-005
                    50 -5.551349313394015E-004
                    51  0.000000000000000E+000
                    52  0.000000000000000E+000
                    53  6.795215126284224E-004
                    54  4.743449305204422E-004
                    55  0.000000000000000E+000
                    56 -2.295194375618248E-005
                    57 -1.032706083513786E-004
                    58  0.000000000000000E+000
                    59  0.000000000000000E+000
                    60  4.606861071507178E-005
                    61 -3.762368435225166E-004
                    62 -1.401770792317834E-002
                    63  2.248581739832427E-003
                    64  2.096391159195601E-004
                    65 -2.653464210328645E-003
                    66  1.193985102385780E-004
                    67 -3.334591267574042E-004
                    68  0.000000000000000E+000
                    69 -4.598031984279937E-004
                    70 -1.722391483399238E-004
                    71  0.000000000000000E+000
                    72  2.123031516305101E-003
                    73 -2.832500275227786E-004
                    74  0.000000000000000E+000
                    75 -3.819648946468691E-005
                    76  0.000000000000000E+000
                    77  0.000000000000000E+000
                    78  2.788557482490454E-005
                    79 -5.527612510178780E-006
                    80  4.213204802417587E-004
                    81  0.000000000000000E+000
                    82  0.000000000000000E+000
                    83  7.118075532050420E-004
                    84  2.221777053518170E-004
                    85  0.000000000000000E+000
                    86 -3.076548086452295E-005
                    87  5.858558530059086E-005
                    88  0.000000000000000E+000
                    89  0.000000000000000E+000
                    90 -4.963198782529206E-005
                    91 -1.523671404774642E-004
                    92 -1.777437432071057E-002
                    93  2.327659639289139E-003
                    94  2.967535535898719E-004
                    95 -3.235028358389808E-003
                    96 -5.391902347460872E-004
                    97 -5.162708178361031E-004
                    98  0.000000000000000E+000
                    99  1.000438999182299E-003
                   100  1.756994965433826E-005
                   101  0.000000000000000E+000
                   102 -1.752901159713400E-003
                   103  7.729701149675049E-005
                   104  0.000000000000000E+000
                   105 -2.167399455250323E-005
                   106  0.000000000000000E+000
                   107  0.000000000000000E+000
                   108  2.310810942187654E-005
                   109 -8.169039013887264E-007
                   110  4.146589324756936E-004
                   111  0.000000000000000E+000
                   112  0.000000000000000E+000
                   113  3.787913486317690E-004
                   114 -2.470856620838384E-004
                   115  0.000000000000000E+000
                   116  3.454143548118210E-005
                   117  7.459410193363402E-005
                   118  0.000000000000000E+000
                   119  0.000000000000000E+000
                   120  1.172286498466225E-005
                   121 -1.369988788750938E-004
                   122 -1.291691924783656E-004
                   123  5.780765414577156E-004
                   124 -2.289894649697422E-004
                   125  1.217091024703739E-004
                   126  1.036841654416591E-005
                   127  5.604341889326692E-004
                   128  0.000000000000000E+000
                   129  6.706356530479959E-005
                   130 -6.404079526002690E-004
                   131  0.000000000000000E+000
                   132 -3.670097952946801E-004
                   133 -9.741680200387732E-004
                   134  0.000000000000000E+000
                   135 -1.785677489926316E-005
                   136  0.000000000000000E+000
                   137  0.000000000000000E+000
                   138 -6.816743503013572E-007
                   139 -4.875700678656037E-005
                   140 -1.258976171500454E-004
                   141  0.000000000000000E+000
                   142  0.000000000000000E+000
                   143 -2.616776640143840E-004
                   144  9.932897556389702E-005
                   145  0.000000000000000E+000
                   146 -9.006894977386155E-006
                   147  3.558779642714584E-005
                   148  0.000000000000000E+000
                   149  0.000000000000000E+000
                   150  4.717100203125173E-005
                   151 -3.821108907875170E-005
                   152 -5.050622214591216E-004
                   153  5.219761065046716E-004
                   154 -2.280067025301186E-004
                   155  2.522356078812968E-005
                   156  7.383099712444577E-005
                   157  6.383935727796477E-004
                   158  0.000000000000000E+000
                   159 -1.539767959693000E-004
                   160 -5.498177789815826E-004