[Molden Format]
[Atoms] AU
  N     1    7    -0.1306972600   -4.3531317600    0.0000000000        
  C     2    6     0.0192185400   -1.8113074100    0.0000000000        
  C     3    6    -2.2981157500   -0.4175575400    0.0000000000        
  C     4    6     2.3310671500   -0.3919889300    0.0000000000        
  C     5    6    -2.2765273800    2.1629043100    0.0000000000        
  C     6    6     2.3042912800    2.1831071000    0.0000000000        
  C     7    6     0.0134819000    3.4922023300    0.0000000000        
  H     8    1    -4.6489369300   -7.7773242200    0.0000000000        
  H     9    1     1.6694059600   -5.1100380000    0.0000000000        
  H    10    1    -4.0368041300   -1.4558844400    0.0000000000        
  H    11    1     4.0904987200   -1.4046937000    0.0000000000        
  H    12    1    -4.0250703300    3.1927386600    0.0000000000        
  H    13    1     4.0467821300    3.2236651900    0.0000000000        
  H    14    1     0.0052225300    5.5203983600    0.0000000000        
[5D]
[7F]
[GTO]
  1  0
   s    12 1.00
  0.114200D+05  0.172695D-04
  0.171200D+04  0.134411D-03
  0.389300D+03  0.694561D-03
  0.110000D+03  0.278531D-02
  0.355700D+02  0.863457D-02
  0.125400D+02  0.199805D-01
  0.464400D+01  0.262908D-01
  0.129300D+01 -0.243845D-01
  0.511800D+00 -0.924934D-01
  0.178700D+00 -0.339683D+00
  0.246240D-01  0.345111D+00
  0.112530D-01  0.752750D+00
   s    10 1.00
  0.114200D+05  0.523000D-03
  0.171200D+04  0.404500D-02
  0.389300D+03  0.207750D-01
  0.110000D+03  0.807269D-01
  0.355700D+02  0.233074D+00
  0.125400D+02  0.433501D+00
  0.464400D+01  0.347472D+00
  0.129300D+01  0.412620D-01
  0.511800D+00 -0.850799D-02
  0.178700D+00  0.238400D-02
   s    10 1.00
  0.114200D+05 -0.115000D-03
  0.171200D+04 -0.895000D-03
  0.389300D+03 -0.462400D-02
  0.110000D+03 -0.185280D-01
  0.355700D+02 -0.573390D-01
  0.125400D+02 -0.132076D+00
  0.464400D+01 -0.172510D+00
  0.129300D+01  0.151814D+00
  0.511800D+00  0.599944D+00
  0.178700D+00  0.387462D+00
   s     1 1.00
  0.129300D+01  0.100000D+01
   s     1 1.00
  0.178700D+00  0.100000D+01
   p     5 1.00
  0.266300D+02  0.146700D-01
  0.594800D+01  0.917640D-01
  0.174200D+01  0.298683D+00
  0.555000D+00  0.498487D+00
  0.172500D+00  0.337023D+00
   p     1 1.00
  0.174200D+01  0.100000D+01
   p     1 1.00
  0.555000D+00  0.100000D+01
   d     1 1.00
  0.165400D+01  0.100000D+01
   d     1 1.00
  0.469000D+00  0.100000D+01
   f     1 1.00
  0.109300D+01  0.100000D+01
  
  2  0
   s    10 1.00
  0.823600D+04  0.531000D-03
  0.123500D+04  0.410800D-02
  0.280800D+03  0.210870D-01
  0.792700D+02  0.818530D-01
  0.255900D+02  0.234817D+00
  0.899700D+01  0.434401D+00
  0.331900D+01  0.346129D+00
  0.905900D+00  0.393780D-01
  0.364300D+00 -0.898300D-02
  0.128500D+00  0.238500D-02
   s    10 1.00
  0.823600D+04 -0.113000D-03
  0.123500D+04 -0.878000D-03
  0.280800D+03 -0.454000D-02
  0.792700D+02 -0.181330D-01
  0.255900D+02 -0.557600D-01
  0.899700D+01 -0.126895D+00
  0.331900D+01 -0.170352D+00
  0.905900D+00  0.140382D+00
  0.364300D+00  0.598684D+00
  0.128500D+00  0.395389D+00
   s     1 1.00
  0.905900D+00  0.100000D+01
   s     1 1.00
  0.364300D+00  0.100000D+01
   p     5 1.00
  0.187100D+02  0.140310D-01
  0.413300D+01  0.868660D-01
  0.120000D+01  0.290216D+00
  0.382700D+00  0.501008D+00
  0.120900D+00  0.343406D+00
   p     1 1.00
  0.382700D+00  0.100000D+01
   p     1 1.00
  0.120900D+00  0.100000D+01
   d     1 1.00
  0.109700D+01  0.100000D+01
   d     1 1.00
  0.318000D+00  0.100000D+01
   f     1 1.00
  0.761000D+00  0.100000D+01
  
  3  0
   s    10 1.00
  0.823600D+04  0.531000D-03
  0.123500D+04  0.410800D-02
  0.280800D+03  0.210870D-01
  0.792700D+02  0.818530D-01
  0.255900D+02  0.234817D+00
  0.899700D+01  0.434401D+00
  0.331900D+01  0.346129D+00
  0.905900D+00  0.393780D-01
  0.364300D+00 -0.898300D-02
  0.128500D+00  0.238500D-02
   s    10 1.00
  0.823600D+04 -0.113000D-03
  0.123500D+04 -0.878000D-03
  0.280800D+03 -0.454000D-02
  0.792700D+02 -0.181330D-01
  0.255900D+02 -0.557600D-01
  0.899700D+01 -0.126895D+00
  0.331900D+01 -0.170352D+00
  0.905900D+00  0.140382D+00
  0.364300D+00  0.598684D+00
  0.128500D+00  0.395389D+00
   s     1 1.00
  0.905900D+00  0.100000D+01
   s     1 1.00
  0.364300D+00  0.100000D+01
   p     5 1.00
  0.187100D+02  0.140310D-01
  0.413300D+01  0.868660D-01
  0.120000D+01  0.290216D+00
  0.382700D+00  0.501008D+00
  0.120900D+00  0.343406D+00
   p     1 1.00
  0.382700D+00  0.100000D+01
   p     1 1.00
  0.120900D+00  0.100000D+01
   d     1 1.00
  0.109700D+01  0.100000D+01
   d     1 1.00
  0.318000D+00  0.100000D+01
   f     1 1.00
  0.761000D+00  0.100000D+01
  
  4  0
   s    10 1.00
  0.823600D+04  0.531000D-03
  0.123500D+04  0.410800D-02
  0.280800D+03  0.210870D-01
  0.792700D+02  0.818530D-01
  0.255900D+02  0.234817D+00
  0.899700D+01  0.434401D+00
  0.331900D+01  0.346129D+00
  0.905900D+00  0.393780D-01
  0.364300D+00 -0.898300D-02
  0.128500D+00  0.238500D-02
   s    10 1.00
  0.823600D+04 -0.113000D-03
  0.123500D+04 -0.878000D-03
  0.280800D+03 -0.454000D-02
  0.792700D+02 -0.181330D-01
  0.255900D+02 -0.557600D-01
  0.899700D+01 -0.126895D+00
  0.331900D+01 -0.170352D+00
  0.905900D+00  0.140382D+00
  0.364300D+00  0.598684D+00
  0.128500D+00  0.395389D+00
   s     1 1.00
  0.905900D+00  0.100000D+01
   s     1 1.00
  0.364300D+00  0.100000D+01
   p     5 1.00
  0.187100D+02  0.140310D-01
  0.413300D+01  0.868660D-01
  0.120000D+01  0.290216D+00
  0.382700D+00  0.501008D+00
  0.120900D+00  0.343406D+00
   p     1 1.00
  0.382700D+00  0.100000D+01
   p     1 1.00
  0.120900D+00  0.100000D+01
   d     1 1.00
  0.109700D+01  0.100000D+01
   d     1 1.00
  0.318000D+00  0.100000D+01
   f     1 1.00
  0.761000D+00  0.100000D+01
  
  5  0
   s    10 1.00
  0.823600D+04  0.531000D-03
  0.123500D+04  0.410800D-02
  0.280800D+03  0.210870D-01
  0.792700D+02  0.818530D-01
  0.255900D+02  0.234817D+00
  0.899700D+01  0.434401D+00
  0.331900D+01  0.346129D+00
  0.905900D+00  0.393780D-01
  0.364300D+00 -0.898300D-02
  0.128500D+00  0.238500D-02
   s    10 1.00
  0.823600D+04 -0.113000D-03
  0.123500D+04 -0.878000D-03
  0.280800D+03 -0.454000D-02
  0.792700D+02 -0.181330D-01
  0.255900D+02 -0.557600D-01
  0.899700D+01 -0.126895D+00
  0.331900D+01 -0.170352D+00
  0.905900D+00  0.140382D+00
  0.364300D+00  0.598684D+00
  0.128500D+00  0.395389D+00
   s     1 1.00
  0.905900D+00  0.100000D+01
   s     1 1.00
  0.364300D+00  0.100000D+01
   p     5 1.00
  0.187100D+02  0.140310D-01
  0.413300D+01  0.868660D-01
  0.120000D+01  0.290216D+00
  0.382700D+00  0.501008D+00
  0.120900D+00  0.343406D+00
   p     1 1.00
  0.382700D+00  0.100000D+01
   p     1 1.00
  0.120900D+00  0.100000D+01
   d     1 1.00
  0.109700D+01  0.100000D+01
   d     1 1.00
  0.318000D+00  0.100000D+01
   f     1 1.00
  0.761000D+00  0.100000D+01
  
  6  0
   s    10 1.00
  0.823600D+04  0.531000D-03
  0.123500D+04  0.410800D-02
  0.280800D+03  0.210870D-01
  0.792700D+02  0.818530D-01
  0.255900D+02  0.234817D+00
  0.899700D+01  0.434401D+00
  0.331900D+01  0.346129D+00
  0.905900D+00  0.393780D-01
  0.364300D+00 -0.898300D-02
  0.128500D+00  0.238500D-02
   s    10 1.00
  0.823600D+04 -0.113000D-03
  0.123500D+04 -0.878000D-03
  0.280800D+03 -0.454000D-02
  0.792700D+02 -0.181330D-01
  0.255900D+02 -0.557600D-01
  0.899700D+01 -0.126895D+00
  0.331900D+01 -0.170352D+00
  0.905900D+00  0.140382D+00
  0.364300D+00  0.598684D+00
  0.128500D+00  0.395389D+00
   s     1 1.00
  0.905900D+00  0.100000D+01
   s     1 1.00
  0.364300D+00  0.100000D+01
   p     5 1.00
  0.187100D+02  0.140310D-01
  0.413300D+01  0.868660D-01
  0.120000D+01  0.290216D+00
  0.382700D+00  0.501008D+00
  0.120900D+00  0.343406D+00
   p     1 1.00
  0.382700D+00  0.100000D+01
   p     1 1.00
  0.120900D+00  0.100000D+01
   d     1 1.00
  0.109700D+01  0.100000D+01
   d     1 1.00
  0.318000D+00  0.100000D+01
   f     1 1.00
  0.761000D+00  0.100000D+01
  
  7  0
   s    10 1.00
  0.823600D+04  0.531000D-03
  0.123500D+04  0.410800D-02
  0.280800D+03  0.210870D-01
  0.792700D+02  0.818530D-01
  0.255900D+02  0.234817D+00
  0.899700D+01  0.434401D+00
  0.331900D+01  0.346129D+00
  0.905900D+00  0.393780D-01
  0.364300D+00 -0.898300D-02
  0.128500D+00  0.238500D-02
   s    10 1.00
  0.823600D+04 -0.113000D-03
  0.123500D+04 -0.878000D-03
  0.280800D+03 -0.454000D-02
  0.792700D+02 -0.181330D-01
  0.255900D+02 -0.557600D-01
  0.899700D+01 -0.126895D+00
  0.331900D+01 -0.170352D+00
  0.905900D+00  0.140382D+00
  0.364300D+00  0.598684D+00
  0.128500D+00  0.395389D+00
   s     1 1.00
  0.905900D+00  0.100000D+01
   s     1 1.00
  0.364300D+00  0.100000D+01
   p     5 1.00
  0.187100D+02  0.140310D-01
  0.413300D+01  0.868660D-01
  0.120000D+01  0.290216D+00
  0.382700D+00  0.501008D+00
  0.120900D+00  0.343406D+00
   p     1 1.00
  0.382700D+00  0.100000D+01
   p     1 1.00
  0.120900D+00  0.100000D+01
   d     1 1.00
  0.109700D+01  0.100000D+01
   d     1 1.00
  0.318000D+00  0.100000D+01
   f     1 1.00
  0.761000D+00  0.100000D+01
  
  8  0
   s     4 1.00
  0.130100D+02  0.196850D-01
  0.196200D+01  0.137977D+00
  0.444600D+00  0.478148D+00
  0.122000D+00  0.501240D+00
   s     1 1.00
  0.122000D+00  0.100000D+01
   p     1 1.00
  0.727000D+00  0.100000D+01
  
  9  0
   s     4 1.00
  0.130100D+02  0.196850D-01
  0.196200D+01  0.137977D+00
  0.444600D+00  0.478148D+00
  0.122000D+00  0.501240D+00
   s     1 1.00
  0.122000D+00  0.100000D+01
   p     1 1.00
  0.727000D+00  0.100000D+01
  
 10  0
   s     4 1.00
  0.130100D+02  0.196850D-01
  0.196200D+01  0.137977D+00
  0.444600D+00  0.478148D+00
  0.122000D+00  0.501240D+00
   s     1 1.00
  0.122000D+00  0.100000D+01
   p     1 1.00
  0.727000D+00  0.100000D+01
  
 11  0
   s     4 1.00
  0.130100D+02  0.196850D-01
  0.196200D+01  0.137977D+00
  0.444600D+00  0.478148D+00
  0.122000D+00  0.501240D+00
   s     1 1.00
  0.122000D+00  0.100000D+01
   p     1 1.00
  0.727000D+00  0.100000D+01
  
 12  0
   s     4 1.00
  0.130100D+02  0.196850D-01
  0.196200D+01  0.137977D+00
  0.444600D+00  0.478148D+00
  0.122000D+00  0.501240D+00
   s     1 1.00
  0.122000D+00  0.100000D+01
   p     1 1.00
  0.727000D+00  0.100000D+01
  
 13  0
   s     4 1.00
  0.130100D+02  0.196850D-01
  0.196200D+01  0.137977D+00
  0.444600D+00  0.478148D+00
  0.122000D+00  0.501240D+00
   s     1 1.00
  0.122000D+00  0.100000D+01
   p     1 1.00
  0.727000D+00  0.100000D+01
  
 14  0
   s     4 1.00
  0.130100D+02  0.196850D-01
  0.196200D+01  0.137977D+00
  0.444600D+00  0.478148D+00
  0.122000D+00  0.501240D+00
   s     1 1.00
  0.122000D+00  0.100000D+01
   p     1 1.00
  0.727000D+00  0.100000D+01
  
[MO]
 Sym= __1_A__
 Ene=  0.000000000000000E+000
 Spin= Alpha
 Occup=    2.00000000000000     
                     1  1.132574954583902E-004
                     2  0.998344945386753     
                     3 -2.668767057917061E-003
                     4  1.837504162525011E-003
                     5  6.570947236224181E-003
                     6  2.867804259802407E-003
                     7  5.965540328087973E-003
                     8  0.000000000000000E+000
                     9 -7.125922506127076E-004
                    10 -7.290823853182335E-004
                    11  0.000000000000000E+000
                    12 -2.507167358254448E-003
                    13 -1.905494471005608E-003
                    14  0.000000000000000E+000
                    15 -2.967591323973312E-005
                    16  0.000000000000000E+000
                    17  0.000000000000000E+000
                    18 -1.570719362713333E-004
                    19 -5.742424357258580E-005
                    20  8.863576625413882E-005
                    21  0.000000000000000E+000
                    22  0.000000000000000E+000
                    23 -2.087039223976578E-004
                    24  5.099981408331557E-004
                    25  0.000000000000000E+000
                    26 -5.567678322967637E-006
                    27 -5.020758111804205E-005
                    28  0.000000000000000E+000
                    29  0.000000000000000E+000
                    30  3.968763676974694E-005
                    31 -1.084764732971364E-004
                    32 -3.844698521578165E-004
                    33  1.833019348294253E-004
                    34  3.266325050323528E-004
                    35 -1.145664322814935E-004
                    36 -6.936261301567950E-005
                    37 -2.712735190484903E-003
                    38  0.000000000000000E+000
                    39  3.724115612807860E-004
                    40  2.160545181415919E-004
                    41  0.000000000000000E+000
                    42 -2.090090692205438E-003
                    43  5.122290746080083E-003
                    44  0.000000000000000E+000
                    45  4.285598921268672E-006
                    46  0.000000000000000E+000
                    47  0.000000000000000E+000
                    48 -1.323061010486682E-004
                    49  1.988415094561258E-005
                    50 -1.971708770531682E-004
                    51  0.000000000000000E+000
                    52  0.000000000000000E+000
                    53  5.165205614789812E-005
                    54  7.791610011615025E-004
                    55  0.000000000000000E+000
                    56 -3.371935523344038E-006
                    57 -7.287407468238696E-005
                    58  0.000000000000000E+000
                    59  0.000000000000000E+000
                    60  2.438633919361952E-005
                    61 -1.258606589810473E-004
                    62 -5.576953365112440E-004
                    63 -2.228998112686386E-003
                    64 -8.740650965601335E-005
                    65  2.267210155156769E-003
                    66 -5.119655425949539E-004
                    67  1.532696534294514E-004
                    68  0.000000000000000E+000
                    69  3.985698562069511E-004
                    70  9.001282805697761E-004
                    71  0.000000000000000E+000
                    72 -1.771056348658066E-003
                    73  7.161797395711017E-004
                    74  0.000000000000000E+000
                    75 -4.431552399848760E-005
                    76  0.000000000000000E+000
                    77  0.000000000000000E+000
                    78 -6.437014258199974E-005
                    79 -2.039837615359265E-005
                    80 -1.338507333432418E-004
                    81  0.000000000000000E+000
                    82  0.000000000000000E+000
                    83  3.221983758851086E-005
                    84  1.196646965601740E-005
                    85  0.000000000000000E+000
                    86  8.728127456620011E-006
                    87 -4.684946151855735E-005
                    88  0.000000000000000E+000
                    89  0.000000000000000E+000
                    90 -2.173192802526080E-005
                    91 -1.559102879073088E-004
                    92 -1.790814963200386E-004
                    93 -6.536748483034617E-004
                    94  1.601591251394573E-004
                    95 -7.233884853148903E-005
                    96  2.174434028539469E-004
                    97  1.115221825375039E-005
                    98  0.000000000000000E+000
                    99  3.427503098637963E-004
                   100  3.811842257808705E-004
                   101  0.000000000000000E+000
                   102  6.094515721136601E-004
                   103 -1.786245296482398E-003
                   104  0.000000000000000E+000
                   105 -1.170998519962813E-005
                   106  0.000000000000000E+000
                   107  0.000000000000000E+000
                   108 -4.544526136299676E-005
                   109 -1.300045471889509E-005
                   110  8.516181961427304E-005
                   111  0.000000000000000E+000
                   112  0.000000000000000E+000
                   113 -1.631094890162254E-004
                   114  8.753526223044045E-005
                   115  0.000000000000000E+000
                   116 -1.956587299946831E-005
                   117 -2.211004999180608E-005
                   118  0.000000000000000E+000
                   119  0.000000000000000E+000
                   120 -1.125237709577764E-005
                   121 -3.702479414468871E-005
                   122 -2.455318823112955E-004
                   123 -5.973340699154684E-004
                   124  1.713740816034719E-004
                   125  3.096173800281195E-004
                   126 -3.395356914436059E-005
                   127 -3.368036371297066E-004
                   128  0.000000000000000E+000
                   129  2.448302763645700E-004
                   130  6.601577027032707E-004
                   131  0.000000000000000E+000
                   132  4.491771483947415E-004
                   133  2.038421938839715E-003
                   134  0.000000000000000E+000
                   135  1.413005038534815E-005
                   136  0.000000000000000E+000
                   137  0.000000000000000E+000
                   138  4.659236699142746E-005
                   139 -1.935974899395600E-006
                   140  2.069185810569793E-004
                   141  0.000000000000000E+000
                   142  0.000000000000000E+000
                   143  4.111407821695318E-004
                   144  2.284686049594703E-004
                   145  0.000000000000000E+000
                   146 -1.270395005925049E-005
                   147 -6.505419173040138E-005
                   148  0.000000000000000E+000
                   149  0.000000000000000E+000
                   150 -1.319201072714542E-005
                   151 -5.444133594314576E-005
                   152 -1.323969285904471E-004
                   153 -3.625546769375474E-004
                   154  5.510423385440096E-005
                   155  1.924285024117265E-004
                   156  8.475208159763336E-006
                   157 -8.592666813931909E-005
                   158  0.000000000000000E+000
                   159  1.295057487530818E-005
                   160  5.160821048176250E-005
                   161  0.000000000000000E+000
                   162  7.471684999306100E-004
                   163 -3.965398745815420E-004
                   164  0.000000000000000E+000
                   165  1.793192617841077E-006
                   166  0.000000000000000E+000
                   167  0.000000000000000E+000
                   168  2.817642242808014E-006
                   169  9.984308864080795E-006
                   170  1.054536882966610E-004
                   171  0.000000000000000E+000
                   172  0.000000000000000E+000
                   173  4.819356545523876E-005
                   174  2.844690417055122E-005
                   175  0.000000000000000E+000
                   176  3.111732962148682E-006
                   177 -1.389939125000329E-005
                   178  0.000000000000000E+000
                   179  0.000000000000000E+000
                   180 -2.132188257237887E-005
                   181 -2.983547335688991E-005
                   182 -1.372993518572020E-004
                   183 -4.000653385349649E-004
                   184  3.268830208716416E-005
                   185  1.988508505973096E-004
                   186 -5.089831520513185E-005
                   187 -6.417212188118798E-005
                   188  0.000000000000000E+000
                   189  2.722167581833849E-004
                   190  1.197612773375563E-004
                   191  0.000000000000000E+000
                   192  1.372726654993879E-003
                   193 -3.417041529023222E-004
                   194  0.000000000000000E+000
                   195  1.395691270082048E-006
                   196  0.000000000000000E+000
                   197  0.000000000000000E+000
                   198 -3.559708460184574E-006
                   199  4.510427408794076E-006
                   200 -8.742399621331332E-006
                   201  0.000000000000000E+000
                   202  0.000000000000000E+000
                   203 -7.989305146931254E-005
                   204 -2.056899441934102E-004
                   205  0.000000000000000E+000
                   206 -1.025798645709148E-005
                   207 -4.101780966061043E-006
                   208  0.000000000000000E+000
                   209  0.000000000000000E+000
                   210  8.163661576853128E-006
                   211 -3.745758611867897E-006
                   212 -5.361664086491771E-005
                   213  9.183083918795526E-005
                   214  1.824072004972353E-005
                   215  2.017519796246892E-005
                   216  0.000000000000000E+000
                   217 -8.876752182668433E-004
                   218 -6.303071760496105E-004
                   219 -2.416744388415852E-004
                   220  6.407910764516304E-005
                   221  0.000000000000000E+000
                   222 -2.084948499073903E-004
                   223 -6.016068679719634E-004
                   224  2.391792130158027E-005
                   225 -5.936434011699019E-005
                   226  0.000000000000000E+000
                   227  6.738640528186595E-005
                   228 -6.810419510017577E-004
                   229 -4.551539872646791E-005
                   230 -1.258754137985084E-005
                   231  0.000000000000000E+000
                   232  4.298458696981103E-006
                   233 -5.090502051256864E-004
                   234  1.233905171885601E-005
                   235 -4.216592829088330E-006
                   236  0.000000000000000E+000
                   237  7.611170114762900E-006
                   238 -3.680553240193790E-004
                   239 -6.636870371943270E-006
                   240 -1.964691087305729E-006
                   241  0.000000000000000E+000
                   242 -6.387701800210907E-005
                   243  9.434304390232037E-005
                   244  3.970673536165371E-007
                   245  3.103153973727623E-005
                   246  0.000000000000000E+000
 Sym= __2_A__
 Ene=  0.000000000000000E+000
 Spin= Alpha
 Occup=    2.00000000000000     
                     1  4.086700480555441E-005
                     2  2.932701529644748E-004
                     3 -3.607722659873075E-003
                     4 -1.006900460166391E-004
                     5 -1.443479099636514E-003
                     6  8.462546837547255E-004
                     7 -3.815524085100791E-003
                     8  0.000000000000000E+000
                     9  6.287365578244482E-006
                    10  9.714094049541998E-005
                    11  0.000000000000000E+000
                    12 -1.913509842875848E-006
                    13  2.622700194705253E-004
                    14  0.000000000000000E+000
                    15 -1.875559308734983E-005
                    16  0.000000000000000E+000
                    17  0.000000000000000E+000
                    18  7.515742540335458E-005
                    19 -3.155598762034690E-005
                    20  1.421270579650324E-004
                    21  0.000000000000000E+000
                    22  0.000000000000000E+000
                    23 -3.494767305391818E-005
                    24  1.494503080186308E-004
                    25  0.000000000000000E+000
                    26  1.354341040981627E-005
                    27 -8.205740096250119E-005
                    28  0.000000000000000E+000
                    29  0.000000000000000E+000
                    30  7.285045277033885E-005
                    31 -1.333960593589792E-004
                    32  -1.00078161434420     
                    33 -9.343895483807284E-003
                    34 -2.832513341420519E-003
                    35  8.152932854905121E-003
                    36  3.587867635202496E-004
                    37  4.366216516918107E-003
                    38  0.000000000000000E+000
                    39  2.444904032784096E-004
                    40 -3.449426453491120E-004
                    41  0.000000000000000E+000
                    42  2.748614110359920E-005
                    43 -4.443608168780049E-003
                    44  0.000000000000000E+000
                    45  5.176952073738426E-004
                    46  0.000000000000000E+000
                    47  0.000000000000000E+000
                    48  2.206905502008766E-004
                    49 -4.538472287156662E-005
                    50 -5.551349313241592E-004
                    51  0.000000000000000E+000
                    52  0.000000000000000E+000
                    53  6.795215126051338E-004
                    54  4.743449305196785E-004
                    55  0.000000000000000E+000
                    56 -2.295194375674863E-005
                    57 -1.032706083516810E-004
                    58  0.000000000000000E+000
                    59  0.000000000000000E+000
                    60  4.606861071539385E-005
                    61 -3.762368435199772E-004
                    62 -1.401770793048990E-002
                    63  2.248581739775916E-003
                    64  2.096391158927126E-004
                    65 -2.653464210263674E-003
                    66  1.193985102303416E-004
                    67 -3.334591267521581E-004
                    68  0.000000000000000E+000
                    69 -4.598031984153252E-004
                    70 -1.722391483486175E-004
                    71  0.000000000000000E+000
                    72  2.123031516311137E-003
                    73 -2.832500275343361E-004
                    74  0.000000000000000E+000
                    75 -3.819648946174950E-005
                    76  0.000000000000000E+000
                    77  0.000000000000000E+000
                    78  2.788557482629212E-005
                    79 -5.527612509643841E-006
                    80  4.213204802369283E-004
                    81  0.000000000000000E+000
                    82  0.000000000000000E+000
                    83  7.118075531975988E-004
                    84  2.221777053398200E-004
                    85  0.000000000000000E+000
                    86 -3.076548086549301E-005
                    87  5.858558530062528E-005
                    88  0.000000000000000E+000
                    89  0.000000000000000E+000
                    90 -4.963198782546430E-005
                    91 -1.523671404745147E-004
                    92 -1.777437434013416E-002
                    93  2.327659639111264E-003
                    94  2.967535535295291E-004
                    95 -3.235028358227773E-003
                    96 -5.391902346998090E-004
                    97 -5.162708178075172E-004
                    98  0.000000000000000E+000
                    99  1.000438999158551E-003
                   100  1.756994963634141E-005
                   101  0.000000000000000E+000
                   102 -1.752901159713608E-003
                   103  7.729701147980864E-005
                   104  0.000000000000000E+000
                   105 -2.167399454431671E-005
                   106  0.000000000000000E+000
                   107  0.000000000000000E+000
                   108  2.310810942421374E-005
                   109 -8.169039035004024E-007
                   110  4.146589324668931E-004
                   111  0.000000000000000E+000
                   112  0.000000000000000E+000
                   113  3.787913486230480E-004
                   114 -2.470856620626981E-004
                   115  0.000000000000000E+000
                   116  3.454143548288933E-005
                   117  7.459410193323405E-005
                   118  0.000000000000000E+000
                   119  0.000000000000000E+000
                   120  1.172286498457551E-005
                   121 -1.369988788695679E-004
                   122 -1.291691931841518E-004
                   123  5.780765414834517E-004
                   124 -2.289894649700399E-004
                   125  1.217091024384640E-004
                   126  1.036841654476785E-005
                   127  5.604341889370340E-004
                   128  0.000000000000000E+000
                   129  6.706356530650833E-005
                   130 -6.404079525960426E-004
                   131  0.000000000000000E+000
                   132 -3.670097952852998E-004
                   133 -9.741680200554946E-004
                   134  0.000000000000000E+000
                   135 -1.785677489942001E-005
                   136  0.000000000000000E+000
                   137  0.000000000000000E+000
                   138 -6.816743501538326E-007
                   139 -4.875700678631864E-005
                   140 -1.258976171473663E-004
                   141  0.000000000000000E+000
                   142  0.000000000000000E+000
                   143 -2.616776640140106E-004
                   144  9.932897555889812E-005
                   145  0.000000000000000E+000
                   146 -9.006894977479347E-006
                   147  3.558779642796302E-005
                   148  0.000000000000000E+000
                   149  0.000000000000000E+000
                   150  4.717100203115235E-005
                   151 -3.821108907859682E-005
                   152 -5.050622253696836E-004
                   153  5.219761065141936E-004
                   154 -2.280067025352759E-004
                   155  2.522356075587337E-005
                   156  7.383099712007961E-005
                   157  6.383935727845137E-004
                   158  0.000000000000000E+000
                   159 -1.539767959662429E-004
                   160 -5.498177789755892E-004