[Molden Format]
[Atoms] AU
  N     1    7    -0.1798695400   -4.4469655000    0.1269507500        
  C     2    6    -0.0371656800   -1.7158773600    0.0889261000        
  C     3    6    -2.2780878600   -0.3820633200    0.1874730400        
  C     4    6     2.2206499400   -0.4484246300   -0.0580354600        
  C     5    6    -2.2483034300    2.2141963600    0.1060043200        
  C     6    6     2.2390584800    2.1570982000   -0.1073362800        
  C     7    6     0.0088527100    3.4907849400   -0.0416947700        
  H     8    1    -0.9025754700   -5.4042159100   -3.0360671900        
  H     9    1     1.6651533700   -5.1321256300    0.0255119400        
  H    10    1    -4.0235829900   -1.3984487700    0.3489741700        
  H    11    1     3.9641953100   -1.4807793700   -0.1500905100        
  H    12    1    -3.9929849300    3.2475419400    0.1903471700        
  H    13    1     4.0073699700    3.1497933000   -0.2029372700        
  H    14    1     0.0348466500    5.5197064600   -0.0951084700        
[5D]
[7F]
[GTO]
  1  0
   s    12 1.00
  0.114200D+05  0.172695D-04
  0.171200D+04  0.134411D-03
  0.389300D+03  0.694561D-03
  0.110000D+03  0.278531D-02
  0.355700D+02  0.863457D-02
  0.125400D+02  0.199805D-01
  0.464400D+01  0.262908D-01
  0.129300D+01 -0.243845D-01
  0.511800D+00 -0.924934D-01
  0.178700D+00 -0.339683D+00
  0.246240D-01  0.345111D+00
  0.112530D-01  0.752750D+00
   s    10 1.00
  0.114200D+05  0.523000D-03
  0.171200D+04  0.404500D-02
  0.389300D+03  0.207750D-01
  0.110000D+03  0.807269D-01
  0.355700D+02  0.233074D+00
  0.125400D+02  0.433501D+00
  0.464400D+01  0.347472D+00
  0.129300D+01  0.412620D-01
  0.511800D+00 -0.850799D-02
  0.178700D+00  0.238400D-02
   s    10 1.00
  0.114200D+05 -0.115000D-03
  0.171200D+04 -0.895000D-03
  0.389300D+03 -0.462400D-02
  0.110000D+03 -0.185280D-01
  0.355700D+02 -0.573390D-01
  0.125400D+02 -0.132076D+00
  0.464400D+01 -0.172510D+00
  0.129300D+01  0.151814D+00
  0.511800D+00  0.599944D+00
  0.178700D+00  0.387462D+00
   s     1 1.00
  0.129300D+01  0.100000D+01
   s     1 1.00
  0.178700D+00  0.100000D+01
   p     5 1.00
  0.266300D+02  0.146700D-01
  0.594800D+01  0.917640D-01
  0.174200D+01  0.298683D+00
  0.555000D+00  0.498487D+00
  0.172500D+00  0.337023D+00
   p     1 1.00
  0.174200D+01  0.100000D+01
   p     1 1.00
  0.555000D+00  0.100000D+01
   d     1 1.00
  0.165400D+01  0.100000D+01
   d     1 1.00
  0.469000D+00  0.100000D+01
   f     1 1.00
  0.109300D+01  0.100000D+01
  
  2  0
   s    10 1.00
  0.823600D+04  0.531000D-03
  0.123500D+04  0.410800D-02
  0.280800D+03  0.210870D-01
  0.792700D+02  0.818530D-01
  0.255900D+02  0.234817D+00
  0.899700D+01  0.434401D+00
  0.331900D+01  0.346129D+00
  0.905900D+00  0.393780D-01
  0.364300D+00 -0.898300D-02
  0.128500D+00  0.238500D-02
   s    10 1.00
  0.823600D+04 -0.113000D-03
  0.123500D+04 -0.878000D-03
  0.280800D+03 -0.454000D-02
  0.792700D+02 -0.181330D-01
  0.255900D+02 -0.557600D-01
  0.899700D+01 -0.126895D+00
  0.331900D+01 -0.170352D+00
  0.905900D+00  0.140382D+00
  0.364300D+00  0.598684D+00
  0.128500D+00  0.395389D+00
   s     1 1.00
  0.905900D+00  0.100000D+01
   s     1 1.00
  0.364300D+00  0.100000D+01
   p     5 1.00
  0.187100D+02  0.140310D-01
  0.413300D+01  0.868660D-01
  0.120000D+01  0.290216D+00
  0.382700D+00  0.501008D+00
  0.120900D+00  0.343406D+00
   p     1 1.00
  0.382700D+00  0.100000D+01
   p     1 1.00
  0.120900D+00  0.100000D+01
   d     1 1.00
  0.109700D+01  0.100000D+01
   d     1 1.00
  0.318000D+00  0.100000D+01
   f     1 1.00
  0.761000D+00  0.100000D+01
  
  3  0
   s    10 1.00
  0.823600D+04  0.531000D-03
  0.123500D+04  0.410800D-02
  0.280800D+03  0.210870D-01
  0.792700D+02  0.818530D-01
  0.255900D+02  0.234817D+00
  0.899700D+01  0.434401D+00
  0.331900D+01  0.346129D+00
  0.905900D+00  0.393780D-01
  0.364300D+00 -0.898300D-02
  0.128500D+00  0.238500D-02
   s    10 1.00
  0.823600D+04 -0.113000D-03
  0.123500D+04 -0.878000D-03
  0.280800D+03 -0.454000D-02
  0.792700D+02 -0.181330D-01
  0.255900D+02 -0.557600D-01
  0.899700D+01 -0.126895D+00
  0.331900D+01 -0.170352D+00
  0.905900D+00  0.140382D+00
  0.364300D+00  0.598684D+00
  0.128500D+00  0.395389D+00
   s     1 1.00
  0.905900D+00  0.100000D+01
   s     1 1.00
  0.364300D+00  0.100000D+01
   p     5 1.00
  0.187100D+02  0.140310D-01
  0.413300D+01  0.868660D-01
  0.120000D+01  0.290216D+00
  0.382700D+00  0.501008D+00
  0.120900D+00  0.343406D+00
   p     1 1.00
  0.382700D+00  0.100000D+01
   p     1 1.00
  0.120900D+00  0.100000D+01
   d     1 1.00
  0.109700D+01  0.100000D+01
   d     1 1.00
  0.318000D+00  0.100000D+01
   f     1 1.00
  0.761000D+00  0.100000D+01
  
  4  0
   s    10 1.00
  0.823600D+04  0.531000D-03
  0.123500D+04  0.410800D-02
  0.280800D+03  0.210870D-01
  0.792700D+02  0.818530D-01
  0.255900D+02  0.234817D+00
  0.899700D+01  0.434401D+00
  0.331900D+01  0.346129D+00
  0.905900D+00  0.393780D-01
  0.364300D+00 -0.898300D-02
  0.128500D+00  0.238500D-02
   s    10 1.00
  0.823600D+04 -0.113000D-03
  0.123500D+04 -0.878000D-03
  0.280800D+03 -0.454000D-02
  0.792700D+02 -0.181330D-01
  0.255900D+02 -0.557600D-01
  0.899700D+01 -0.126895D+00
  0.331900D+01 -0.170352D+00
  0.905900D+00  0.140382D+00
  0.364300D+00  0.598684D+00
  0.128500D+00  0.395389D+00
   s     1 1.00
  0.905900D+00  0.100000D+01
   s     1 1.00
  0.364300D+00  0.100000D+01
   p     5 1.00
  0.187100D+02  0.140310D-01
  0.413300D+01  0.868660D-01
  0.120000D+01  0.290216D+00
  0.382700D+00  0.501008D+00
  0.120900D+00  0.343406D+00
   p     1 1.00
  0.382700D+00  0.100000D+01
   p     1 1.00
  0.120900D+00  0.100000D+01
   d     1 1.00
  0.109700D+01  0.100000D+01
   d     1 1.00
  0.318000D+00  0.100000D+01
   f     1 1.00
  0.761000D+00  0.100000D+01
  
  5  0
   s    10 1.00
  0.823600D+04  0.531000D-03
  0.123500D+04  0.410800D-02
  0.280800D+03  0.210870D-01
  0.792700D+02  0.818530D-01
  0.255900D+02  0.234817D+00
  0.899700D+01  0.434401D+00
  0.331900D+01  0.346129D+00
  0.905900D+00  0.393780D-01
  0.364300D+00 -0.898300D-02
  0.128500D+00  0.238500D-02
   s    10 1.00
  0.823600D+04 -0.113000D-03
  0.123500D+04 -0.878000D-03
  0.280800D+03 -0.454000D-02
  0.792700D+02 -0.181330D-01
  0.255900D+02 -0.557600D-01
  0.899700D+01 -0.126895D+00
  0.331900D+01 -0.170352D+00
  0.905900D+00  0.140382D+00
  0.364300D+00  0.598684D+00
  0.128500D+00  0.395389D+00
   s     1 1.00
  0.905900D+00  0.100000D+01
   s     1 1.00
  0.364300D+00  0.100000D+01
   p     5 1.00
  0.187100D+02  0.140310D-01
  0.413300D+01  0.868660D-01
  0.120000D+01  0.290216D+00
  0.382700D+00  0.501008D+00
  0.120900D+00  0.343406D+00
   p     1 1.00
  0.382700D+00  0.100000D+01
   p     1 1.00
  0.120900D+00  0.100000D+01
   d     1 1.00
  0.109700D+01  0.100000D+01
   d     1 1.00
  0.318000D+00  0.100000D+01
   f     1 1.00
  0.761000D+00  0.100000D+01
  
  6  0
   s    10 1.00
  0.823600D+04  0.531000D-03
  0.123500D+04  0.410800D-02
  0.280800D+03  0.210870D-01
  0.792700D+02  0.818530D-01
  0.255900D+02  0.234817D+00
  0.899700D+01  0.434401D+00
  0.331900D+01  0.346129D+00
  0.905900D+00  0.393780D-01
  0.364300D+00 -0.898300D-02
  0.128500D+00  0.238500D-02
   s    10 1.00
  0.823600D+04 -0.113000D-03
  0.123500D+04 -0.878000D-03
  0.280800D+03 -0.454000D-02
  0.792700D+02 -0.181330D-01
  0.255900D+02 -0.557600D-01
  0.899700D+01 -0.126895D+00
  0.331900D+01 -0.170352D+00
  0.905900D+00  0.140382D+00
  0.364300D+00  0.598684D+00
  0.128500D+00  0.395389D+00
   s     1 1.00
  0.905900D+00  0.100000D+01
   s     1 1.00
  0.364300D+00  0.100000D+01
   p     5 1.00
  0.187100D+02  0.140310D-01
  0.413300D+01  0.868660D-01
  0.120000D+01  0.290216D+00
  0.382700D+00  0.501008D+00
  0.120900D+00  0.343406D+00
   p     1 1.00
  0.382700D+00  0.100000D+01
   p     1 1.00
  0.120900D+00  0.100000D+01
   d     1 1.00
  0.109700D+01  0.100000D+01
   d     1 1.00
  0.318000D+00  0.100000D+01
   f     1 1.00
  0.761000D+00  0.100000D+01
  
  7  0
   s    10 1.00
  0.823600D+04  0.531000D-03
  0.123500D+04  0.410800D-02
  0.280800D+03  0.210870D-01
  0.792700D+02  0.818530D-01
  0.255900D+02  0.234817D+00
  0.899700D+01  0.434401D+00
  0.331900D+01  0.346129D+00
  0.905900D+00  0.393780D-01
  0.364300D+00 -0.898300D-02
  0.128500D+00  0.238500D-02
   s    10 1.00
  0.823600D+04 -0.113000D-03
  0.123500D+04 -0.878000D-03
  0.280800D+03 -0.454000D-02
  0.792700D+02 -0.181330D-01
  0.255900D+02 -0.557600D-01
  0.899700D+01 -0.126895D+00
  0.331900D+01 -0.170352D+00
  0.905900D+00  0.140382D+00
  0.364300D+00  0.598684D+00
  0.128500D+00  0.395389D+00
   s     1 1.00
  0.905900D+00  0.100000D+01
   s     1 1.00
  0.364300D+00  0.100000D+01
   p     5 1.00
  0.187100D+02  0.140310D-01
  0.413300D+01  0.868660D-01
  0.120000D+01  0.290216D+00
  0.382700D+00  0.501008D+00
  0.120900D+00  0.343406D+00
   p     1 1.00
  0.382700D+00  0.100000D+01
   p     1 1.00
  0.120900D+00  0.100000D+01
   d     1 1.00
  0.109700D+01  0.100000D+01
   d     1 1.00
  0.318000D+00  0.100000D+01
   f     1 1.00
  0.761000D+00  0.100000D+01
  
  8  0
   s     4 1.00
  0.130100D+02  0.196850D-01
  0.196200D+01  0.137977D+00
  0.444600D+00  0.478148D+00
  0.122000D+00  0.501240D+00
   s     1 1.00
  0.122000D+00  0.100000D+01
   p     1 1.00
  0.727000D+00  0.100000D+01
  
  9  0
   s     4 1.00
  0.130100D+02  0.196850D-01
  0.196200D+01  0.137977D+00
  0.444600D+00  0.478148D+00
  0.122000D+00  0.501240D+00
   s     1 1.00
  0.122000D+00  0.100000D+01
   p     1 1.00
  0.727000D+00  0.100000D+01
  
 10  0
   s     4 1.00
  0.130100D+02  0.196850D-01
  0.196200D+01  0.137977D+00
  0.444600D+00  0.478148D+00
  0.122000D+00  0.501240D+00
   s     1 1.00
  0.122000D+00  0.100000D+01
   p     1 1.00
  0.727000D+00  0.100000D+01
  
 11  0
   s     4 1.00
  0.130100D+02  0.196850D-01
  0.196200D+01  0.137977D+00
  0.444600D+00  0.478148D+00
  0.122000D+00  0.501240D+00
   s     1 1.00
  0.122000D+00  0.100000D+01
   p     1 1.00
  0.727000D+00  0.100000D+01
  
 12  0
   s     4 1.00
  0.130100D+02  0.196850D-01
  0.196200D+01  0.137977D+00
  0.444600D+00  0.478148D+00
  0.122000D+00  0.501240D+00
   s     1 1.00
  0.122000D+00  0.100000D+01
   p     1 1.00
  0.727000D+00  0.100000D+01
  
 13  0
   s     4 1.00
  0.130100D+02  0.196850D-01
  0.196200D+01  0.137977D+00
  0.444600D+00  0.478148D+00
  0.122000D+00  0.501240D+00
   s     1 1.00
  0.122000D+00  0.100000D+01
   p     1 1.00
  0.727000D+00  0.100000D+01
  
 14  0
   s     4 1.00
  0.130100D+02  0.196850D-01
  0.196200D+01  0.137977D+00
  0.444600D+00  0.478148D+00
  0.122000D+00  0.501240D+00
   s     1 1.00
  0.122000D+00  0.100000D+01
   p     1 1.00
  0.727000D+00  0.100000D+01
  
[MO]
 Sym= __1_A__
 Ene=  0.000000000000000E+000
 Spin= Alpha
 Occup=    2.00000000000000     
                     1  2.255114866097214E-004
                     2  0.998323463522934     
                     3 -3.807675915160630E-003
                     4  1.663195393652160E-003
                     5  8.213823769649140E-003
                     6  4.556503112482044E-003
                     7  6.689466826455419E-003
                     8 -1.903543842580811E-003
                     9 -9.355267398749815E-004
                    10 -1.176909150319731E-003
                    11  2.510970079462505E-004
                    12 -3.553853015287287E-003
                    13 -2.802315085735013E-003
                    14  1.321536337420523E-003
                    15 -4.970341076086110E-005
                    16 -3.571495028756146E-005
                    17 -1.128436163580179E-005
                    18 -3.868369336042022E-005
                    19 -6.459395732745836E-005
                    20  2.872147468444751E-006
                    21 -4.255683724836300E-005
                    22 -1.479896239674458E-004
                    23 -1.868739471455887E-004
                    24  5.664606222033151E-004
                    25 -1.249492724869508E-005
                    26 -3.308700997604822E-005
                    27 -3.430159415753979E-005
                    28  8.577221360985580E-006
                    29 -1.945571403372636E-006
                    30  2.140312442713542E-005
                    31 -7.980104277707340E-005
                    32 -4.540225443638822E-004
                    33 -6.416895879851495E-004
                    34  2.001254137262799E-004
                    35  5.102855915382151E-004
                    36 -2.117193644385299E-004
                    37 -1.741943082594185E-003
                    38 -9.163238848338921E-005
                    39  9.336207686601628E-004
                    40  7.249613762266091E-005
                    41 -6.418956365116927E-005
                    42 -3.095151017570324E-003
                    43  5.529329541278945E-003
                    44  5.023178137054426E-004
                    45 -4.337499791050964E-005
                    46  3.439298699003389E-006
                    47  2.472541017705943E-005
                    48 -1.780461587294121E-004
                    49  3.624077311019384E-005
                    50 -1.816786669020296E-004
                    51 -5.152355673516067E-005
                    52 -1.990903988211785E-004
                    53  4.740770858779410E-004
                    54  9.608963577819125E-004
                    55  6.919233639015956E-006
                    56 -1.317628199329913E-005
                    57 -2.783092244138239E-005
                    58 -1.186634919027936E-005
                    59 -3.986990421628967E-007
                    60  3.666611499827317E-005
                    61 -2.586868059265982E-005
                    62 -7.661831663256311E-004
                    63 -2.741021797534690E-003
                    64 -7.965342821552001E-005
                    65  2.831407422366424E-003
                    66 -3.658297501252397E-004
                    67 -4.606637092806390E-005
                    68 -8.965406885900871E-005
                    69  6.689981619609052E-004
                    70  1.004081630212869E-003
                    71 -3.953704676323413E-005
                    72 -1.639486011595178E-003
                    73  1.157038990911370E-003
                    74 -7.846329822086995E-005
                    75 -4.536957706433159E-005
                    76  1.028960480151383E-005
                    77 -2.333887910376018E-006
                    78 -7.767885990712298E-005
                    79 -3.397292644004350E-005
                    80 -1.896316352038390E-004
                    81 -5.963492083542844E-005
                    82 -2.286949663248739E-005
                    83  3.372818243729850E-004
                    84  1.179173661019379E-004
                    85 -1.565536189087911E-006
                    86 -1.888918164526138E-005
                    87 -4.363649412962641E-005
                    88  1.477425723654599E-005
                    89  6.717245260911180E-006
                    90 -2.133032582809899E-005
                    91 -1.629789659622622E-004
                    92 -1.262109854911022E-004
                    93 -4.220758510262160E-004
                    94  2.928584218991158E-004
                    95 -8.083526321169827E-004
                    96  1.041496586171816E-004
                    97  5.381668370163621E-006
                    98 -1.169841257484768E-004
                    99  5.708299320115719E-004
                   100  4.117639829367038E-004
                   101 -1.976942267277995E-005
                   102  4.446701623128430E-004
                   103 -2.429771924827672E-003
                   104 -1.329142942777562E-004
                   105  4.490491594979758E-007
                   106 -4.788414170904958E-006
                   107 -1.221128450370665E-006
                   108 -5.308303812457724E-005
                   109 -2.361794396605108E-005
                   110  2.295203782003171E-004
                   111  4.940778586117219E-005
                   112  1.761922369261374E-005
                   113 -7.588769113217454E-005
                   114 -1.115399959829751E-004
                   115 -1.823551357163267E-006
                   116 -2.117449459984431E-005
                   117 -2.808412400261634E-005
                   118  6.557120343187380E-006
                   119 -8.444408037639354E-006
                   120 -3.622402806818134E-006
                   121  2.305394615916791E-005
                   122 -3.167630434913049E-004
                   123 -9.047130121820985E-004
                   124  1.388680877434559E-004
                   125  8.193105145848128E-004
                   126 -5.330001894789640E-005
                   127 -2.762005059194539E-004
                   128 -6.274338028121157E-005
                   129  3.182080187801134E-004
                   130  6.813368578755334E-004
                   131 -2.427710917153248E-005
                   132  2.567905256712010E-004
                   133  2.765303941217199E-003
                   134 -2.991469730384653E-005
                   135  3.240347130857676E-006
                   136 -2.408636344503723E-006
                   137  5.341714247339315E-006
                   138  4.971751123744502E-005
                   139 -3.049781764724359E-006
                   140  2.411573810757637E-004
                   141 -1.780546203760978E-005
                   142 -7.973058308448430E-006
                   143  4.556958930189762E-004
                   144  3.774166698628912E-004
                   145 -7.647784685742640E-006
                   146 -1.354234372260089E-005
                   147 -8.118974294136610E-005
                   148  1.131598547721682E-006
                   149 -5.935271549346068E-006
                   150 -3.541325449900462E-005
                   151 -5.322769423372963E-005
                   152 -1.485256336523262E-004
                   153 -4.418529893459405E-004
                   154 -1.870344133578071E-005
                   155  4.817574869158665E-004
                   156 -2.896158300027492E-005
                   157 -8.635783597556861E-005
                   158 -7.524110704635922E-005
                   159  1.313579412163844E-004
                   160 -7.528791235424047E-005
                   161  8.589701847044442E-007
                   162  9.861890264631823E-004
                   163 -8.209455965368750E-004
                   164  2.962762730737680E-005
                   165 -5.382078097004598E-006
                   166  9.234636761401172E-007
                   167  2.251740105939873E-006
                   168 -1.642872992203912E-005
                   169  1.357579520502416E-005
                   170  4.067063729547484E-005
                   171  8.142271548323147E-006
                   172 -4.081860777481078E-006
                   173 -1.065187206427384E-005
                   174 -2.678988918929054E-005
                   175 -5.400842777028033E-007
                   176  4.237372817211540E-006
                   177 -8.316452871179459E-006
                   178 -1.116810978557985E-007
                   179  3.302745482623932E-006
                   180 -2.042010588636989E-005
                   181 -1.147691338557705E-005
                   182 -1.462876921871494E-004
                   183 -4.492852725612267E-004
                   184  5.497797616586510E-005
                   185  1.050000947964158E-004
                   186 -6.796469680129378E-005
                   187 -3.993945030927817E-005
                   188 -6.363567426290393E-005
                   189  3.701803896365064E-004
                   190  1.540378779957618E-004
                   191 -6.592088539499878E-006
                   192  1.969373962421007E-003
                   193 -4.975409726956456E-004
                   194 -1.078663250648374E-004
                   195  4.102359836291207E-006
                   196  2.134614170368709E-007
                   197 -3.649111534549161E-007
                   198 -5.346995196653682E-006
                   199  5.965551690193819E-006
                   200  2.536546475304523E-005
                   201  1.668431740359852E-005
                   202  1.893229113039278E-005
                   203 -1.486633774313454E-004
                   204 -2.967953557536289E-004
                   205 -2.248076422817128E-006
                   206 -1.516142592672102E-005
                   207 -6.658207274481721E-006
                   208  1.439964303137221E-006
                   209 -2.242722722121309E-006
                   210  1.593792695144753E-005
                   211  9.510077446389176E-006
                   212 -2.990058501754430E-004
                   213  6.362849750891687E-005
                   214 -7.248894722111284E-005
                   215 -1.457570240765451E-005
                   216 -5.186512368255569E-005
                   217 -6.864583810579421E-004
                   218 -9.582918377680964E-004
                   219 -2.948276657959747E-004
                   220  4.411552406563650E-005
                   221  7.214033603687942E-005
                   222 -3.261226324601847E-004
                   223 -3.585942868541654E-004
                   224  5.862654283658596E-005
                   225 -9.018276959397161E-005
                   226 -5.011746951612301E-007
                   227  3.563745147975552E-005
                   228 -6.740137464384324E-004
                   229 -7.487693948139426E-005
                   230 -9.997998735798694E-006
                   231  4.865431662201126E-006
                   232  9.578173953486912E-005
                   233 -7.916045039663878E-004
                   234  1.421323439702208E-005
                   235 -4.643821558756878E-006
                   236 -4.187056005151680E-006
                   237 -3.452833015421939E-005
                   238 -3.544397630739351E-004
                   239  8.965100099857458E-006
                   240  1.511432040218316E-005
                   241 -3.429718347718656E-006
                   242 -5.371615942420528E-005
                   243  1.429548885380235E-004
                   244  1.035910692815466E-006
                   245  3.224304842307804E-005
                   246 -1.836231860994483E-006
 Sym= __2_A__
 Ene=  0.000000000000000E+000
 Spin= Alpha
 Occup=    2.00000000000000     
                     1 -1.030828193839480E-005
                     2 -1.409662287143297E-004
                     3  1.857701497766784E-003
                     4 -8.069386610220026E-006
                     5  1.123960027124041E-003
                     6 -2.480901124956398E-004
                     7  1.884183457738490E-003
                     8 -1.915078830695738E-004
                     9 -4.425637435189633E-005
                    10 -1.332129961189813E-004
                    11  4.869932784682940E-005
                    12  2.253354227742156E-005
                    13  5.075777015937025E-005
                    14  5.709813796349201E-005
                    15 -2.209076046419774E-006
                    16  1.507752720840283E-006
                    17 -8.103044397803971E-006
                    18 -8.049140479649956E-005
                    19  2.104737136658153E-005
                    20 -1.726570363976087E-004
                    21 -1.838846981253921E-005
                    22 -9.853764143618568E-007
                    23  1.292464267783213E-005
                    24 -7.137517740940052E-005
                    25  2.378320101119383E-007
                    26 -1.689451008050881E-005
                    27  7.224425272639645E-005
                    28 -7.918964584248570E-006
                    29 -4.680101243869849E-006
                    30 -6.289698524558980E-005
                    31  1.487082359848142E-004
                    32   1.00074082354931     
                    33  8.939364766849414E-003
                    34  2.961852938641439E-003
                    35 -8.624768310883213E-003
                    36  3.224745928237213E-005
                    37 -2.027980826827714E-003
                    38  1.234664746994480E-004
                    39 -1.567172494917204E-004
                    40  6.720791224752217E-004
                    41 -1.593817225956118E-004
                    42 -7.676886699091170E-005
                    43  3.066580073644239E-003
                    44 -1.441764482811628E-004
                    45 -4.967212806604325E-004
                    46 -4.887406509504891E-005
                    47 -2.436013085186579E-006
                    48  1.173637039412532E-004
                    49  2.752758334969553E-005
                    50  6.906363718785151E-004
                    51  1.346850356750460E-004
                    52 -1.072343707177991E-005
                    53 -1.097497012557004E-003
                    54 -2.247154664427702E-004
                    55 -1.254462397792238E-005
                    56  6.527479124129963E-006
                    57  9.419750340639653E-007
                    58 -9.802154936740279E-006
                    59 -1.805526649355039E-005
                    60 -2.377962134605002E-005
                    61  3.120240698231822E-004
                    62  1.771878205212440E-002
                    63 -1.858616905471543E-003
                    64 -3.071478724177043E-004
                    65  3.133719797198259E-003
                    66  2.470990491560401E-004
                    67 -3.154713264767089E-005
                    68 -8.130658922214145E-005
                    69  4.106378508612789E-004
                    70 -1.068076064228641E-004
                    71 -1.048743048941108E-005
                    72 -1.861011127286239E-003
                    73  2.512970070072905E-004
                    74  1.327057970507535E-004
                    75  3.585928714578787E-005
                    76 -9.749041580568705E-007
                    77  1.320509185085594E-006
                    78  9.911438946884444E-006
                    79  2.940950447312793E-005
                    80 -4.645603586634604E-004
                    81  4.050651268072750E-005
                    82 -2.748071947791667E-005
                    83 -8.926266589224606E-004
                    84 -4.993835893402531E-004
                    85  5.884856676791004E-006
                    86  4.744514561892954E-005
                    87 -4.929441583509718E-005
                    88  1.030858508305002E-005
                    89 -1.249649221577104E-005
                    90  3.320528832580713E-005
                    91  1.052241221523923E-004
                    92  2.116428161635749E-002
                    93 -1.812068835503391E-003
                    94 -3.558815699963694E-004
                    95  3.558011211841725E-003
                    96 -2.511705699088171E-004
                    97 -1.122224954298556E-004
                    98 -5.725497986033663E-005
                    99 -7.049915288092845E-004
                   100 -1.296487178806980E-004
                   101  6.127043133403549E-005
                   102  1.772788036270173E-003
                   103  2.743337853972973E-005
                   104 -7.080801627778818E-005
                   105  2.428526788225152E-005
                   106  4.792537968328117E-006
                   107  1.117420914169822E-006
                   108  7.844936059119791E-006
                   109 -1.862077927182645E-005
                   110 -4.548758689002837E-004
                   111 -3.970217458917574E-005
                   112 -6.370931102402988E-005
                   113 -7.063828404356836E-004
                   114  5.474406673106174E-004
                   115 -5.933376089198109E-006
                   116 -5.139577032561354E-005
                   117 -5.627563866998106E-005
                   118 -2.296131717158228E-006
                   119 -7.386936231181557E-006
                   120 -3.284925369728429E-005
                   121  7.936188542388010E-005
                   122  8.476051767106558E-005
                   123 -6.822123901153446E-004
                   124  2.339117474985339E-004
                   125 -3.312564355493572E-004
                   126 -6.224336558079168E-005
                   127 -2.401975657486484E-004
                   128 -1.397569694503397E-005
                   129  1.043421866788499E-004
                   130  6.219877675785817E-004
                   131 -2.617634074552304E-005
                   132  3.942339406253917E-004
                   133  6.286173353432655E-004
                   134 -3.903880728598445E-005
                   135  2.821977211191366E-005
                   136  5.314553443411336E-007
                   137  1.764759493162316E-007
                   138  1.492690439404321E-005
                   139  4.482450734597006E-005
                   140  1.102075621171917E-004
                   141 -3.761824485625354E-006
                   142  3.143741881672513E-005
                   143  2.926344371381556E-004
                   144 -2.781130744639779E-004
                   145 -2.279959493958259E-006
                   146 -4.495738404451508E-006
                   147 -2.029469029681885E-005
                   148 -1.482023502537382E-006
                   149 -1.180433902668196E-006
                   150 -1.621735215644429E-005
                   151  1.243844555543228E-005
                   152  2.403604047632874E-004
                   153 -6.821816709120611E-004
                   154  2.496531686955835E-004
                   155 -3.368615723708271E-004
                   156  4.298458037679143E-005
                   157 -2.116866337192939E-004
                   158 -2.892039611509650E-005
                   159 -3.922833254547474E-005
                   160  5.859234749497707E-004