[Molden Format]
[Atoms] AU
  N     1    7    -0.1798695400   -4.4469655000    0.1269507500        
  C     2    6    -0.0371656800   -1.7158773600    0.0889261000        
  C     3    6    -2.2780878600   -0.3820633200    0.1874730400        
  C     4    6     2.2206499400   -0.4484246300   -0.0580354600        
  C     5    6    -2.2483034300    2.2141963600    0.1060043200        
  C     6    6     2.2390584800    2.1570982000   -0.1073362800        
  C     7    6     0.0088527100    3.4907849400   -0.0416947700        
  H     8    1    -0.9025754700   -5.4042159100   -3.0360671900        
  H     9    1     1.6651533700   -5.1321256300    0.0255119400        
  H    10    1    -4.0235829900   -1.3984487700    0.3489741700        
  H    11    1     3.9641953100   -1.4807793700   -0.1500905100        
  H    12    1    -3.9929849300    3.2475419400    0.1903471700        
  H    13    1     4.0073699700    3.1497933000   -0.2029372700        
  H    14    1     0.0348466500    5.5197064600   -0.0951084700        
[5D]
[7F]
[GTO]
  1  0
   s    12 1.00
  0.114200D+05  0.172695D-04
  0.171200D+04  0.134411D-03
  0.389300D+03  0.694561D-03
  0.110000D+03  0.278531D-02
  0.355700D+02  0.863457D-02
  0.125400D+02  0.199805D-01
  0.464400D+01  0.262908D-01
  0.129300D+01 -0.243845D-01
  0.511800D+00 -0.924934D-01
  0.178700D+00 -0.339683D+00
  0.246240D-01  0.345111D+00
  0.112530D-01  0.752750D+00
   s    10 1.00
  0.114200D+05  0.523000D-03
  0.171200D+04  0.404500D-02
  0.389300D+03  0.207750D-01
  0.110000D+03  0.807269D-01
  0.355700D+02  0.233074D+00
  0.125400D+02  0.433501D+00
  0.464400D+01  0.347472D+00
  0.129300D+01  0.412620D-01
  0.511800D+00 -0.850799D-02
  0.178700D+00  0.238400D-02
   s    10 1.00
  0.114200D+05 -0.115000D-03
  0.171200D+04 -0.895000D-03
  0.389300D+03 -0.462400D-02
  0.110000D+03 -0.185280D-01
  0.355700D+02 -0.573390D-01
  0.125400D+02 -0.132076D+00
  0.464400D+01 -0.172510D+00
  0.129300D+01  0.151814D+00
  0.511800D+00  0.599944D+00
  0.178700D+00  0.387462D+00
   s     1 1.00
  0.129300D+01  0.100000D+01
   s     1 1.00
  0.178700D+00  0.100000D+01
   p     5 1.00
  0.266300D+02  0.146700D-01
  0.594800D+01  0.917640D-01
  0.174200D+01  0.298683D+00
  0.555000D+00  0.498487D+00
  0.172500D+00  0.337023D+00
   p     1 1.00
  0.174200D+01  0.100000D+01
   p     1 1.00
  0.555000D+00  0.100000D+01
   d     1 1.00
  0.165400D+01  0.100000D+01
   d     1 1.00
  0.469000D+00  0.100000D+01
   f     1 1.00
  0.109300D+01  0.100000D+01
  
  2  0
   s    10 1.00
  0.823600D+04  0.531000D-03
  0.123500D+04  0.410800D-02
  0.280800D+03  0.210870D-01
  0.792700D+02  0.818530D-01
  0.255900D+02  0.234817D+00
  0.899700D+01  0.434401D+00
  0.331900D+01  0.346129D+00
  0.905900D+00  0.393780D-01
  0.364300D+00 -0.898300D-02
  0.128500D+00  0.238500D-02
   s    10 1.00
  0.823600D+04 -0.113000D-03
  0.123500D+04 -0.878000D-03
  0.280800D+03 -0.454000D-02
  0.792700D+02 -0.181330D-01
  0.255900D+02 -0.557600D-01
  0.899700D+01 -0.126895D+00
  0.331900D+01 -0.170352D+00
  0.905900D+00  0.140382D+00
  0.364300D+00  0.598684D+00
  0.128500D+00  0.395389D+00
   s     1 1.00
  0.905900D+00  0.100000D+01
   s     1 1.00
  0.364300D+00  0.100000D+01
   p     5 1.00
  0.187100D+02  0.140310D-01
  0.413300D+01  0.868660D-01
  0.120000D+01  0.290216D+00
  0.382700D+00  0.501008D+00
  0.120900D+00  0.343406D+00
   p     1 1.00
  0.382700D+00  0.100000D+01
   p     1 1.00
  0.120900D+00  0.100000D+01
   d     1 1.00
  0.109700D+01  0.100000D+01
   d     1 1.00
  0.318000D+00  0.100000D+01
   f     1 1.00
  0.761000D+00  0.100000D+01
  
  3  0
   s    10 1.00
  0.823600D+04  0.531000D-03
  0.123500D+04  0.410800D-02
  0.280800D+03  0.210870D-01
  0.792700D+02  0.818530D-01
  0.255900D+02  0.234817D+00
  0.899700D+01  0.434401D+00
  0.331900D+01  0.346129D+00
  0.905900D+00  0.393780D-01
  0.364300D+00 -0.898300D-02
  0.128500D+00  0.238500D-02
   s    10 1.00
  0.823600D+04 -0.113000D-03
  0.123500D+04 -0.878000D-03
  0.280800D+03 -0.454000D-02
  0.792700D+02 -0.181330D-01
  0.255900D+02 -0.557600D-01
  0.899700D+01 -0.126895D+00
  0.331900D+01 -0.170352D+00
  0.905900D+00  0.140382D+00
  0.364300D+00  0.598684D+00
  0.128500D+00  0.395389D+00
   s     1 1.00
  0.905900D+00  0.100000D+01
   s     1 1.00
  0.364300D+00  0.100000D+01
   p     5 1.00
  0.187100D+02  0.140310D-01
  0.413300D+01  0.868660D-01
  0.120000D+01  0.290216D+00
  0.382700D+00  0.501008D+00
  0.120900D+00  0.343406D+00
   p     1 1.00
  0.382700D+00  0.100000D+01
   p     1 1.00
  0.120900D+00  0.100000D+01
   d     1 1.00
  0.109700D+01  0.100000D+01
   d     1 1.00
  0.318000D+00  0.100000D+01
   f     1 1.00
  0.761000D+00  0.100000D+01
  
  4  0
   s    10 1.00
  0.823600D+04  0.531000D-03
  0.123500D+04  0.410800D-02
  0.280800D+03  0.210870D-01
  0.792700D+02  0.818530D-01
  0.255900D+02  0.234817D+00
  0.899700D+01  0.434401D+00
  0.331900D+01  0.346129D+00
  0.905900D+00  0.393780D-01
  0.364300D+00 -0.898300D-02
  0.128500D+00  0.238500D-02
   s    10 1.00
  0.823600D+04 -0.113000D-03
  0.123500D+04 -0.878000D-03
  0.280800D+03 -0.454000D-02
  0.792700D+02 -0.181330D-01
  0.255900D+02 -0.557600D-01
  0.899700D+01 -0.126895D+00
  0.331900D+01 -0.170352D+00
  0.905900D+00  0.140382D+00
  0.364300D+00  0.598684D+00
  0.128500D+00  0.395389D+00
   s     1 1.00
  0.905900D+00  0.100000D+01
   s     1 1.00
  0.364300D+00  0.100000D+01
   p     5 1.00
  0.187100D+02  0.140310D-01
  0.413300D+01  0.868660D-01
  0.120000D+01  0.290216D+00
  0.382700D+00  0.501008D+00
  0.120900D+00  0.343406D+00
   p     1 1.00
  0.382700D+00  0.100000D+01
   p     1 1.00
  0.120900D+00  0.100000D+01
   d     1 1.00
  0.109700D+01  0.100000D+01
   d     1 1.00
  0.318000D+00  0.100000D+01
   f     1 1.00
  0.761000D+00  0.100000D+01
  
  5  0
   s    10 1.00
  0.823600D+04  0.531000D-03
  0.123500D+04  0.410800D-02
  0.280800D+03  0.210870D-01
  0.792700D+02  0.818530D-01
  0.255900D+02  0.234817D+00
  0.899700D+01  0.434401D+00
  0.331900D+01  0.346129D+00
  0.905900D+00  0.393780D-01
  0.364300D+00 -0.898300D-02
  0.128500D+00  0.238500D-02
   s    10 1.00
  0.823600D+04 -0.113000D-03
  0.123500D+04 -0.878000D-03
  0.280800D+03 -0.454000D-02
  0.792700D+02 -0.181330D-01
  0.255900D+02 -0.557600D-01
  0.899700D+01 -0.126895D+00
  0.331900D+01 -0.170352D+00
  0.905900D+00  0.140382D+00
  0.364300D+00  0.598684D+00
  0.128500D+00  0.395389D+00
   s     1 1.00
  0.905900D+00  0.100000D+01
   s     1 1.00
  0.364300D+00  0.100000D+01
   p     5 1.00
  0.187100D+02  0.140310D-01
  0.413300D+01  0.868660D-01
  0.120000D+01  0.290216D+00
  0.382700D+00  0.501008D+00
  0.120900D+00  0.343406D+00
   p     1 1.00
  0.382700D+00  0.100000D+01
   p     1 1.00
  0.120900D+00  0.100000D+01
   d     1 1.00
  0.109700D+01  0.100000D+01
   d     1 1.00
  0.318000D+00  0.100000D+01
   f     1 1.00
  0.761000D+00  0.100000D+01
  
  6  0
   s    10 1.00
  0.823600D+04  0.531000D-03
  0.123500D+04  0.410800D-02
  0.280800D+03  0.210870D-01
  0.792700D+02  0.818530D-01
  0.255900D+02  0.234817D+00
  0.899700D+01  0.434401D+00
  0.331900D+01  0.346129D+00
  0.905900D+00  0.393780D-01
  0.364300D+00 -0.898300D-02
  0.128500D+00  0.238500D-02
   s    10 1.00
  0.823600D+04 -0.113000D-03
  0.123500D+04 -0.878000D-03
  0.280800D+03 -0.454000D-02
  0.792700D+02 -0.181330D-01
  0.255900D+02 -0.557600D-01
  0.899700D+01 -0.126895D+00
  0.331900D+01 -0.170352D+00
  0.905900D+00  0.140382D+00
  0.364300D+00  0.598684D+00
  0.128500D+00  0.395389D+00
   s     1 1.00
  0.905900D+00  0.100000D+01
   s     1 1.00
  0.364300D+00  0.100000D+01
   p     5 1.00
  0.187100D+02  0.140310D-01
  0.413300D+01  0.868660D-01
  0.120000D+01  0.290216D+00
  0.382700D+00  0.501008D+00
  0.120900D+00  0.343406D+00
   p     1 1.00
  0.382700D+00  0.100000D+01
   p     1 1.00
  0.120900D+00  0.100000D+01
   d     1 1.00
  0.109700D+01  0.100000D+01
   d     1 1.00
  0.318000D+00  0.100000D+01
   f     1 1.00
  0.761000D+00  0.100000D+01
  
  7  0
   s    10 1.00
  0.823600D+04  0.531000D-03
  0.123500D+04  0.410800D-02
  0.280800D+03  0.210870D-01
  0.792700D+02  0.818530D-01
  0.255900D+02  0.234817D+00
  0.899700D+01  0.434401D+00
  0.331900D+01  0.346129D+00
  0.905900D+00  0.393780D-01
  0.364300D+00 -0.898300D-02
  0.128500D+00  0.238500D-02
   s    10 1.00
  0.823600D+04 -0.113000D-03
  0.123500D+04 -0.878000D-03
  0.280800D+03 -0.454000D-02
  0.792700D+02 -0.181330D-01
  0.255900D+02 -0.557600D-01
  0.899700D+01 -0.126895D+00
  0.331900D+01 -0.170352D+00
  0.905900D+00  0.140382D+00
  0.364300D+00  0.598684D+00
  0.128500D+00  0.395389D+00
   s     1 1.00
  0.905900D+00  0.100000D+01
   s     1 1.00
  0.364300D+00  0.100000D+01
   p     5 1.00
  0.187100D+02  0.140310D-01
  0.413300D+01  0.868660D-01
  0.120000D+01  0.290216D+00
  0.382700D+00  0.501008D+00
  0.120900D+00  0.343406D+00
   p     1 1.00
  0.382700D+00  0.100000D+01
   p     1 1.00
  0.120900D+00  0.100000D+01
   d     1 1.00
  0.109700D+01  0.100000D+01
   d     1 1.00
  0.318000D+00  0.100000D+01
   f     1 1.00
  0.761000D+00  0.100000D+01
  
  8  0
   s     4 1.00
  0.130100D+02  0.196850D-01
  0.196200D+01  0.137977D+00
  0.444600D+00  0.478148D+00
  0.122000D+00  0.501240D+00
   s     1 1.00
  0.122000D+00  0.100000D+01
   p     1 1.00
  0.727000D+00  0.100000D+01
  
  9  0
   s     4 1.00
  0.130100D+02  0.196850D-01
  0.196200D+01  0.137977D+00
  0.444600D+00  0.478148D+00
  0.122000D+00  0.501240D+00
   s     1 1.00
  0.122000D+00  0.100000D+01
   p     1 1.00
  0.727000D+00  0.100000D+01
  
 10  0
   s     4 1.00
  0.130100D+02  0.196850D-01
  0.196200D+01  0.137977D+00
  0.444600D+00  0.478148D+00
  0.122000D+00  0.501240D+00
   s     1 1.00
  0.122000D+00  0.100000D+01
   p     1 1.00
  0.727000D+00  0.100000D+01
  
 11  0
   s     4 1.00
  0.130100D+02  0.196850D-01
  0.196200D+01  0.137977D+00
  0.444600D+00  0.478148D+00
  0.122000D+00  0.501240D+00
   s     1 1.00
  0.122000D+00  0.100000D+01
   p     1 1.00
  0.727000D+00  0.100000D+01
  
 12  0
   s     4 1.00
  0.130100D+02  0.196850D-01
  0.196200D+01  0.137977D+00
  0.444600D+00  0.478148D+00
  0.122000D+00  0.501240D+00
   s     1 1.00
  0.122000D+00  0.100000D+01
   p     1 1.00
  0.727000D+00  0.100000D+01
  
 13  0
   s     4 1.00
  0.130100D+02  0.196850D-01
  0.196200D+01  0.137977D+00
  0.444600D+00  0.478148D+00
  0.122000D+00  0.501240D+00
   s     1 1.00
  0.122000D+00  0.100000D+01
   p     1 1.00
  0.727000D+00  0.100000D+01
  
 14  0
   s     4 1.00
  0.130100D+02  0.196850D-01
  0.196200D+01  0.137977D+00
  0.444600D+00  0.478148D+00
  0.122000D+00  0.501240D+00
   s     1 1.00
  0.122000D+00  0.100000D+01
   p     1 1.00
  0.727000D+00  0.100000D+01
  
[MO]
 Sym= __1_A__
 Ene=   1.00000000000000     
 Spin= Alpha
 Occup=    1.00000000000000     
                     1  2.255114866756287E-004
                     2  0.998323463522818     
                     3 -3.807675914290192E-003
                     4  1.663195393640955E-003
                     5  8.213823769414794E-003
                     6  4.556503112751771E-003
                     7  6.689466826899553E-003
                     8 -1.903543842496363E-003
                     9 -9.355267398235354E-004
                    10 -1.176909150235695E-003
                    11  2.510970079284712E-004
                    12 -3.553853015266548E-003
                    13 -2.802315085715937E-003
                    14  1.321536337399785E-003
                    15 -4.970341078562925E-005
                    16 -3.571495028911295E-005
                    17 -1.128436163468916E-005
                    18 -3.868369337871214E-005
                    19 -6.459395732868930E-005
                    20  2.872147408930813E-006
                    21 -4.255683725224825E-005
                    22 -1.479896239739763E-004
                    23 -1.868739472529918E-004
                    24  5.664606222600802E-004
                    25 -1.249492724903895E-005
                    26 -3.308700997983033E-005
                    27 -3.430159417627718E-005
                    28  8.577221361163623E-006
                    29 -1.945571404205075E-006
                    30  2.140312442964281E-005
                    31 -7.980104279025081E-005
                    32 -4.540225488805271E-004
                    33 -6.416895769441440E-004
                    34  2.001254136389092E-004
                    35  5.102855908133124E-004
                    36 -2.117193637558577E-004
                    37 -1.741943079647472E-003
                    38 -9.163238836413105E-005
                    39  9.336207686176133E-004
                    40  7.249613758069478E-005
                    41 -6.418956364620696E-005
                    42 -3.095151017990457E-003
                    43  5.529329542117917E-003
                    44  5.023178137147420E-004
                    45 -4.337499808525507E-005
                    46  3.439298670958771E-006
                    47  2.472541017770393E-005
                    48 -1.780461585045426E-004
                    49  3.624077311771574E-005
                    50 -1.816786672072605E-004
                    51 -5.152355676337550E-005
                    52 -1.990903988199594E-004
                    53  4.740770859928344E-004
                    54  9.608963577828323E-004
                    55  6.919233640072232E-006
                    56 -1.317628199734004E-005
                    57 -2.783092247580247E-005
                    58 -1.186634919281777E-005
                    59 -3.986990584267129E-007
                    60  3.666611498850241E-005
                    61 -2.586868040660311E-005
                    62 -7.661831664530957E-004
                    63 -2.741021795970043E-003
                    64 -7.965342819596953E-005
                    65  2.831407422422207E-003
                    66 -3.658297473408862E-004
                    67 -4.606637690502194E-005
                    68 -8.965406875472332E-005
                    69  6.689981617874886E-004
                    70  1.004081630975002E-003
                    71 -3.953704677853254E-005
                    72 -1.639486013382618E-003
                    73  1.157038992630560E-003
                    74 -7.846329817208468E-005
                    75 -4.536957710019007E-005
                    76  1.028960479103598E-005
                    77 -2.333887902345266E-006
                    78 -7.767885969888457E-005
                    79 -3.397292654004439E-005
                    80 -1.896316352727635E-004
                    81 -5.963492083634495E-005
                    82 -2.286949662634873E-005
                    83  3.372818244182452E-004
                    84  1.179173658784495E-004
                    85 -1.565536189263705E-006
                    86 -1.888918167385783E-005
                    87 -4.363649408919512E-005
                    88  1.477425723344380E-005
                    89  6.717245265877658E-006
                    90 -2.133032582873014E-005
                    91 -1.629789660023632E-004
                    92 -1.262109856295971E-004
                    93 -4.220758484668910E-004
                    94  2.928584219033402E-004
                    95 -8.083526321822672E-004
                    96  1.041496554837275E-004
                    97  5.381661738790065E-006
                    98 -1.169841253233388E-004
                    99  5.708299322083180E-004
                   100  4.117639837730064E-004
                   101 -1.976942269888298E-005
                   102  4.446701642200707E-004
                   103 -2.429771923302810E-003
                   104 -1.329142944221885E-004
                   105  4.490491080519615E-007
                   106 -4.788414194759820E-006
                   107 -1.221128454867195E-006
                   108 -5.308303789198096E-005
                   109 -2.361794386494310E-005
                   110  2.295203781187349E-004
                   111  4.940778584702832E-005
                   112  1.761922366783536E-005
                   113 -7.588769115647756E-005
                   114 -1.115399957046923E-004
                   115 -1.823551349495260E-006
                   116 -2.117449456770518E-005
                   117 -2.808412395857674E-005
                   118  6.557120346874246E-006
                   119 -8.444408028667895E-006
                   120 -3.622402804972643E-006
                   121  2.305394611038762E-005
                   122 -3.167630435227350E-004
                   123 -9.047130147690575E-004
                   124  1.388680878449808E-004
                   125  8.193105148037940E-004
                   126 -5.330001948149021E-005
                   127 -2.762005017745444E-004
                   128 -6.274338041472748E-005
                   129  3.182080189564155E-004
                   130  6.813368577680826E-004
                   131 -2.427710917897439E-005
                   132  2.567905257176003E-004
                   133  2.765303941598602E-003
                   134 -2.991469732011816E-005
                   135  3.240347173163103E-006
                   136 -2.408636347629302E-006
                   137  5.341714254501916E-006
                   138  4.971751135900528E-005
                   139 -3.049781822796471E-006
                   140  2.411573811748048E-004
                   141 -1.780546204116068E-005
                   142 -7.973058298628498E-006
                   143  4.556958932261644E-004
                   144  3.774166698542320E-004
                   145 -7.647784688906227E-006
                   146 -1.354234372096521E-005
                   147 -8.118974298411813E-005
                   148  1.131598552383473E-006
                   149 -5.935271551171735E-006
                   150 -3.541325447710221E-005
                   151 -5.322769427842821E-005
                   152 -1.485256336718832E-004
                   153 -4.418529921365868E-004
                   154 -1.870344121650734E-005
                   155  4.817574870346246E-004
                   156 -2.896158254987377E-005
                   157 -8.635783170363522E-005
                   158 -7.524110716718541E-005
                   159  1.313579410727554E-004
                   160 -7.528791241726318E-005
                   161  8.589701941112634E-007
                   162  9.861890264435470E-004
                   163 -8.209455964311064E-004
                   164  2.962762730714851E-005
                   165 -5.382078048795857E-006
                   166  9.234636746961170E-007
                   167  2.251740104429908E-006
                   168 -1.642872979432874E-005
                   169  1.357579525423586E-005
                   170  4.067063739213852E-005
                   171  8.142271546780598E-006
                   172 -4.081860781743219E-006
                   173 -1.065187184510253E-005
                   174 -2.678988914345363E-005
                   175 -5.400842797131520E-007
                   176  4.237372814960691E-006
                   177 -8.316452913819199E-006
                   178 -1.116810982433640E-007
                   179  3.302745484184579E-006
                   180 -2.042010590964901E-005
                   181 -1.147691343704828E-005
                   182 -1.462876922815399E-004
                   183 -4.492852727749069E-004
                   184  5.497797618746329E-005
                   185  1.050000949443708E-004
                   186 -6.796469674985847E-005
                   187 -3.993945051924340E-005
                   188 -6.363567435253995E-005
                   189  3.701803896565677E-004
                   190  1.540378780842951E-004
                   191 -6.592088543534845E-006
                   192  1.969373962546179E-003
                   193 -4.975409732397257E-004
                   194 -1.078663250754332E-004
                   195  4.102359839289266E-006
                   196  2.134614133534160E-007
                   197 -3.649111499091380E-007
                   198 -5.346995094121754E-006
                   199  5.965551686123710E-006
                   200  2.536546469615079E-005
                   201  1.668431740092524E-005
                   202  1.893229113161304E-005
                   203 -1.486633774282766E-004
                   204 -2.967953557663881E-004
                   205 -2.248076423936760E-006
                   206 -1.516142592791120E-005
                   207 -6.658207276263418E-006
                   208  1.439964303635254E-006
                   209 -2.242722721782840E-006
                   210  1.593792695277576E-005
                   211  9.510077429690620E-006
                   212 -2.990058500874447E-004
                   213  6.362849754450707E-005
                   214 -7.248894721712344E-005
                   215 -1.457570240841809E-005
                   216 -5.186512367157257E-005
                   217 -6.864583804520243E-004
                   218 -9.582918377633383E-004
                   219 -2.948276658321467E-004
                   220  4.411552409968349E-005
                   221  7.214033603922491E-005
                   222 -3.261226308972591E-004
                   223 -3.585942879667580E-004
                   224  5.862654296209617E-005
                   225 -9.018276961444170E-005
                   226 -5.011747023326515E-007
                   227  3.563745361334581E-005
                   228 -6.740137479015906E-004
                   229 -7.487693964459338E-005
                   230 -9.997998744273701E-006
                   231  4.865431675078815E-006
                   232  9.578174134839783E-005
                   233 -7.916045047603887E-004
                   234  1.421323448033367E-005
                   235 -4.643821552662974E-006
                   236 -4.187056012149184E-006
                   237 -3.452832851619493E-005
                   238 -3.544397637056646E-004
                   239  8.965100026115993E-006
                   240  1.511432042033016E-005
                   241 -3.429718345275223E-006
                   242 -5.371616031349954E-005
                   243  1.429548884999371E-004
                   244  1.035910693666852E-006
                   245  3.224304846977597E-005
                   246 -1.836231864629664E-006
 Sym= __2_A__
 Ene=   2.00000000000000     
 Spin= Alpha
 Occup=    1.00000000000000     
                     1 -1.030828188287402E-005
                     2 -1.409662245641177E-004
                     3  1.857701498265026E-003
                     4 -8.069386612005024E-006
                     5  1.123960027064961E-003
                     6 -2.480901121324927E-004
                     7  1.884183458189021E-003
                     8 -1.915078829973603E-004
                     9 -4.425637428980944E-005
                    10 -1.332129960633471E-004
                    11  4.869932783071928E-005
                    12  2.253354224408060E-005
                    13  5.075777019208937E-005
                    14  5.709813795397579E-005
                    15 -2.209076064487351E-006
                    16  1.507752719428996E-006
                    17 -8.103044397416419E-006
                    18 -8.049140480951149E-005
                    19  2.104737138440021E-005
                    20 -1.726570364385092E-004
                    21 -1.838846981543519E-005
                    22 -9.853764192498748E-007
                    23  1.292464258924232E-005
                    24 -7.137517734354633E-005
                    25  2.378320100485881E-007
                    26 -1.689451008478451E-005
                    27  7.224425271465597E-005
                    28 -7.918964584460882E-006
                    29 -4.680101244534626E-006
                    30 -6.289698524159804E-005
                    31  1.487082359767554E-004
                    32   1.00074082354832     
                    33  8.939364775055079E-003
                    34  2.961852938569634E-003
                    35 -8.624768311314599E-003
                    36  3.224746303620261E-005
                    37 -2.027980824629415E-003
                    38  1.234664747002570E-004
                    39 -1.567172496327040E-004
                    40  6.720791224465640E-004
                    41 -1.593817225861440E-004
                    42 -7.676886836867377E-005
                    43  3.066580074193286E-003
                    44 -1.441764482158723E-004
                    45 -4.967212807914212E-004
                    46 -4.887406511531216E-005
                    47 -2.436013089841083E-006
                    48  1.173637040884526E-004
                    49  2.752758345934813E-005
                    50  6.906363716473981E-004
                    51  1.346850356525041E-004
                    52 -1.072343706803675E-005
                    53 -1.097497012399304E-003
                    54 -2.247154664395437E-004
                    55 -1.254462397656729E-005
                    56  6.527479113991010E-006
                    57  9.419750065429470E-007
                    58 -9.802154939076799E-006
                    59 -1.805526650611343E-005
                    60 -2.377962135350043E-005
                    61  3.120240699651248E-004
                    62  1.771878194464643E-002
                    63 -1.858616906548252E-003
                    64 -3.071478727191046E-004
                    65  3.133719798261573E-003
                    66  2.470990499149506E-004
                    67 -3.154713519688791E-005
                    68 -8.130658908192034E-005
                    69  4.106378507939950E-004
                    70 -1.068076058457045E-004
                    71 -1.048743050509716E-005
                    72 -1.861011128629846E-003
                    73  2.512970079197933E-004
                    74  1.327057970947842E-004
                    75  3.585928719203994E-005
                    76 -9.749041558834623E-007
                    77  1.320509188600301E-006
                    78  9.911439065598693E-006
                    79  2.940950447203351E-005
                    80 -4.645603587512764E-004
                    81  4.050651268243878E-005
                    82 -2.748071948151126E-005
                    83 -8.926266589709568E-004
                    84 -4.993835894796185E-004
                    85  5.884856676152950E-006
                    86  4.744514560384622E-005
                    87 -4.929441582867708E-005
                    88  1.030858508033427E-005
                    89 -1.249649221786204E-005
                    90  3.320528831367987E-005
                    91  1.052241221705689E-004
                    92  2.116428174108221E-002
                    93 -1.812068831936170E-003
                    94 -3.558815696203265E-004
                    95  3.558011210713016E-003
                    96 -2.511705746435208E-004
                    97 -1.122225008463945E-004
                    98 -5.725497933242660E-005
                    99 -7.049915284432850E-004
                   100 -1.296487173105623E-004
                   101  6.127043130583644E-005
                   102  1.772788037799870E-003
                   103  2.743337979030406E-005
                   104 -7.080801639585760E-005
                   105  2.428526777359563E-005
                   106  4.792537940854060E-006
                   107  1.117420902442637E-006
                   108  7.844936233416470E-006
                   109 -1.862077909517693E-005
                   110 -4.548758689371647E-004
                   111 -3.970217460509944E-005
                   112 -6.370931103383632E-005
                   113 -7.063828403162834E-004
                   114  5.474406673980782E-004
                   115 -5.933376080665712E-006
                   116 -5.139577029220230E-005
                   117 -5.627563862155942E-005
                   118 -2.296131713361144E-006
                   119 -7.386936218948171E-006
                   120 -3.284925369829810E-005
                   121  7.936188534107681E-005
                   122  8.476052277208211E-005
                   123 -6.822123914400991E-004
                   124  2.339117476286271E-004
                   125 -3.312564357150887E-004
                   126 -6.224336566348299E-005
                   127 -2.401975636337334E-004
                   128 -1.397569704717095E-005
                   129  1.043421867267544E-004
                   130  6.219877676747678E-004
                   131 -2.617634075121517E-005
                   132  3.942339407436414E-004
                   133  6.286173356952513E-004
                   134 -3.903880730859911E-005
                   135  2.821977212981999E-005
                   136  5.314553412686797E-007
                   137  1.764759501371135E-007
                   138  1.492690445228127E-005
                   139  4.482450733384334E-005
                   140  1.102075622257508E-004
                   141 -3.761824484468386E-006
                   142  3.143741882803926E-005
                   143  2.926344373077068E-004
                   144 -2.781130745384788E-004
                   145 -2.279959494628099E-006
                   146 -4.495738399155320E-006
                   147 -2.029469031472634E-005
                   148 -1.482023501062000E-006
                   149 -1.180433904729399E-006
                   150 -1.621735214568631E-005
                   151  1.243844554885587E-005
                   152  2.403604213382956E-004
                   153 -6.821816730586605E-004
                   154  2.496531687853791E-004
                   155 -3.368615720683802E-004
                   156  4.298458094063243E-005
                   157 -2.116866304860545E-004
                   158 -2.892039619692593E-005
                   159 -3.922833266657957E-005
                   160  5.859234747695676E-004