[Molden Format]
[Atoms] AU
  N     1    7    -4.4519150800    0.1645695100   -0.0000004400        
  C     2    6    -1.7695092000   -0.0145096000   -0.0000001700        
  C     3    6    -0.4270927200   -0.0061402300   -2.2691546100        
  C     4    6    -0.4270927200   -0.0061402300    2.2691546100        
  C     5    6     2.1889955900   -0.0004823800   -2.2566388900        
  C     6    6     2.1889955900   -0.0004823800    2.2566388900        
  C     7    6     3.5149715000    0.0022090000    0.0000002700        
  H     8    1    -5.1855378300   -0.7126266600   -1.5571957100        
  H     9    1    -5.1855378300   -0.7126266600    1.5571957100        
  H    10    1    -1.4305344500   -0.0005073500   -4.0318143700        
  H    11    1    -1.4305344500   -0.0005073500    4.0318143700        
  H    12    1     3.1914120400   -0.0010699000   -4.0209976100        
  H    13    1     3.1914120400   -0.0010699000    4.0209976100        
  H    14    1     5.5428332300    0.0050250700    0.0000004400        
[5D]
[7F]
[GTO]
  1  0
   s    12 1.00
  0.114200D+05  0.172695D-04
  0.171200D+04  0.134411D-03
  0.389300D+03  0.694561D-03
  0.110000D+03  0.278531D-02
  0.355700D+02  0.863457D-02
  0.125400D+02  0.199805D-01
  0.464400D+01  0.262908D-01
  0.129300D+01 -0.243845D-01
  0.511800D+00 -0.924934D-01
  0.178700D+00 -0.339683D+00
  0.246240D-01  0.345111D+00
  0.112530D-01  0.752750D+00
   s    10 1.00
  0.114200D+05  0.523000D-03
  0.171200D+04  0.404500D-02
  0.389300D+03  0.207750D-01
  0.110000D+03  0.807269D-01
  0.355700D+02  0.233074D+00
  0.125400D+02  0.433501D+00
  0.464400D+01  0.347472D+00
  0.129300D+01  0.412620D-01
  0.511800D+00 -0.850799D-02
  0.178700D+00  0.238400D-02
   s    10 1.00
  0.114200D+05 -0.115000D-03
  0.171200D+04 -0.895000D-03
  0.389300D+03 -0.462400D-02
  0.110000D+03 -0.185280D-01
  0.355700D+02 -0.573390D-01
  0.125400D+02 -0.132076D+00
  0.464400D+01 -0.172510D+00
  0.129300D+01  0.151814D+00
  0.511800D+00  0.599944D+00
  0.178700D+00  0.387462D+00
   s     1 1.00
  0.129300D+01  0.100000D+01
   s     1 1.00
  0.178700D+00  0.100000D+01
   p     5 1.00
  0.266300D+02  0.146700D-01
  0.594800D+01  0.917640D-01
  0.174200D+01  0.298683D+00
  0.555000D+00  0.498487D+00
  0.172500D+00  0.337023D+00
   p     1 1.00
  0.174200D+01  0.100000D+01
   p     1 1.00
  0.555000D+00  0.100000D+01
   d     1 1.00
  0.165400D+01  0.100000D+01
   d     1 1.00
  0.469000D+00  0.100000D+01
   f     1 1.00
  0.109300D+01  0.100000D+01
  
  2  0
   s    10 1.00
  0.823600D+04  0.531000D-03
  0.123500D+04  0.410800D-02
  0.280800D+03  0.210870D-01
  0.792700D+02  0.818530D-01
  0.255900D+02  0.234817D+00
  0.899700D+01  0.434401D+00
  0.331900D+01  0.346129D+00
  0.905900D+00  0.393780D-01
  0.364300D+00 -0.898300D-02
  0.128500D+00  0.238500D-02
   s    10 1.00
  0.823600D+04 -0.113000D-03
  0.123500D+04 -0.878000D-03
  0.280800D+03 -0.454000D-02
  0.792700D+02 -0.181330D-01
  0.255900D+02 -0.557600D-01
  0.899700D+01 -0.126895D+00
  0.331900D+01 -0.170352D+00
  0.905900D+00  0.140382D+00
  0.364300D+00  0.598684D+00
  0.128500D+00  0.395389D+00
   s     1 1.00
  0.905900D+00  0.100000D+01
   s     1 1.00
  0.364300D+00  0.100000D+01
   p     5 1.00
  0.187100D+02  0.140310D-01
  0.413300D+01  0.868660D-01
  0.120000D+01  0.290216D+00
  0.382700D+00  0.501008D+00
  0.120900D+00  0.343406D+00
   p     1 1.00
  0.382700D+00  0.100000D+01
   p     1 1.00
  0.120900D+00  0.100000D+01
   d     1 1.00
  0.109700D+01  0.100000D+01
   d     1 1.00
  0.318000D+00  0.100000D+01
   f     1 1.00
  0.761000D+00  0.100000D+01
  
  3  0
   s    10 1.00
  0.823600D+04  0.531000D-03
  0.123500D+04  0.410800D-02
  0.280800D+03  0.210870D-01
  0.792700D+02  0.818530D-01
  0.255900D+02  0.234817D+00
  0.899700D+01  0.434401D+00
  0.331900D+01  0.346129D+00
  0.905900D+00  0.393780D-01
  0.364300D+00 -0.898300D-02
  0.128500D+00  0.238500D-02
   s    10 1.00
  0.823600D+04 -0.113000D-03
  0.123500D+04 -0.878000D-03
  0.280800D+03 -0.454000D-02
  0.792700D+02 -0.181330D-01
  0.255900D+02 -0.557600D-01
  0.899700D+01 -0.126895D+00
  0.331900D+01 -0.170352D+00
  0.905900D+00  0.140382D+00
  0.364300D+00  0.598684D+00
  0.128500D+00  0.395389D+00
   s     1 1.00
  0.905900D+00  0.100000D+01
   s     1 1.00
  0.364300D+00  0.100000D+01
   p     5 1.00
  0.187100D+02  0.140310D-01
  0.413300D+01  0.868660D-01
  0.120000D+01  0.290216D+00
  0.382700D+00  0.501008D+00
  0.120900D+00  0.343406D+00
   p     1 1.00
  0.382700D+00  0.100000D+01
   p     1 1.00
  0.120900D+00  0.100000D+01
   d     1 1.00
  0.109700D+01  0.100000D+01
   d     1 1.00
  0.318000D+00  0.100000D+01
   f     1 1.00
  0.761000D+00  0.100000D+01
  
  4  0
   s    10 1.00
  0.823600D+04  0.531000D-03
  0.123500D+04  0.410800D-02
  0.280800D+03  0.210870D-01
  0.792700D+02  0.818530D-01
  0.255900D+02  0.234817D+00
  0.899700D+01  0.434401D+00
  0.331900D+01  0.346129D+00
  0.905900D+00  0.393780D-01
  0.364300D+00 -0.898300D-02
  0.128500D+00  0.238500D-02
   s    10 1.00
  0.823600D+04 -0.113000D-03
  0.123500D+04 -0.878000D-03
  0.280800D+03 -0.454000D-02
  0.792700D+02 -0.181330D-01
  0.255900D+02 -0.557600D-01
  0.899700D+01 -0.126895D+00
  0.331900D+01 -0.170352D+00
  0.905900D+00  0.140382D+00
  0.364300D+00  0.598684D+00
  0.128500D+00  0.395389D+00
   s     1 1.00
  0.905900D+00  0.100000D+01
   s     1 1.00
  0.364300D+00  0.100000D+01
   p     5 1.00
  0.187100D+02  0.140310D-01
  0.413300D+01  0.868660D-01
  0.120000D+01  0.290216D+00
  0.382700D+00  0.501008D+00
  0.120900D+00  0.343406D+00
   p     1 1.00
  0.382700D+00  0.100000D+01
   p     1 1.00
  0.120900D+00  0.100000D+01
   d     1 1.00
  0.109700D+01  0.100000D+01
   d     1 1.00
  0.318000D+00  0.100000D+01
   f     1 1.00
  0.761000D+00  0.100000D+01
  
  5  0
   s    10 1.00
  0.823600D+04  0.531000D-03
  0.123500D+04  0.410800D-02
  0.280800D+03  0.210870D-01
  0.792700D+02  0.818530D-01
  0.255900D+02  0.234817D+00
  0.899700D+01  0.434401D+00
  0.331900D+01  0.346129D+00
  0.905900D+00  0.393780D-01
  0.364300D+00 -0.898300D-02
  0.128500D+00  0.238500D-02
   s    10 1.00
  0.823600D+04 -0.113000D-03
  0.123500D+04 -0.878000D-03
  0.280800D+03 -0.454000D-02
  0.792700D+02 -0.181330D-01
  0.255900D+02 -0.557600D-01
  0.899700D+01 -0.126895D+00
  0.331900D+01 -0.170352D+00
  0.905900D+00  0.140382D+00
  0.364300D+00  0.598684D+00
  0.128500D+00  0.395389D+00
   s     1 1.00
  0.905900D+00  0.100000D+01
   s     1 1.00
  0.364300D+00  0.100000D+01
   p     5 1.00
  0.187100D+02  0.140310D-01
  0.413300D+01  0.868660D-01
  0.120000D+01  0.290216D+00
  0.382700D+00  0.501008D+00
  0.120900D+00  0.343406D+00
   p     1 1.00
  0.382700D+00  0.100000D+01
   p     1 1.00
  0.120900D+00  0.100000D+01
   d     1 1.00
  0.109700D+01  0.100000D+01
   d     1 1.00
  0.318000D+00  0.100000D+01
   f     1 1.00
  0.761000D+00  0.100000D+01
  
  6  0
   s    10 1.00
  0.823600D+04  0.531000D-03
  0.123500D+04  0.410800D-02
  0.280800D+03  0.210870D-01
  0.792700D+02  0.818530D-01
  0.255900D+02  0.234817D+00
  0.899700D+01  0.434401D+00
  0.331900D+01  0.346129D+00
  0.905900D+00  0.393780D-01
  0.364300D+00 -0.898300D-02
  0.128500D+00  0.238500D-02
   s    10 1.00
  0.823600D+04 -0.113000D-03
  0.123500D+04 -0.878000D-03
  0.280800D+03 -0.454000D-02
  0.792700D+02 -0.181330D-01
  0.255900D+02 -0.557600D-01
  0.899700D+01 -0.126895D+00
  0.331900D+01 -0.170352D+00
  0.905900D+00  0.140382D+00
  0.364300D+00  0.598684D+00
  0.128500D+00  0.395389D+00
   s     1 1.00
  0.905900D+00  0.100000D+01
   s     1 1.00
  0.364300D+00  0.100000D+01
   p     5 1.00
  0.187100D+02  0.140310D-01
  0.413300D+01  0.868660D-01
  0.120000D+01  0.290216D+00
  0.382700D+00  0.501008D+00
  0.120900D+00  0.343406D+00
   p     1 1.00
  0.382700D+00  0.100000D+01
   p     1 1.00
  0.120900D+00  0.100000D+01
   d     1 1.00
  0.109700D+01  0.100000D+01
   d     1 1.00
  0.318000D+00  0.100000D+01
   f     1 1.00
  0.761000D+00  0.100000D+01
  
  7  0
   s    10 1.00
  0.823600D+04  0.531000D-03
  0.123500D+04  0.410800D-02
  0.280800D+03  0.210870D-01
  0.792700D+02  0.818530D-01
  0.255900D+02  0.234817D+00
  0.899700D+01  0.434401D+00
  0.331900D+01  0.346129D+00
  0.905900D+00  0.393780D-01
  0.364300D+00 -0.898300D-02
  0.128500D+00  0.238500D-02
   s    10 1.00
  0.823600D+04 -0.113000D-03
  0.123500D+04 -0.878000D-03
  0.280800D+03 -0.454000D-02
  0.792700D+02 -0.181330D-01
  0.255900D+02 -0.557600D-01
  0.899700D+01 -0.126895D+00
  0.331900D+01 -0.170352D+00
  0.905900D+00  0.140382D+00
  0.364300D+00  0.598684D+00
  0.128500D+00  0.395389D+00
   s     1 1.00
  0.905900D+00  0.100000D+01
   s     1 1.00
  0.364300D+00  0.100000D+01
   p     5 1.00
  0.187100D+02  0.140310D-01
  0.413300D+01  0.868660D-01
  0.120000D+01  0.290216D+00
  0.382700D+00  0.501008D+00
  0.120900D+00  0.343406D+00
   p     1 1.00
  0.382700D+00  0.100000D+01
   p     1 1.00
  0.120900D+00  0.100000D+01
   d     1 1.00
  0.109700D+01  0.100000D+01
   d     1 1.00
  0.318000D+00  0.100000D+01
   f     1 1.00
  0.761000D+00  0.100000D+01
  
  8  0
   s     4 1.00
  0.130100D+02  0.196850D-01
  0.196200D+01  0.137977D+00
  0.444600D+00  0.478148D+00
  0.122000D+00  0.501240D+00
   s     1 1.00
  0.122000D+00  0.100000D+01
   p     1 1.00
  0.727000D+00  0.100000D+01
  
  9  0
   s     4 1.00
  0.130100D+02  0.196850D-01
  0.196200D+01  0.137977D+00
  0.444600D+00  0.478148D+00
  0.122000D+00  0.501240D+00
   s     1 1.00
  0.122000D+00  0.100000D+01
   p     1 1.00
  0.727000D+00  0.100000D+01
  
 10  0
   s     4 1.00
  0.130100D+02  0.196850D-01
  0.196200D+01  0.137977D+00
  0.444600D+00  0.478148D+00
  0.122000D+00  0.501240D+00
   s     1 1.00
  0.122000D+00  0.100000D+01
   p     1 1.00
  0.727000D+00  0.100000D+01
  
 11  0
   s     4 1.00
  0.130100D+02  0.196850D-01
  0.196200D+01  0.137977D+00
  0.444600D+00  0.478148D+00
  0.122000D+00  0.501240D+00
   s     1 1.00
  0.122000D+00  0.100000D+01
   p     1 1.00
  0.727000D+00  0.100000D+01
  
 12  0
   s     4 1.00
  0.130100D+02  0.196850D-01
  0.196200D+01  0.137977D+00
  0.444600D+00  0.478148D+00
  0.122000D+00  0.501240D+00
   s     1 1.00
  0.122000D+00  0.100000D+01
   p     1 1.00
  0.727000D+00  0.100000D+01
  
 13  0
   s     4 1.00
  0.130100D+02  0.196850D-01
  0.196200D+01  0.137977D+00
  0.444600D+00  0.478148D+00
  0.122000D+00  0.501240D+00
   s     1 1.00
  0.122000D+00  0.100000D+01
   p     1 1.00
  0.727000D+00  0.100000D+01
  
 14  0
   s     4 1.00
  0.130100D+02  0.196850D-01
  0.196200D+01  0.137977D+00
  0.444600D+00  0.478148D+00
  0.122000D+00  0.501240D+00
   s     1 1.00
  0.122000D+00  0.100000D+01
   p     1 1.00
  0.727000D+00  0.100000D+01
  
[MO]
 Sym= __1_A'_
 Ene=   1.00000000000000     
 Spin= Alpha
 Occup=    1.00000000000000     
                     1  2.221751608100288E-004
                     2  0.998066382013993     
                     3  4.234994325841211E-003
                     4  1.919417051589562E-003
                     5  5.409284970005846E-003
                     6  5.444768369788774E-003
                     7 -4.763633499005959E-003
                     8  0.000000000000000E+000
                     9 -7.487225695452309E-004
                    10  2.359600293121885E-004
                    11  0.000000000000000E+000
                    12 -1.327612999786468E-003
                    13  3.096084697763138E-003
                    14  0.000000000000000E+000
                    15 -5.228620578795566E-006
                    16  0.000000000000000E+000
                    17  0.000000000000000E+000
                    18  8.033494584031908E-005
                    19  6.442780012713471E-005
                    20 -3.858986945063151E-004
                    21  0.000000000000000E+000
                    22  0.000000000000000E+000
                    23  4.652332139193552E-005
                    24 -4.858182071788458E-004
                    25  0.000000000000000E+000
                    26 -1.471015380654684E-004
                    27 -7.340791566273438E-005
                    28  0.000000000000000E+000
                    29  0.000000000000000E+000
                    30 -9.872842120842516E-005
                    31 -5.939915401753601E-005
                    32 -3.916893201291580E-004
                    33  9.792817554908257E-004
                    34  2.413128969003299E-004
                    35 -1.121991226404867E-004
                    36 -4.525290086561237E-003
                    37 -1.982496854235251E-006
                    38  0.000000000000000E+000
                    39  2.024984747539249E-004
                    40 -1.216526193306309E-005
                    41  0.000000000000000E+000
                    42  4.855613622419764E-003
                    43  7.825531363075758E-004
                    44  0.000000000000000E+000
                    45 -2.287008868089469E-004
                    46  0.000000000000000E+000
                    47  0.000000000000000E+000
                    48  2.103314300900160E-004
                    49  4.775300919695662E-005
                    50  4.611416230049132E-004
                    51  0.000000000000000E+000
                    52  0.000000000000000E+000
                    53 -4.598789893757264E-005
                    54 -3.539140831754433E-004
                    55  0.000000000000000E+000
                    56 -6.250405382087031E-005
                    57  1.124860687700940E-005
                    58  0.000000000000000E+000
                    59  0.000000000000000E+000
                    60 -3.487170999788098E-005
                    61  3.637890371972237E-005
                    62 -3.564472560144045E-004
                    63 -1.812407480426200E-003
                    64  9.667880662526264E-005
                    65  8.396964801363329E-004
                    66  6.116734065554714E-004
                    67 -8.754575587796912E-005
                    68 -6.046791826027669E-004
                    69  5.965571300276760E-004
                    70  8.410612231875220E-005
                    71  1.114291617164035E-004
                    72 -4.729753322867743E-004
                    73 -3.566753369290689E-004
                    74 -7.958262146560429E-004
                    75 -7.616257922998855E-005
                    76 -1.269803444141729E-005
                    77  1.829414368927745E-005
                    78  6.272920558224868E-005
                    79 -9.660622414791628E-006
                    80  1.795454914251272E-004
                    81  1.853843237408957E-004
                    82 -2.694265627846139E-005
                    83 -1.178540398681277E-004
                    84  5.442798043966867E-005
                    85 -7.860844064178043E-006
                    86 -5.591678431795783E-005
                    87  2.118917623006834E-005
                    88 -1.163784599215201E-005
                    89  1.299667024790564E-005
                    90 -4.633825044292322E-005
                    91 -1.135319164665459E-005
                    92 -3.564472560144045E-004
                    93 -1.812407480426200E-003
                    94  9.667880662526264E-005
                    95  8.396964801363329E-004
                    96  6.116734065554714E-004
                    97 -8.754575587796912E-005
                    98  6.046791826027669E-004
                    99  5.965571300276760E-004
                   100  8.410612231875220E-005
                   101 -1.114291617164035E-004
                   102 -4.729753322867743E-004
                   103 -3.566753369290689E-004
                   104  7.958262146560429E-004
                   105 -7.616257922998855E-005
                   106  1.269803444141729E-005
                   107 -1.829414368927745E-005
                   108  6.272920558224868E-005
                   109 -9.660622414791628E-006
                   110  1.795454914251272E-004
                   111 -1.853843237408957E-004
                   112  2.694265627846139E-005
                   113 -1.178540398681277E-004
                   114  5.442798043966867E-005
                   115  7.860844064178043E-006
                   116 -5.591678431795783E-005
                   117  2.118917623006834E-005
                   118  1.163784599215201E-005
                   119 -1.299667024790564E-005
                   120 -4.633825044292322E-005
                   121 -1.135319164665459E-005
                   122 -1.873219466947948E-004
                   123 -2.917910073187936E-004
                   124  5.359072401515270E-005
                   125  5.412041015892061E-004
                   126 -5.638147914982310E-004
                   127 -3.296479089940957E-005
                   128  2.499514450541039E-005
                   129  2.239420980677903E-004
                   130 -2.542301965874065E-005
                   131  9.049019631533077E-006
                   132  8.432046672120144E-004
                   133  1.562640346700903E-004
                   134 -2.709799503309897E-004
                   135  4.215772458398699E-006
                   136 -2.151889237226533E-008
                   137 -3.915868001032427E-006
                   138  2.757401840523122E-007
                   139  9.140809301286897E-006
                   140  7.497987944501195E-005
                   141  1.917511419044821E-004
                   142  8.757429304573349E-006
                   143 -1.830190974931706E-004
                   144 -1.536518078089870E-005
                   145 -1.106302999109460E-005
                   146 -1.490847727288755E-005
                   147  2.576308317001803E-006
                   148 -4.160283977182496E-006
                   149 -1.685835853492800E-006
                   150 -4.461047933568497E-005
                   151 -1.507333396842179E-006
                   152 -1.873219466947948E-004
                   153 -2.917910073187936E-004
                   154  5.359072401515270E-005
                   155  5.412041015892061E-004
                   156 -5.638147914982310E-004
                   157 -3.296479089940957E-005
                   158 -2.499514450541039E-005
                   159  2.239420980677903E-004
                   160 -2.542301965874065E-005
                   161 -9.049019631533077E-006
                   162  8.432046672120144E-004
                   163  1.562640346700903E-004
                   164  2.709799503309897E-004
                   165  4.215772458398699E-006
                   166  2.151889237226533E-008
                   167  3.915868001032427E-006
                   168  2.757401840523122E-007
                   169  9.140809301286897E-006
                   170  7.497987944501195E-005
                   171 -1.917511419044821E-004
                   172 -8.757429304573349E-006
                   173 -1.830190974931706E-004
                   174 -1.536518078089870E-005
                   175  1.106302999109460E-005
                   176 -1.490847727288755E-005
                   177  2.576308317001803E-006
                   178  4.160283977182496E-006
                   179  1.685835853492800E-006
                   180 -4.461047933568497E-005
                   181 -1.507333396842179E-006
                   182 -1.241705649132402E-004
                   183 -3.843167949633861E-004
                   184  2.692424274021786E-005
                   185  1.497465920973251E-004
                   186 -1.638735884588263E-005
                   187 -4.313933575988797E-005
                   188  0.000000000000000E+000
                   189  9.415845208877232E-005
                   190  2.207872993958656E-005
                   191  0.000000000000000E+000
                   192 -3.652540315712554E-004
                   193 -1.098776252274410E-004
                   194  0.000000000000000E+000
                   195 -1.044775235575721E-005
                   196  0.000000000000000E+000
                   197  0.000000000000000E+000
                   198  4.193979142511610E-006
                   199 -2.384253263885596E-006
                   200 -1.131787748782731E-004
                   201  0.000000000000000E+000
                   202  0.000000000000000E+000
                   203  6.390418379120725E-005
                   204  1.703402754150447E-005
                   205  0.000000000000000E+000
                   206  8.476630084051944E-007
                   207  3.133851712375818E-006
                   208  0.000000000000000E+000
                   209  0.000000000000000E+000
                   210 -5.625716587556792E-006
                   211 -2.630438568191836E-006
                   212  2.869851665973348E-003
                   213 -2.235250015621844E-003
                   214  1.886901537240758E-004
                   215  3.025027760398529E-004
                   216  3.761103222436551E-004
                   217  2.869851665973348E-003
                   218 -2.235250015621844E-003
                   219  1.886901537240758E-004
                   220  3.025027760398529E-004
                   221 -3.761103222436551E-004
                   222 -5.100489951368305E-004
                   223 -3.068766023251208E-004
                   224 -6.125039148775667E-005
                   225  1.012481659280637E-005
                   226  3.733732607011869E-005
                   227 -5.100489951368305E-004
                   228 -3.068766023251208E-004
                   229 -6.125039148775667E-005
                   230  1.012481659280637E-005
                   231 -3.733732607011869E-005
                   232 -1.218454675736128E-004
                   233 -4.679650248147065E-004
                   234  5.063578207464303E-006
                   235 -1.594926180677663E-006
                   236 -9.532177847508694E-006
                   237 -1.218454675736128E-004
                   238 -4.679650248147065E-004
                   239  5.063578207464303E-006
                   240 -1.594926180677663E-006
                   241  9.532177847508694E-006
                   242  2.019581414194702E-005
                   243  1.156215557667517E-004
                   244  2.971773150458273E-005
                   245  1.807787967003514E-006
                   246  0.000000000000000E+000
 Sym= __2_A'_
 Ene=   2.00000000000000     
 Spin= Alpha
 Occup=    1.00000000000000     
                     1 -2.147921698089455E-005
                     2 -8.373631088359933E-005
                     3  1.979459646103677E-003
                     4 -1.224814329005916E-005
                     5  1.249208175281460E-003
                     6  1.961743377809907E-003
                     7  3.141436608407010E-004
                     8  0.000000000000000E+000
                     9 -1.488018832340356E-004
                    10  9.870258580734563E-005
                    11  0.000000000000000E+000
                    12  3.361697558728910E-005
                    13  4.127088534581277E-005
                    14  0.000000000000000E+000
                    15 -7.308591694423359E-005
                    16  0.000000000000000E+000
                    17  0.000000000000000E+000
                    18  3.959623885059986E-005
                    19 -3.056405239519353E-006
                    20  1.892766987464422E-004
                    21  0.000000000000000E+000
                    22  0.000000000000000E+000
                    23  9.705482978111551E-005
                    24 -3.929446728294855E-005
                    25  0.000000000000000E+000
                    26  1.399885762190399E-004
                    27 -5.828046384042130E-005
                    28  0.000000000000000E+000
                    29  0.000000000000000E+000
                    30  1.284589636781271E-004
                    31  3.607209207576301E-005
                    32   1.00097105992345     
                    33  8.779151025562270E-003
                    34  2.779815524840370E-003
                    35 -8.213546143243431E-003
                    36 -2.615929361530084E-003
                    37  7.085411905399625E-004
                    38  0.000000000000000E+000
                    39  1.098147761319127E-003
                    40 -2.278693670578399E-004
                    41  0.000000000000000E+000
                    42  3.478747881755870E-003
                    43 -1.295650257277669E-004
                    44  0.000000000000000E+000
                    45  2.960218121952536E-004
                    46  0.000000000000000E+000
                    47  0.000000000000000E+000
                    48  4.206794784263164E-004
                    49 -2.518381426388512E-005
                    50 -1.048736136253247E-003
                    51  0.000000000000000E+000
                    52  0.000000000000000E+000
                    53 -1.096495347625616E-004
                    54  3.279680897957591E-005
                    55  0.000000000000000E+000
                    56  3.135875649456160E-004
                    57 -8.584087245602954E-006
                    58  0.000000000000000E+000
                    59  0.000000000000000E+000
                    60  8.262883362528120E-005
                    61  1.911496785415543E-005
                    62  1.237182743006993E-002
                    63 -1.866799949795885E-003
                    64 -3.129754159233219E-004
                    65  3.154906556233627E-003
                    66 -1.466365222915046E-004
                    67  1.273445616603769E-004
                    68  2.565823784769725E-004
                    69  2.810937399307939E-005
                    70  2.401006654816647E-006
                    71  5.205788735384080E-004
                    72  1.557440886030392E-004
                    73 -3.284366969832351E-005
                    74 -1.844521806573687E-003
                    75 -1.029794726206265E-005
                    76  2.471117541396683E-005
                    77  8.748555522535072E-006
                    78 -3.581245047488444E-005
                    79 -4.944547639924494E-006
                    80 -4.198737294390177E-004
                    81 -4.696304906600044E-004
                    82  8.672152221287183E-007
                    83  7.613619156099040E-004
                    84 -2.143468853983866E-006
                    85  5.112765172711028E-005
                    86  1.075192555011530E-004
                    87  5.892531456499132E-007
                    88 -1.636435736092431E-005
                    89 -6.886757899523485E-006
                    90 -2.956191086128602E-005
                    91  5.133302393788997E-006
                    92  1.237182743006993E-002
                    93 -1.866799949795885E-003
                    94 -3.129754159233219E-004
                    95  3.154906556233627E-003
                    96 -1.466365222915046E-004
                    97  1.273445616603769E-004
                    98 -2.565823784769725E-004
                    99  2.810937399307939E-005
                   100  2.401006654816647E-006
                   101 -5.205788735384080E-004
                   102  1.557440886030392E-004
                   103 -3.284366969832351E-005
                   104  1.844521806573687E-003
                   105 -1.029794726206265E-005
                   106 -2.471117541396683E-005
                   107 -8.748555522535072E-006
                   108 -3.581245047488444E-005
                   109 -4.944547639924494E-006
                   110 -4.198737294390177E-004
                   111  4.696304906600044E-004
                   112 -8.672152221287183E-007
                   113  7.613619156099040E-004
                   114 -2.143468853983866E-006
                   115 -5.112765172711028E-005
                   116  1.075192555011530E-004
                   117  5.892531456499132E-007
                   118  1.636435736092431E-005
                   119  6.886757899523485E-006
                   120 -2.956191086128602E-005
                   121  5.133302393788997E-006
                   122 -1.488762669502148E-004
                   123 -7.138683834953963E-004
                   124  2.527360429017455E-004
                   125 -3.233546506505460E-004
                   126 -1.905092941715594E-004
                   127  2.366971650224195E-005
                   128 -4.284828905499292E-005
                   129  6.005054326335076E-004
                   130 -1.628079971954293E-006
                   131  4.076607935650250E-005
                   132  5.773597912864048E-004
                   133  2.498214282177589E-006
                   134  3.434763409776909E-004
                   135 -3.037296471781350E-008
                   136  4.193718856327865E-005
                   137  1.882810280599767E-007
                   138 -3.399577028847820E-005
                   139 -1.558615193767276E-006
                   140  1.946208041113457E-004
                   141 -2.630774564375679E-004
                   142  1.472381773160533E-006
                   143 -2.660462012840526E-004
                   144 -4.541592144075215E-006
                   145 -1.782771716998406E-005
                   146  1.311776764780447E-005
                   147  1.600315991672200E-007
                   148 -1.289490879264787E-005
                   149 -1.995218725622392E-006
                   150 -2.566390799666078E-005
                   151 -5.794472376505755E-007
                   152 -1.488762669502148E-004
                   153 -7.138683834953963E-004
                   154  2.527360429017455E-004
                   155 -3.233546506505460E-004
                   156 -1.905092941715594E-004
                   157  2.366971650224195E-005
                   158  4.284828905499292E-005
                   159  6.005054326335076E-004
                   160 -1.628079971954293E-006