[Molden Format]
[Atoms] AU
  N     1    7    -4.4519150800    0.1645695100   -0.0000004400        
  C     2    6    -1.7695092000   -0.0145096000   -0.0000001700        
  C     3    6    -0.4270927200   -0.0061402300   -2.2691546100        
  C     4    6    -0.4270927200   -0.0061402300    2.2691546100        
  C     5    6     2.1889955900   -0.0004823800   -2.2566388900        
  C     6    6     2.1889955900   -0.0004823800    2.2566388900        
  C     7    6     3.5149715000    0.0022090000    0.0000002700        
  H     8    1    -5.1855378300   -0.7126266600   -1.5571957100        
  H     9    1    -5.1855378300   -0.7126266600    1.5571957100        
  H    10    1    -1.4305344500   -0.0005073500   -4.0318143700        
  H    11    1    -1.4305344500   -0.0005073500    4.0318143700        
  H    12    1     3.1914120400   -0.0010699000   -4.0209976100        
  H    13    1     3.1914120400   -0.0010699000    4.0209976100        
  H    14    1     5.5428332300    0.0050250700    0.0000004400        
[5D]
[7F]
[GTO]
  1  0
   s    12 1.00
  0.114200D+05  0.172695D-04
  0.171200D+04  0.134411D-03
  0.389300D+03  0.694561D-03
  0.110000D+03  0.278531D-02
  0.355700D+02  0.863457D-02
  0.125400D+02  0.199805D-01
  0.464400D+01  0.262908D-01
  0.129300D+01 -0.243845D-01
  0.511800D+00 -0.924934D-01
  0.178700D+00 -0.339683D+00
  0.246240D-01  0.345111D+00
  0.112530D-01  0.752750D+00
   s    10 1.00
  0.114200D+05  0.523000D-03
  0.171200D+04  0.404500D-02
  0.389300D+03  0.207750D-01
  0.110000D+03  0.807269D-01
  0.355700D+02  0.233074D+00
  0.125400D+02  0.433501D+00
  0.464400D+01  0.347472D+00
  0.129300D+01  0.412620D-01
  0.511800D+00 -0.850799D-02
  0.178700D+00  0.238400D-02
   s    10 1.00
  0.114200D+05 -0.115000D-03
  0.171200D+04 -0.895000D-03
  0.389300D+03 -0.462400D-02
  0.110000D+03 -0.185280D-01
  0.355700D+02 -0.573390D-01
  0.125400D+02 -0.132076D+00
  0.464400D+01 -0.172510D+00
  0.129300D+01  0.151814D+00
  0.511800D+00  0.599944D+00
  0.178700D+00  0.387462D+00
   s     1 1.00
  0.129300D+01  0.100000D+01
   s     1 1.00
  0.178700D+00  0.100000D+01
   p     5 1.00
  0.266300D+02  0.146700D-01
  0.594800D+01  0.917640D-01
  0.174200D+01  0.298683D+00
  0.555000D+00  0.498487D+00
  0.172500D+00  0.337023D+00
   p     1 1.00
  0.174200D+01  0.100000D+01
   p     1 1.00
  0.555000D+00  0.100000D+01
   d     1 1.00
  0.165400D+01  0.100000D+01
   d     1 1.00
  0.469000D+00  0.100000D+01
   f     1 1.00
  0.109300D+01  0.100000D+01
  
  2  0
   s    10 1.00
  0.823600D+04  0.531000D-03
  0.123500D+04  0.410800D-02
  0.280800D+03  0.210870D-01
  0.792700D+02  0.818530D-01
  0.255900D+02  0.234817D+00
  0.899700D+01  0.434401D+00
  0.331900D+01  0.346129D+00
  0.905900D+00  0.393780D-01
  0.364300D+00 -0.898300D-02
  0.128500D+00  0.238500D-02
   s    10 1.00
  0.823600D+04 -0.113000D-03
  0.123500D+04 -0.878000D-03
  0.280800D+03 -0.454000D-02
  0.792700D+02 -0.181330D-01
  0.255900D+02 -0.557600D-01
  0.899700D+01 -0.126895D+00
  0.331900D+01 -0.170352D+00
  0.905900D+00  0.140382D+00
  0.364300D+00  0.598684D+00
  0.128500D+00  0.395389D+00
   s     1 1.00
  0.905900D+00  0.100000D+01
   s     1 1.00
  0.364300D+00  0.100000D+01
   p     5 1.00
  0.187100D+02  0.140310D-01
  0.413300D+01  0.868660D-01
  0.120000D+01  0.290216D+00
  0.382700D+00  0.501008D+00
  0.120900D+00  0.343406D+00
   p     1 1.00
  0.382700D+00  0.100000D+01
   p     1 1.00
  0.120900D+00  0.100000D+01
   d     1 1.00
  0.109700D+01  0.100000D+01
   d     1 1.00
  0.318000D+00  0.100000D+01
   f     1 1.00
  0.761000D+00  0.100000D+01
  
  3  0
   s    10 1.00
  0.823600D+04  0.531000D-03
  0.123500D+04  0.410800D-02
  0.280800D+03  0.210870D-01
  0.792700D+02  0.818530D-01
  0.255900D+02  0.234817D+00
  0.899700D+01  0.434401D+00
  0.331900D+01  0.346129D+00
  0.905900D+00  0.393780D-01
  0.364300D+00 -0.898300D-02
  0.128500D+00  0.238500D-02
   s    10 1.00
  0.823600D+04 -0.113000D-03
  0.123500D+04 -0.878000D-03
  0.280800D+03 -0.454000D-02
  0.792700D+02 -0.181330D-01
  0.255900D+02 -0.557600D-01
  0.899700D+01 -0.126895D+00
  0.331900D+01 -0.170352D+00
  0.905900D+00  0.140382D+00
  0.364300D+00  0.598684D+00
  0.128500D+00  0.395389D+00
   s     1 1.00
  0.905900D+00  0.100000D+01
   s     1 1.00
  0.364300D+00  0.100000D+01
   p     5 1.00
  0.187100D+02  0.140310D-01
  0.413300D+01  0.868660D-01
  0.120000D+01  0.290216D+00
  0.382700D+00  0.501008D+00
  0.120900D+00  0.343406D+00
   p     1 1.00
  0.382700D+00  0.100000D+01
   p     1 1.00
  0.120900D+00  0.100000D+01
   d     1 1.00
  0.109700D+01  0.100000D+01
   d     1 1.00
  0.318000D+00  0.100000D+01
   f     1 1.00
  0.761000D+00  0.100000D+01
  
  4  0
   s    10 1.00
  0.823600D+04  0.531000D-03
  0.123500D+04  0.410800D-02
  0.280800D+03  0.210870D-01
  0.792700D+02  0.818530D-01
  0.255900D+02  0.234817D+00
  0.899700D+01  0.434401D+00
  0.331900D+01  0.346129D+00
  0.905900D+00  0.393780D-01
  0.364300D+00 -0.898300D-02
  0.128500D+00  0.238500D-02
   s    10 1.00
  0.823600D+04 -0.113000D-03
  0.123500D+04 -0.878000D-03
  0.280800D+03 -0.454000D-02
  0.792700D+02 -0.181330D-01
  0.255900D+02 -0.557600D-01
  0.899700D+01 -0.126895D+00
  0.331900D+01 -0.170352D+00
  0.905900D+00  0.140382D+00
  0.364300D+00  0.598684D+00
  0.128500D+00  0.395389D+00
   s     1 1.00
  0.905900D+00  0.100000D+01
   s     1 1.00
  0.364300D+00  0.100000D+01
   p     5 1.00
  0.187100D+02  0.140310D-01
  0.413300D+01  0.868660D-01
  0.120000D+01  0.290216D+00
  0.382700D+00  0.501008D+00
  0.120900D+00  0.343406D+00
   p     1 1.00
  0.382700D+00  0.100000D+01
   p     1 1.00
  0.120900D+00  0.100000D+01
   d     1 1.00
  0.109700D+01  0.100000D+01
   d     1 1.00
  0.318000D+00  0.100000D+01
   f     1 1.00
  0.761000D+00  0.100000D+01
  
  5  0
   s    10 1.00
  0.823600D+04  0.531000D-03
  0.123500D+04  0.410800D-02
  0.280800D+03  0.210870D-01
  0.792700D+02  0.818530D-01
  0.255900D+02  0.234817D+00
  0.899700D+01  0.434401D+00
  0.331900D+01  0.346129D+00
  0.905900D+00  0.393780D-01
  0.364300D+00 -0.898300D-02
  0.128500D+00  0.238500D-02
   s    10 1.00
  0.823600D+04 -0.113000D-03
  0.123500D+04 -0.878000D-03
  0.280800D+03 -0.454000D-02
  0.792700D+02 -0.181330D-01
  0.255900D+02 -0.557600D-01
  0.899700D+01 -0.126895D+00
  0.331900D+01 -0.170352D+00
  0.905900D+00  0.140382D+00
  0.364300D+00  0.598684D+00
  0.128500D+00  0.395389D+00
   s     1 1.00
  0.905900D+00  0.100000D+01
   s     1 1.00
  0.364300D+00  0.100000D+01
   p     5 1.00
  0.187100D+02  0.140310D-01
  0.413300D+01  0.868660D-01
  0.120000D+01  0.290216D+00
  0.382700D+00  0.501008D+00
  0.120900D+00  0.343406D+00
   p     1 1.00
  0.382700D+00  0.100000D+01
   p     1 1.00
  0.120900D+00  0.100000D+01
   d     1 1.00
  0.109700D+01  0.100000D+01
   d     1 1.00
  0.318000D+00  0.100000D+01
   f     1 1.00
  0.761000D+00  0.100000D+01
  
  6  0
   s    10 1.00
  0.823600D+04  0.531000D-03
  0.123500D+04  0.410800D-02
  0.280800D+03  0.210870D-01
  0.792700D+02  0.818530D-01
  0.255900D+02  0.234817D+00
  0.899700D+01  0.434401D+00
  0.331900D+01  0.346129D+00
  0.905900D+00  0.393780D-01
  0.364300D+00 -0.898300D-02
  0.128500D+00  0.238500D-02
   s    10 1.00
  0.823600D+04 -0.113000D-03
  0.123500D+04 -0.878000D-03
  0.280800D+03 -0.454000D-02
  0.792700D+02 -0.181330D-01
  0.255900D+02 -0.557600D-01
  0.899700D+01 -0.126895D+00
  0.331900D+01 -0.170352D+00
  0.905900D+00  0.140382D+00
  0.364300D+00  0.598684D+00
  0.128500D+00  0.395389D+00
   s     1 1.00
  0.905900D+00  0.100000D+01
   s     1 1.00
  0.364300D+00  0.100000D+01
   p     5 1.00
  0.187100D+02  0.140310D-01
  0.413300D+01  0.868660D-01
  0.120000D+01  0.290216D+00
  0.382700D+00  0.501008D+00
  0.120900D+00  0.343406D+00
   p     1 1.00
  0.382700D+00  0.100000D+01
   p     1 1.00
  0.120900D+00  0.100000D+01
   d     1 1.00
  0.109700D+01  0.100000D+01
   d     1 1.00
  0.318000D+00  0.100000D+01
   f     1 1.00
  0.761000D+00  0.100000D+01
  
  7  0
   s    10 1.00
  0.823600D+04  0.531000D-03
  0.123500D+04  0.410800D-02
  0.280800D+03  0.210870D-01
  0.792700D+02  0.818530D-01
  0.255900D+02  0.234817D+00
  0.899700D+01  0.434401D+00
  0.331900D+01  0.346129D+00
  0.905900D+00  0.393780D-01
  0.364300D+00 -0.898300D-02
  0.128500D+00  0.238500D-02
   s    10 1.00
  0.823600D+04 -0.113000D-03
  0.123500D+04 -0.878000D-03
  0.280800D+03 -0.454000D-02
  0.792700D+02 -0.181330D-01
  0.255900D+02 -0.557600D-01
  0.899700D+01 -0.126895D+00
  0.331900D+01 -0.170352D+00
  0.905900D+00  0.140382D+00
  0.364300D+00  0.598684D+00
  0.128500D+00  0.395389D+00
   s     1 1.00
  0.905900D+00  0.100000D+01
   s     1 1.00
  0.364300D+00  0.100000D+01
   p     5 1.00
  0.187100D+02  0.140310D-01
  0.413300D+01  0.868660D-01
  0.120000D+01  0.290216D+00
  0.382700D+00  0.501008D+00
  0.120900D+00  0.343406D+00
   p     1 1.00
  0.382700D+00  0.100000D+01
   p     1 1.00
  0.120900D+00  0.100000D+01
   d     1 1.00
  0.109700D+01  0.100000D+01
   d     1 1.00
  0.318000D+00  0.100000D+01
   f     1 1.00
  0.761000D+00  0.100000D+01
  
  8  0
   s     4 1.00
  0.130100D+02  0.196850D-01
  0.196200D+01  0.137977D+00
  0.444600D+00  0.478148D+00
  0.122000D+00  0.501240D+00
   s     1 1.00
  0.122000D+00  0.100000D+01
   p     1 1.00
  0.727000D+00  0.100000D+01
  
  9  0
   s     4 1.00
  0.130100D+02  0.196850D-01
  0.196200D+01  0.137977D+00
  0.444600D+00  0.478148D+00
  0.122000D+00  0.501240D+00
   s     1 1.00
  0.122000D+00  0.100000D+01
   p     1 1.00
  0.727000D+00  0.100000D+01
  
 10  0
   s     4 1.00
  0.130100D+02  0.196850D-01
  0.196200D+01  0.137977D+00
  0.444600D+00  0.478148D+00
  0.122000D+00  0.501240D+00
   s     1 1.00
  0.122000D+00  0.100000D+01
   p     1 1.00
  0.727000D+00  0.100000D+01
  
 11  0
   s     4 1.00
  0.130100D+02  0.196850D-01
  0.196200D+01  0.137977D+00
  0.444600D+00  0.478148D+00
  0.122000D+00  0.501240D+00
   s     1 1.00
  0.122000D+00  0.100000D+01
   p     1 1.00
  0.727000D+00  0.100000D+01
  
 12  0
   s     4 1.00
  0.130100D+02  0.196850D-01
  0.196200D+01  0.137977D+00
  0.444600D+00  0.478148D+00
  0.122000D+00  0.501240D+00
   s     1 1.00
  0.122000D+00  0.100000D+01
   p     1 1.00
  0.727000D+00  0.100000D+01
  
 13  0
   s     4 1.00
  0.130100D+02  0.196850D-01
  0.196200D+01  0.137977D+00
  0.444600D+00  0.478148D+00
  0.122000D+00  0.501240D+00
   s     1 1.00
  0.122000D+00  0.100000D+01
   p     1 1.00
  0.727000D+00  0.100000D+01
  
 14  0
   s     4 1.00
  0.130100D+02  0.196850D-01
  0.196200D+01  0.137977D+00
  0.444600D+00  0.478148D+00
  0.122000D+00  0.501240D+00
   s     1 1.00
  0.122000D+00  0.100000D+01
   p     1 1.00
  0.727000D+00  0.100000D+01
  
[MO]
 Sym= __1_a'_
 Ene=  0.000000000000000E+000
 Spin= Alpha
 Occup=    2.00000000000000     
                     1  2.221751608100290E-004
                     2  0.998066382013993     
                     3  4.234994325841210E-003
                     4  1.919417051589560E-003
                     5  5.409284970005850E-003
                     6  5.444768369788770E-003
                     7 -4.763633499005960E-003
                     8  0.000000000000000E+000
                     9 -7.487225695452310E-004
                    10  2.359600293121890E-004
                    11  0.000000000000000E+000
                    12 -1.327612999786470E-003
                    13  3.096084697763140E-003
                    14  0.000000000000000E+000
                    15 -5.228620578795571E-006
                    16  0.000000000000000E+000
                    17  0.000000000000000E+000
                    18  8.033494584031900E-005
                    19  6.442780012713470E-005
                    20 -3.858986945063147E-004
                    21  0.000000000000000E+000
                    22  0.000000000000000E+000
                    23  4.652332139193560E-005
                    24 -4.858182071788460E-004
                    25  0.000000000000000E+000
                    26 -1.471015380654687E-004
                    27 -7.340791566273457E-005
                    28  0.000000000000000E+000
                    29  0.000000000000000E+000
                    30 -9.872842120842509E-005
                    31 -5.939915401753605E-005
                    32 -3.916893201291580E-004
                    33  9.792817554908260E-004
                    34  2.413128969003300E-004
                    35 -1.121991226404870E-004
                    36 -4.525290086561240E-003
                    37 -1.982496854235250E-006
                    38  0.000000000000000E+000
                    39  2.024984747539250E-004
                    40 -1.216526193306310E-005
                    41  0.000000000000000E+000
                    42  4.855613622419760E-003
                    43  7.825531363075760E-004
                    44  0.000000000000000E+000
                    45 -2.287008868089468E-004
                    46  0.000000000000000E+000
                    47  0.000000000000000E+000
                    48  2.103314300900160E-004
                    49  4.775300919695660E-005
                    50  4.611416230049139E-004
                    51  0.000000000000000E+000
                    52  0.000000000000000E+000
                    53 -4.598789893757260E-005
                    54 -3.539140831754430E-004
                    55  0.000000000000000E+000
                    56 -6.250405382087030E-005
                    57  1.124860687700939E-005
                    58  0.000000000000000E+000
                    59  0.000000000000000E+000
                    60 -3.487170999788104E-005
                    61  3.637890371972235E-005
                    62 -3.564472560144050E-004
                    63 -1.812407480426200E-003
                    64  9.667880662526259E-005
                    65  8.396964801363329E-004
                    66  6.116734065554710E-004
                    67 -8.754575587796911E-005
                    68 -6.046791826027670E-004
                    69  5.965571300276760E-004
                    70  8.410612231875220E-005
                    71  1.114291617164030E-004
                    72 -4.729753322867740E-004
                    73 -3.566753369290690E-004
                    74 -7.958262146560430E-004
                    75 -7.616257922998873E-005
                    76 -1.269803444141730E-005
                    77  1.829414368927750E-005
                    78  6.272920558224860E-005
                    79 -9.660622414791630E-006
                    80  1.795454914251271E-004
                    81  1.853843237408960E-004
                    82 -2.694265627846140E-005
                    83 -1.178540398681278E-004
                    84  5.442798043966870E-005
                    85 -7.860844064178046E-006
                    86 -5.591678431795781E-005
                    87  2.118917623006836E-005
                    88 -1.163784599215202E-005
                    89  1.299667024790560E-005
                    90 -4.633825044292319E-005
                    91 -1.135319164665457E-005
                    92 -3.564472560144050E-004
                    93 -1.812407480426200E-003
                    94  9.667880662526259E-005
                    95  8.396964801363329E-004
                    96  6.116734065554710E-004
                    97 -8.754575587796911E-005
                    98  6.046791826027670E-004
                    99  5.965571300276760E-004
                   100  8.410612231875220E-005
                   101 -1.114291617164030E-004
                   102 -4.729753322867740E-004
                   103 -3.566753369290690E-004
                   104  7.958262146560430E-004
                   105 -7.616257922998873E-005
                   106  1.269803444141730E-005
                   107 -1.829414368927750E-005
                   108  6.272920558224860E-005
                   109 -9.660622414791630E-006
                   110  1.795454914251271E-004
                   111 -1.853843237408960E-004
                   112  2.694265627846140E-005
                   113 -1.178540398681278E-004
                   114  5.442798043966870E-005
                   115  7.860844064178046E-006
                   116 -5.591678431795781E-005
                   117  2.118917623006836E-005
                   118  1.163784599215202E-005
                   119 -1.299667024790560E-005
                   120 -4.633825044292319E-005
                   121 -1.135319164665457E-005
                   122 -1.873219466947950E-004
                   123 -2.917910073187940E-004
                   124  5.359072401515270E-005
                   125  5.412041015892060E-004
                   126 -5.638147914982310E-004
                   127 -3.296479089940960E-005
                   128  2.499514450541040E-005
                   129  2.239420980677900E-004
                   130 -2.542301965874060E-005
                   131  9.049019631533079E-006
                   132  8.432046672120140E-004
                   133  1.562640346700900E-004
                   134 -2.709799503309900E-004
                   135  4.215772458398699E-006
                   136 -2.151889237226530E-008
                   137 -3.915868001032430E-006
                   138  2.757401840523120E-007
                   139  9.140809301286901E-006
                   140  7.497987944501206E-005
                   141  1.917511419044820E-004
                   142  8.757429304573350E-006
                   143 -1.830190974931706E-004
                   144 -1.536518078089870E-005
                   145 -1.106302999109461E-005
                   146 -1.490847727288758E-005
                   147  2.576308317001804E-006
                   148 -4.160283977182500E-006
                   149 -1.685835853492800E-006
                   150 -4.461047933568495E-005
                   151 -1.507333396842181E-006
                   152 -1.873219466947950E-004
                   153 -2.917910073187940E-004
                   154  5.359072401515270E-005
                   155  5.412041015892060E-004
                   156 -5.638147914982310E-004
                   157 -3.296479089940960E-005
                   158 -2.499514450541040E-005
                   159  2.239420980677900E-004
                   160 -2.542301965874060E-005
                   161 -9.049019631533079E-006
                   162  8.432046672120140E-004
                   163  1.562640346700900E-004
                   164  2.709799503309900E-004
                   165  4.215772458398699E-006
                   166  2.151889237226530E-008
                   167  3.915868001032430E-006
                   168  2.757401840523120E-007
                   169  9.140809301286901E-006
                   170  7.497987944501206E-005
                   171 -1.917511419044820E-004
                   172 -8.757429304573350E-006
                   173 -1.830190974931706E-004
                   174 -1.536518078089870E-005
                   175  1.106302999109461E-005
                   176 -1.490847727288758E-005
                   177  2.576308317001804E-006
                   178  4.160283977182500E-006
                   179  1.685835853492800E-006
                   180 -4.461047933568495E-005
                   181 -1.507333396842181E-006
                   182 -1.241705649132400E-004
                   183 -3.843167949633860E-004
                   184  2.692424274021790E-005
                   185  1.497465920973250E-004
                   186 -1.638735884588260E-005
                   187 -4.313933575988800E-005
                   188  0.000000000000000E+000
                   189  9.415845208877230E-005
                   190  2.207872993958660E-005
                   191  0.000000000000000E+000
                   192 -3.652540315712550E-004
                   193 -1.098776252274410E-004
                   194  0.000000000000000E+000
                   195 -1.044775235575722E-005
                   196  0.000000000000000E+000
                   197  0.000000000000000E+000
                   198  4.193979142511620E-006
                   199 -2.384253263885600E-006
                   200 -1.131787748782730E-004
                   201  0.000000000000000E+000
                   202  0.000000000000000E+000
                   203  6.390418379120721E-005
                   204  1.703402754150450E-005
                   205  0.000000000000000E+000
                   206  8.476630084051919E-007
                   207  3.133851712375821E-006
                   208  0.000000000000000E+000
                   209  0.000000000000000E+000
                   210 -5.625716587556799E-006
                   211 -2.630438568191834E-006
                   212  2.869851665973350E-003
                   213 -2.235250015621840E-003
                   214  1.886901537240760E-004
                   215  3.025027760398530E-004
                   216  3.761103222436550E-004
                   217  2.869851665973350E-003
                   218 -2.235250015621840E-003
                   219  1.886901537240760E-004
                   220  3.025027760398530E-004
                   221 -3.761103222436550E-004
                   222 -5.100489951368310E-004
                   223 -3.068766023251210E-004
                   224 -6.125039148775669E-005
                   225  1.012481659280640E-005
                   226  3.733732607011870E-005
                   227 -5.100489951368310E-004
                   228 -3.068766023251210E-004
                   229 -6.125039148775669E-005
                   230  1.012481659280640E-005
                   231 -3.733732607011870E-005
                   232 -1.218454675736130E-004
                   233 -4.679650248147060E-004
                   234  5.063578207464300E-006
                   235 -1.594926180677660E-006
                   236 -9.532177847508690E-006
                   237 -1.218454675736130E-004
                   238 -4.679650248147060E-004
                   239  5.063578207464300E-006
                   240 -1.594926180677660E-006
                   241  9.532177847508690E-006
                   242  2.019581414194700E-005
                   243  1.156215557667520E-004
                   244  2.971773150458270E-005
                   245  1.807787967003510E-006
                   246  0.000000000000000E+000
 Sym= __2_a'_
 Ene=  0.000000000000000E+000
 Spin= Alpha
 Occup=    2.00000000000000     
                     1 -2.147921698089460E-005
                     2 -8.373631088359950E-005
                     3  1.979459646103680E-003
                     4 -1.224814329005920E-005
                     5  1.249208175281460E-003
                     6  1.961743377809910E-003
                     7  3.141436608407010E-004
                     8  0.000000000000000E+000
                     9 -1.488018832340360E-004
                    10  9.870258580734570E-005
                    11  0.000000000000000E+000
                    12  3.361697558728910E-005
                    13  4.127088534581280E-005
                    14  0.000000000000000E+000
                    15 -7.308591694423377E-005
                    16  0.000000000000000E+000
                    17  0.000000000000000E+000
                    18  3.959623885059980E-005
                    19 -3.056405239519350E-006
                    20  1.892766987464423E-004
                    21  0.000000000000000E+000
                    22  0.000000000000000E+000
                    23  9.705482978111560E-005
                    24 -3.929446728294860E-005
                    25  0.000000000000000E+000
                    26  1.399885762190398E-004
                    27 -5.828046384042132E-005
                    28  0.000000000000000E+000
                    29  0.000000000000000E+000
                    30  1.284589636781273E-004
                    31  3.607209207576304E-005
                    32   1.00097105992345     
                    33  8.779151025562270E-003
                    34  2.779815524840370E-003
                    35 -8.213546143243430E-003
                    36 -2.615929361530080E-003
                    37  7.085411905399630E-004
                    38  0.000000000000000E+000
                    39  1.098147761319130E-003
                    40 -2.278693670578400E-004
                    41  0.000000000000000E+000
                    42  3.478747881755870E-003
                    43 -1.295650257277670E-004
                    44  0.000000000000000E+000
                    45  2.960218121952537E-004
                    46  0.000000000000000E+000
                    47  0.000000000000000E+000
                    48  4.206794784263160E-004
                    49 -2.518381426388510E-005
                    50 -1.048736136253247E-003
                    51  0.000000000000000E+000
                    52  0.000000000000000E+000
                    53 -1.096495347625616E-004
                    54  3.279680897957590E-005
                    55  0.000000000000000E+000
                    56  3.135875649456159E-004
                    57 -8.584087245602972E-006
                    58  0.000000000000000E+000
                    59  0.000000000000000E+000
                    60  8.262883362528119E-005
                    61  1.911496785415545E-005
                    62  1.237182743006990E-002
                    63 -1.866799949795890E-003
                    64 -3.129754159233220E-004
                    65  3.154906556233630E-003
                    66 -1.466365222915050E-004
                    67  1.273445616603770E-004
                    68  2.565823784769730E-004
                    69  2.810937399307940E-005
                    70  2.401006654816650E-006
                    71  5.205788735384080E-004
                    72  1.557440886030390E-004
                    73 -3.284366969832350E-005
                    74 -1.844521806573690E-003
                    75 -1.029794726206265E-005
                    76  2.471117541396680E-005
                    77  8.748555522535081E-006
                    78 -3.581245047488440E-005
                    79 -4.944547639924500E-006
                    80 -4.198737294390194E-004
                    81 -4.696304906600050E-004
                    82  8.672152221287190E-007
                    83  7.613619156099040E-004
                    84 -2.143468853983870E-006
                    85  5.112765172711028E-005
                    86  1.075192555011529E-004
                    87  5.892531456499135E-007
                    88 -1.636435736092432E-005
                    89 -6.886757899523490E-006
                    90 -2.956191086128605E-005
                    91  5.133302393789012E-006
                    92  1.237182743006990E-002
                    93 -1.866799949795890E-003
                    94 -3.129754159233220E-004
                    95  3.154906556233630E-003
                    96 -1.466365222915050E-004
                    97  1.273445616603770E-004
                    98 -2.565823784769730E-004
                    99  2.810937399307940E-005
                   100  2.401006654816650E-006
                   101 -5.205788735384080E-004
                   102  1.557440886030390E-004
                   103 -3.284366969832350E-005
                   104  1.844521806573690E-003
                   105 -1.029794726206265E-005
                   106 -2.471117541396680E-005
                   107 -8.748555522535081E-006
                   108 -3.581245047488440E-005
                   109 -4.944547639924500E-006
                   110 -4.198737294390194E-004
                   111  4.696304906600050E-004
                   112 -8.672152221287190E-007
                   113  7.613619156099040E-004
                   114 -2.143468853983870E-006
                   115 -5.112765172711028E-005
                   116  1.075192555011529E-004
                   117  5.892531456499135E-007
                   118  1.636435736092432E-005
                   119  6.886757899523490E-006
                   120 -2.956191086128605E-005
                   121  5.133302393789012E-006
                   122 -1.488762669502150E-004
                   123 -7.138683834953970E-004
                   124  2.527360429017460E-004
                   125 -3.233546506505460E-004
                   126 -1.905092941715600E-004
                   127  2.366971650224200E-005
                   128 -4.284828905499290E-005
                   129  6.005054326335080E-004
                   130 -1.628079971954290E-006
                   131  4.076607935650250E-005
                   132  5.773597912864051E-004
                   133  2.498214282177590E-006
                   134  3.434763409776910E-004
                   135 -3.037296471781351E-008
                   136  4.193718856327870E-005
                   137  1.882810280599770E-007
                   138 -3.399577028847820E-005
                   139 -1.558615193767280E-006
                   140  1.946208041113459E-004
                   141 -2.630774564375680E-004
                   142  1.472381773160530E-006
                   143 -2.660462012840520E-004
                   144 -4.541592144075220E-006
                   145 -1.782771716998406E-005
                   146  1.311776764780448E-005
                   147  1.600315991672199E-007
                   148 -1.289490879264788E-005
                   149 -1.995218725622390E-006
                   150 -2.566390799666088E-005
                   151 -5.794472376505774E-007
                   152 -1.488762669502150E-004
                   153 -7.138683834953970E-004
                   154  2.527360429017460E-004
                   155 -3.233546506505460E-004
                   156 -1.905092941715600E-004
                   157  2.366971650224200E-005
                   158  4.284828905499290E-005
                   159  6.005054326335080E-004
                   160 -1.628079971954290E-006