[Molden Format]
[Atoms] AU
  N     1    7    -4.4519150800    0.1645695100   -0.0000004400        
  C     2    6    -1.7695092000   -0.0145096000   -0.0000001700        
  C     3    6    -0.4270927200   -0.0061402300   -2.2691546100        
  C     4    6    -0.4270927200   -0.0061402300    2.2691546100        
  C     5    6     2.1889955900   -0.0004823800   -2.2566388900        
  C     6    6     2.1889955900   -0.0004823800    2.2566388900        
  C     7    6     3.5149715000    0.0022090000    0.0000002700        
  H     8    1    -5.1855378300   -0.7126266600   -1.5571957100        
  H     9    1    -5.1855378300   -0.7126266600    1.5571957100        
  H    10    1    -1.4305344500   -0.0005073500   -4.0318143700        
  H    11    1    -1.4305344500   -0.0005073500    4.0318143700        
  H    12    1     3.1914120400   -0.0010699000   -4.0209976100        
  H    13    1     3.1914120400   -0.0010699000    4.0209976100        
  H    14    1     5.5428332300    0.0050250700    0.0000004400        
[5D]
[7F]
[GTO]
  1  0
   s    12 1.00
  0.114200D+05  0.172695D-04
  0.171200D+04  0.134411D-03
  0.389300D+03  0.694561D-03
  0.110000D+03  0.278531D-02
  0.355700D+02  0.863457D-02
  0.125400D+02  0.199805D-01
  0.464400D+01  0.262908D-01
  0.129300D+01 -0.243845D-01
  0.511800D+00 -0.924934D-01
  0.178700D+00 -0.339683D+00
  0.246240D-01  0.345111D+00
  0.112530D-01  0.752750D+00
   s    10 1.00
  0.114200D+05  0.523000D-03
  0.171200D+04  0.404500D-02
  0.389300D+03  0.207750D-01
  0.110000D+03  0.807269D-01
  0.355700D+02  0.233074D+00
  0.125400D+02  0.433501D+00
  0.464400D+01  0.347472D+00
  0.129300D+01  0.412620D-01
  0.511800D+00 -0.850799D-02
  0.178700D+00  0.238400D-02
   s    10 1.00
  0.114200D+05 -0.115000D-03
  0.171200D+04 -0.895000D-03
  0.389300D+03 -0.462400D-02
  0.110000D+03 -0.185280D-01
  0.355700D+02 -0.573390D-01
  0.125400D+02 -0.132076D+00
  0.464400D+01 -0.172510D+00
  0.129300D+01  0.151814D+00
  0.511800D+00  0.599944D+00
  0.178700D+00  0.387462D+00
   s     1 1.00
  0.129300D+01  0.100000D+01
   s     1 1.00
  0.178700D+00  0.100000D+01
   p     5 1.00
  0.266300D+02  0.146700D-01
  0.594800D+01  0.917640D-01
  0.174200D+01  0.298683D+00
  0.555000D+00  0.498487D+00
  0.172500D+00  0.337023D+00
   p     1 1.00
  0.174200D+01  0.100000D+01
   p     1 1.00
  0.555000D+00  0.100000D+01
   d     1 1.00
  0.165400D+01  0.100000D+01
   d     1 1.00
  0.469000D+00  0.100000D+01
   f     1 1.00
  0.109300D+01  0.100000D+01
  
  2  0
   s    10 1.00
  0.823600D+04  0.531000D-03
  0.123500D+04  0.410800D-02
  0.280800D+03  0.210870D-01
  0.792700D+02  0.818530D-01
  0.255900D+02  0.234817D+00
  0.899700D+01  0.434401D+00
  0.331900D+01  0.346129D+00
  0.905900D+00  0.393780D-01
  0.364300D+00 -0.898300D-02
  0.128500D+00  0.238500D-02
   s    10 1.00
  0.823600D+04 -0.113000D-03
  0.123500D+04 -0.878000D-03
  0.280800D+03 -0.454000D-02
  0.792700D+02 -0.181330D-01
  0.255900D+02 -0.557600D-01
  0.899700D+01 -0.126895D+00
  0.331900D+01 -0.170352D+00
  0.905900D+00  0.140382D+00
  0.364300D+00  0.598684D+00
  0.128500D+00  0.395389D+00
   s     1 1.00
  0.905900D+00  0.100000D+01
   s     1 1.00
  0.364300D+00  0.100000D+01
   p     5 1.00
  0.187100D+02  0.140310D-01
  0.413300D+01  0.868660D-01
  0.120000D+01  0.290216D+00
  0.382700D+00  0.501008D+00
  0.120900D+00  0.343406D+00
   p     1 1.00
  0.382700D+00  0.100000D+01
   p     1 1.00
  0.120900D+00  0.100000D+01
   d     1 1.00
  0.109700D+01  0.100000D+01
   d     1 1.00
  0.318000D+00  0.100000D+01
   f     1 1.00
  0.761000D+00  0.100000D+01
  
  3  0
   s    10 1.00
  0.823600D+04  0.531000D-03
  0.123500D+04  0.410800D-02
  0.280800D+03  0.210870D-01
  0.792700D+02  0.818530D-01
  0.255900D+02  0.234817D+00
  0.899700D+01  0.434401D+00
  0.331900D+01  0.346129D+00
  0.905900D+00  0.393780D-01
  0.364300D+00 -0.898300D-02
  0.128500D+00  0.238500D-02
   s    10 1.00
  0.823600D+04 -0.113000D-03
  0.123500D+04 -0.878000D-03
  0.280800D+03 -0.454000D-02
  0.792700D+02 -0.181330D-01
  0.255900D+02 -0.557600D-01
  0.899700D+01 -0.126895D+00
  0.331900D+01 -0.170352D+00
  0.905900D+00  0.140382D+00
  0.364300D+00  0.598684D+00
  0.128500D+00  0.395389D+00
   s     1 1.00
  0.905900D+00  0.100000D+01
   s     1 1.00
  0.364300D+00  0.100000D+01
   p     5 1.00
  0.187100D+02  0.140310D-01
  0.413300D+01  0.868660D-01
  0.120000D+01  0.290216D+00
  0.382700D+00  0.501008D+00
  0.120900D+00  0.343406D+00
   p     1 1.00
  0.382700D+00  0.100000D+01
   p     1 1.00
  0.120900D+00  0.100000D+01
   d     1 1.00
  0.109700D+01  0.100000D+01
   d     1 1.00
  0.318000D+00  0.100000D+01
   f     1 1.00
  0.761000D+00  0.100000D+01
  
  4  0
   s    10 1.00
  0.823600D+04  0.531000D-03
  0.123500D+04  0.410800D-02
  0.280800D+03  0.210870D-01
  0.792700D+02  0.818530D-01
  0.255900D+02  0.234817D+00
  0.899700D+01  0.434401D+00
  0.331900D+01  0.346129D+00
  0.905900D+00  0.393780D-01
  0.364300D+00 -0.898300D-02
  0.128500D+00  0.238500D-02
   s    10 1.00
  0.823600D+04 -0.113000D-03
  0.123500D+04 -0.878000D-03
  0.280800D+03 -0.454000D-02
  0.792700D+02 -0.181330D-01
  0.255900D+02 -0.557600D-01
  0.899700D+01 -0.126895D+00
  0.331900D+01 -0.170352D+00
  0.905900D+00  0.140382D+00
  0.364300D+00  0.598684D+00
  0.128500D+00  0.395389D+00
   s     1 1.00
  0.905900D+00  0.100000D+01
   s     1 1.00
  0.364300D+00  0.100000D+01
   p     5 1.00
  0.187100D+02  0.140310D-01
  0.413300D+01  0.868660D-01
  0.120000D+01  0.290216D+00
  0.382700D+00  0.501008D+00
  0.120900D+00  0.343406D+00
   p     1 1.00
  0.382700D+00  0.100000D+01
   p     1 1.00
  0.120900D+00  0.100000D+01
   d     1 1.00
  0.109700D+01  0.100000D+01
   d     1 1.00
  0.318000D+00  0.100000D+01
   f     1 1.00
  0.761000D+00  0.100000D+01
  
  5  0
   s    10 1.00
  0.823600D+04  0.531000D-03
  0.123500D+04  0.410800D-02
  0.280800D+03  0.210870D-01
  0.792700D+02  0.818530D-01
  0.255900D+02  0.234817D+00
  0.899700D+01  0.434401D+00
  0.331900D+01  0.346129D+00
  0.905900D+00  0.393780D-01
  0.364300D+00 -0.898300D-02
  0.128500D+00  0.238500D-02
   s    10 1.00
  0.823600D+04 -0.113000D-03
  0.123500D+04 -0.878000D-03
  0.280800D+03 -0.454000D-02
  0.792700D+02 -0.181330D-01
  0.255900D+02 -0.557600D-01
  0.899700D+01 -0.126895D+00
  0.331900D+01 -0.170352D+00
  0.905900D+00  0.140382D+00
  0.364300D+00  0.598684D+00
  0.128500D+00  0.395389D+00
   s     1 1.00
  0.905900D+00  0.100000D+01
   s     1 1.00
  0.364300D+00  0.100000D+01
   p     5 1.00
  0.187100D+02  0.140310D-01
  0.413300D+01  0.868660D-01
  0.120000D+01  0.290216D+00
  0.382700D+00  0.501008D+00
  0.120900D+00  0.343406D+00
   p     1 1.00
  0.382700D+00  0.100000D+01
   p     1 1.00
  0.120900D+00  0.100000D+01
   d     1 1.00
  0.109700D+01  0.100000D+01
   d     1 1.00
  0.318000D+00  0.100000D+01
   f     1 1.00
  0.761000D+00  0.100000D+01
  
  6  0
   s    10 1.00
  0.823600D+04  0.531000D-03
  0.123500D+04  0.410800D-02
  0.280800D+03  0.210870D-01
  0.792700D+02  0.818530D-01
  0.255900D+02  0.234817D+00
  0.899700D+01  0.434401D+00
  0.331900D+01  0.346129D+00
  0.905900D+00  0.393780D-01
  0.364300D+00 -0.898300D-02
  0.128500D+00  0.238500D-02
   s    10 1.00
  0.823600D+04 -0.113000D-03
  0.123500D+04 -0.878000D-03
  0.280800D+03 -0.454000D-02
  0.792700D+02 -0.181330D-01
  0.255900D+02 -0.557600D-01
  0.899700D+01 -0.126895D+00
  0.331900D+01 -0.170352D+00
  0.905900D+00  0.140382D+00
  0.364300D+00  0.598684D+00
  0.128500D+00  0.395389D+00
   s     1 1.00
  0.905900D+00  0.100000D+01
   s     1 1.00
  0.364300D+00  0.100000D+01
   p     5 1.00
  0.187100D+02  0.140310D-01
  0.413300D+01  0.868660D-01
  0.120000D+01  0.290216D+00
  0.382700D+00  0.501008D+00
  0.120900D+00  0.343406D+00
   p     1 1.00
  0.382700D+00  0.100000D+01
   p     1 1.00
  0.120900D+00  0.100000D+01
   d     1 1.00
  0.109700D+01  0.100000D+01
   d     1 1.00
  0.318000D+00  0.100000D+01
   f     1 1.00
  0.761000D+00  0.100000D+01
  
  7  0
   s    10 1.00
  0.823600D+04  0.531000D-03
  0.123500D+04  0.410800D-02
  0.280800D+03  0.210870D-01
  0.792700D+02  0.818530D-01
  0.255900D+02  0.234817D+00
  0.899700D+01  0.434401D+00
  0.331900D+01  0.346129D+00
  0.905900D+00  0.393780D-01
  0.364300D+00 -0.898300D-02
  0.128500D+00  0.238500D-02
   s    10 1.00
  0.823600D+04 -0.113000D-03
  0.123500D+04 -0.878000D-03
  0.280800D+03 -0.454000D-02
  0.792700D+02 -0.181330D-01
  0.255900D+02 -0.557600D-01
  0.899700D+01 -0.126895D+00
  0.331900D+01 -0.170352D+00
  0.905900D+00  0.140382D+00
  0.364300D+00  0.598684D+00
  0.128500D+00  0.395389D+00
   s     1 1.00
  0.905900D+00  0.100000D+01
   s     1 1.00
  0.364300D+00  0.100000D+01
   p     5 1.00
  0.187100D+02  0.140310D-01
  0.413300D+01  0.868660D-01
  0.120000D+01  0.290216D+00
  0.382700D+00  0.501008D+00
  0.120900D+00  0.343406D+00
   p     1 1.00
  0.382700D+00  0.100000D+01
   p     1 1.00
  0.120900D+00  0.100000D+01
   d     1 1.00
  0.109700D+01  0.100000D+01
   d     1 1.00
  0.318000D+00  0.100000D+01
   f     1 1.00
  0.761000D+00  0.100000D+01
  
  8  0
   s     4 1.00
  0.130100D+02  0.196850D-01
  0.196200D+01  0.137977D+00
  0.444600D+00  0.478148D+00
  0.122000D+00  0.501240D+00
   s     1 1.00
  0.122000D+00  0.100000D+01
   p     1 1.00
  0.727000D+00  0.100000D+01
  
  9  0
   s     4 1.00
  0.130100D+02  0.196850D-01
  0.196200D+01  0.137977D+00
  0.444600D+00  0.478148D+00
  0.122000D+00  0.501240D+00
   s     1 1.00
  0.122000D+00  0.100000D+01
   p     1 1.00
  0.727000D+00  0.100000D+01
  
 10  0
   s     4 1.00
  0.130100D+02  0.196850D-01
  0.196200D+01  0.137977D+00
  0.444600D+00  0.478148D+00
  0.122000D+00  0.501240D+00
   s     1 1.00
  0.122000D+00  0.100000D+01
   p     1 1.00
  0.727000D+00  0.100000D+01
  
 11  0
   s     4 1.00
  0.130100D+02  0.196850D-01
  0.196200D+01  0.137977D+00
  0.444600D+00  0.478148D+00
  0.122000D+00  0.501240D+00
   s     1 1.00
  0.122000D+00  0.100000D+01
   p     1 1.00
  0.727000D+00  0.100000D+01
  
 12  0
   s     4 1.00
  0.130100D+02  0.196850D-01
  0.196200D+01  0.137977D+00
  0.444600D+00  0.478148D+00
  0.122000D+00  0.501240D+00
   s     1 1.00
  0.122000D+00  0.100000D+01
   p     1 1.00
  0.727000D+00  0.100000D+01
  
 13  0
   s     4 1.00
  0.130100D+02  0.196850D-01
  0.196200D+01  0.137977D+00
  0.444600D+00  0.478148D+00
  0.122000D+00  0.501240D+00
   s     1 1.00
  0.122000D+00  0.100000D+01
   p     1 1.00
  0.727000D+00  0.100000D+01
  
 14  0
   s     4 1.00
  0.130100D+02  0.196850D-01
  0.196200D+01  0.137977D+00
  0.444600D+00  0.478148D+00
  0.122000D+00  0.501240D+00
   s     1 1.00
  0.122000D+00  0.100000D+01
   p     1 1.00
  0.727000D+00  0.100000D+01
  
[MO]
 Sym= __1_A'_
 Ene=  0.000000000000000E+000
 Spin= Alpha
 Occup=    2.00000000000000     
                     1  2.221751608335460E-004
                     2  0.998066382013954     
                     3  4.234994325820049E-003
                     4  1.919417051588474E-003
                     5  5.409284970015852E-003
                     6  5.444768369704709E-003
                     7 -4.763633498961873E-003
                     8  0.000000000000000E+000
                     9 -7.487225695505547E-004
                    10  2.359600293019789E-004
                    11  0.000000000000000E+000
                    12 -1.327612999813354E-003
                    13  3.096084697760317E-003
                    14  0.000000000000000E+000
                    15 -5.228620577411551E-006
                    16  0.000000000000000E+000
                    17  0.000000000000000E+000
                    18  8.033494584285327E-005
                    19  6.442780012811582E-005
                    20 -3.858986945003963E-004
                    21  0.000000000000000E+000
                    22  0.000000000000000E+000
                    23  4.652332142103084E-005
                    24 -4.858182071739031E-004
                    25  0.000000000000000E+000
                    26 -1.471015380695866E-004
                    27 -7.340791566450803E-005
                    28  0.000000000000000E+000
                    29  0.000000000000000E+000
                    30 -9.872842121686665E-005
                    31 -5.939915401981722E-005
                    32 -3.916893274593765E-004
                    33  9.792817561955439E-004
                    34  2.413128968913610E-004
                    35 -1.121991228322229E-004
                    36 -4.525290086857917E-003
                    37 -1.982496833804376E-006
                    38  0.000000000000000E+000
                    39  2.024984748153503E-004
                    40 -1.216526193498747E-005
                    41  0.000000000000000E+000
                    42  4.855613622866397E-003
                    43  7.825531363279122E-004
                    44  0.000000000000000E+000
                    45 -2.287008867316494E-004
                    46  0.000000000000000E+000
                    47  0.000000000000000E+000
                    48  2.103314300438878E-004
                    49  4.775300919739950E-005
                    50  4.611416230289614E-004
                    51  0.000000000000000E+000
                    52  0.000000000000000E+000
                    53 -4.598789890748100E-005
                    54 -3.539140831683025E-004
                    55  0.000000000000000E+000
                    56 -6.250405382187820E-005
                    57  1.124860687836784E-005
                    58  0.000000000000000E+000
                    59  0.000000000000000E+000
                    60 -3.487170999604023E-005
                    61  3.637890371921196E-005
                    62 -3.564472559502925E-004
                    63 -1.812407480084839E-003
                    64  9.667880663697499E-005
                    65  8.396964800341337E-004
                    66  6.116734033531620E-004
                    67 -8.754575586312760E-005
                    68 -6.046791841800082E-004
                    69  5.965571302912907E-004
                    70  8.410612231953646E-005
                    71  1.114291619296697E-004
                    72 -4.729753317211785E-004
                    73 -3.566753369425186E-004
                    74 -7.958262144921439E-004
                    75 -7.616257915881651E-005
                    76 -1.269803441255324E-005
                    77  1.829414368965177E-005
                    78  6.272920553880396E-005
                    79 -9.660622415746300E-006
                    80  1.795454913642199E-004
                    81  1.853843236025035E-004
                    82 -2.694265627832495E-005
                    83 -1.178540398782726E-004
                    84  5.442798044555273E-005
                    85 -7.860844052085424E-006
                    86 -5.591678431229437E-005
                    87  2.118917623007430E-005
                    88 -1.163784598859964E-005
                    89  1.299667024797359E-005
                    90 -4.633825041849067E-005
                    91 -1.135319164692426E-005
                    92 -3.564472559502925E-004
                    93 -1.812407480084839E-003
                    94  9.667880663697499E-005
                    95  8.396964800341337E-004
                    96  6.116734033531620E-004
                    97 -8.754575586312760E-005
                    98  6.046791841800082E-004
                    99  5.965571302912907E-004
                   100  8.410612231953646E-005
                   101 -1.114291619296697E-004
                   102 -4.729753317211785E-004
                   103 -3.566753369425186E-004
                   104  7.958262144921439E-004
                   105 -7.616257915881651E-005
                   106  1.269803441255324E-005
                   107 -1.829414368965177E-005
                   108  6.272920553880396E-005
                   109 -9.660622415746300E-006
                   110  1.795454913642199E-004
                   111 -1.853843236025035E-004
                   112  2.694265627832495E-005
                   113 -1.178540398782726E-004
                   114  5.442798044555273E-005
                   115  7.860844052085424E-006
                   116 -5.591678431229437E-005
                   117  2.118917623007430E-005
                   118  1.163784598859964E-005
                   119 -1.299667024797359E-005
                   120 -4.633825041849067E-005
                   121 -1.135319164692426E-005
                   122 -1.873219464830210E-004
                   123 -2.917910079954553E-004
                   124  5.359072403279767E-005
                   125  5.412041015441668E-004
                   126 -5.638147888918003E-004
                   127 -3.296479089894044E-005
                   128  2.499514406823373E-005
                   129  2.239420979546906E-004
                   130 -2.542301966149820E-005
                   131  9.049019732361449E-006
                   132  8.432046668786914E-004
                   133  1.562640346739013E-004
                   134 -2.709799501896881E-004
                   135  4.215772525525111E-006
                   136 -2.151888445957139E-008
                   137 -3.915868001269903E-006
                   138  2.757401233593586E-007
                   139  9.140809300543912E-006
                   140  7.497987949779026E-005
                   141  1.917511419754151E-004
                   142  8.757429304939198E-006
                   143 -1.830190975600943E-004
                   144 -1.536518078148602E-005
                   145 -1.106302999788420E-005
                   146 -1.490847728688272E-005
                   147  2.576308316969088E-006
                   148 -4.160283987013224E-006
                   149 -1.685835853653103E-006
                   150 -4.461047935635015E-005
                   151 -1.507333396929093E-006
                   152 -1.873219464830210E-004
                   153 -2.917910079954553E-004
                   154  5.359072403279767E-005
                   155  5.412041015441668E-004
                   156 -5.638147888918003E-004
                   157 -3.296479089894044E-005
                   158 -2.499514406823373E-005
                   159  2.239420979546906E-004
                   160 -2.542301966149820E-005
                   161 -9.049019732361449E-006
                   162  8.432046668786914E-004
                   163  1.562640346739013E-004
                   164  2.709799501896881E-004
                   165  4.215772525525111E-006
                   166  2.151888445957139E-008
                   167  3.915868001269903E-006
                   168  2.757401233593586E-007
                   169  9.140809300543912E-006
                   170  7.497987949779026E-005
                   171 -1.917511419754151E-004
                   172 -8.757429304939198E-006
                   173 -1.830190975600943E-004
                   174 -1.536518078148602E-005
                   175  1.106302999788420E-005
                   176 -1.490847728688272E-005
                   177  2.576308316969088E-006
                   178  4.160283987013224E-006
                   179  1.685835853653103E-006
                   180 -4.461047935635015E-005
                   181 -1.507333396929093E-006
                   182 -1.241705648628491E-004
                   183 -3.843167950302273E-004
                   184  2.692424274052568E-005
                   185  1.497465919927328E-004
                   186 -1.638736008509142E-005
                   187 -4.313933577766078E-005
                   188  0.000000000000000E+000
                   189  9.415845230495959E-005
                   190  2.207872993969085E-005
                   191  0.000000000000000E+000
                   192 -3.652540318570636E-004
                   193 -1.098776252330878E-004
                   194  0.000000000000000E+000
                   195 -1.044775227390264E-005
                   196  0.000000000000000E+000
                   197  0.000000000000000E+000
                   198  4.193979083341884E-006
                   199 -2.384253263975300E-006
                   200 -1.131787748688276E-004
                   201  0.000000000000000E+000
                   202  0.000000000000000E+000
                   203  6.390418381965933E-005
                   204  1.703402754183118E-005
                   205  0.000000000000000E+000
                   206  8.476630028721605E-007
                   207  3.133851712215778E-006
                   208  0.000000000000000E+000
                   209  0.000000000000000E+000
                   210 -5.625716589625620E-006
                   211 -2.630438568243397E-006
                   212  2.869851666073412E-003
                   213 -2.235250015605820E-003
                   214  1.886901537294379E-004
                   215  3.025027760406730E-004
                   216  3.761103222405266E-004
                   217  2.869851666073412E-003
                   218 -2.235250015605820E-003
                   219  1.886901537294379E-004
                   220  3.025027760406730E-004
                   221 -3.761103222405266E-004
                   222 -5.100489921396246E-004
                   223 -3.068766033347558E-004
                   224 -6.125039142461956E-005
                   225  1.012481659129842E-005
                   226  3.733732624083387E-005
                   227 -5.100489921396246E-004
                   228 -3.068766033347558E-004
                   229 -6.125039142461956E-005
                   230  1.012481659129842E-005
                   231 -3.733732624083387E-005
                   232 -1.218454662965336E-004
                   233 -4.679650251406058E-004
                   234  5.063578194182779E-006
                   235 -1.594926180882912E-006
                   236 -9.532177775339478E-006
                   237 -1.218454662965336E-004
                   238 -4.679650251406058E-004
                   239  5.063578194182779E-006
                   240 -1.594926180882912E-006
                   241  9.532177775339478E-006
                   242  2.019581235089379E-005
                   243  1.156215564080869E-004
                   244  2.971773159746190E-005
                   245  1.807787966956530E-006
                   246  0.000000000000000E+000
 Sym= __2_A'_
 Ene=  0.000000000000000E+000
 Spin= Alpha
 Occup=    2.00000000000000     
                     1 -2.147921698974389E-005
                     2 -8.373630354818362E-005
                     3  1.979459646009036E-003
                     4 -1.224814327338137E-005
                     5  1.249208175376412E-003
                     6  1.961743377843051E-003
                     7  3.141436607371692E-004
                     8  0.000000000000000E+000
                     9 -1.488018832567962E-004
                    10  9.870258581905280E-005
                    11  0.000000000000000E+000
                    12  3.361697557016452E-005
                    13  4.127088537625766E-005
                    14  0.000000000000000E+000
                    15 -7.308591694283502E-005
                    16  0.000000000000000E+000
                    17  0.000000000000000E+000
                    18  3.959623884777894E-005
                    19 -3.056405240009648E-006
                    20  1.892766987548654E-004
                    21  0.000000000000000E+000
                    22  0.000000000000000E+000
                    23  9.705482977138312E-005
                    24 -3.929446728214781E-005
                    25  0.000000000000000E+000
                    26  1.399885762148830E-004
                    27 -5.828046384134415E-005
                    28  0.000000000000000E+000
                    29  0.000000000000000E+000
                    30  1.284589636782189E-004
                    31  3.607209207508178E-005
                    32   1.00097105992270     
                    33  8.779151023065064E-003
                    34  2.779815524844600E-003
                    35 -8.213546143008793E-003
                    36 -2.615929362647558E-003
                    37  7.085411904967102E-004
                    38  0.000000000000000E+000
                    39  1.098147761411128E-003
                    40 -2.278693670548950E-004
                    41  0.000000000000000E+000
                    42  3.478747881815434E-003
                    43 -1.295650257205051E-004
                    44  0.000000000000000E+000
                    45  2.960218121531829E-004
                    46  0.000000000000000E+000
                    47  0.000000000000000E+000
                    48  4.206794783992632E-004
                    49 -2.518381426356468E-005
                    50 -1.048736136262076E-003
                    51  0.000000000000000E+000
                    52  0.000000000000000E+000
                    53 -1.096495347923099E-004
                    54  3.279680897580365E-005
                    55  0.000000000000000E+000
                    56  3.135875648906624E-004
                    57 -8.584087245818020E-006
                    58  0.000000000000000E+000
                    59  0.000000000000000E+000
                    60  8.262883362334441E-005
                    61  1.911496785205367E-005
                    62  1.237182746007055E-002
                    63 -1.866799949878833E-003
                    64 -3.129754158167525E-004
                    65  3.154906555933154E-003
                    66 -1.466365221141805E-004
                    67  1.273445616418579E-004
                    68  2.565823769651868E-004
                    69  2.810937392905293E-005
                    70  2.401006656991530E-006
                    71  5.205788736415637E-004
                    72  1.557440884558755E-004
                    73 -3.284366970257003E-005
                    74 -1.844521806031180E-003
                    75 -1.029794728261005E-005
                    76  2.471117545326648E-005
                    77  8.748555521993656E-006
                    78 -3.581245046222486E-005
                    79 -4.944547639837642E-006
                    80 -4.198737294734505E-004
                    81 -4.696304906304384E-004
                    82  8.672152225376066E-007
                    83  7.613619155651252E-004
                    84 -2.143468853228022E-006
                    85  5.112765174032302E-005
                    86  1.075192555071960E-004
                    87  5.892531457891832E-007
                    88 -1.636435736779101E-005
                    89 -6.886757899381215E-006
                    90 -2.956191085979942E-005
                    91  5.133302393530062E-006
                    92  1.237182746007055E-002
                    93 -1.866799949878833E-003
                    94 -3.129754158167525E-004
                    95  3.154906555933154E-003
                    96 -1.466365221141805E-004
                    97  1.273445616418579E-004
                    98 -2.565823769651868E-004
                    99  2.810937392905293E-005
                   100  2.401006656991530E-006
                   101 -5.205788736415637E-004
                   102  1.557440884558755E-004
                   103 -3.284366970257003E-005
                   104  1.844521806031180E-003
                   105 -1.029794728261005E-005
                   106 -2.471117545326648E-005
                   107 -8.748555521993656E-006
                   108 -3.581245046222486E-005
                   109 -4.944547639837642E-006
                   110 -4.198737294734505E-004
                   111  4.696304906304384E-004
                   112 -8.672152225376066E-007
                   113  7.613619155651252E-004
                   114 -2.143468853228022E-006
                   115 -5.112765174032302E-005
                   116  1.075192555071960E-004
                   117  5.892531457891832E-007
                   118  1.636435736779101E-005
                   119  6.886757899381215E-006
                   120 -2.956191085979942E-005
                   121  5.133302393530062E-006
                   122 -1.488762634303706E-004
                   123 -7.138683832555256E-004
                   124  2.527360428824830E-004
                   125 -3.233546506125786E-004
                   126 -1.905092941554626E-004
                   127  2.366971649947342E-005
                   128 -4.284828906287665E-005
                   129  6.005054325869186E-004
                   130 -1.628079972757908E-006
                   131  4.076607935869257E-005
                   132  5.773597911286488E-004
                   133  2.498214286202720E-006
                   134  3.434763410024495E-004
                   135 -3.037296091990459E-008
                   136  4.193718858395015E-005
                   137  1.882810281304806E-007
                   138 -3.399577028837838E-005
                   139 -1.558615193362851E-006
                   140  1.946208041119639E-004
                   141 -2.630774563898333E-004
                   142  1.472381773025938E-006
                   143 -2.660462012557694E-004
                   144 -4.541592143523407E-006
                   145 -1.782771717813598E-005
                   146  1.311776764806912E-005
                   147  1.600315991983732E-007
                   148 -1.289490879992155E-005
                   149 -1.995218725533757E-006
                   150 -2.566390799598166E-005
                   151 -5.794472378121129E-007
                   152 -1.488762634303706E-004
                   153 -7.138683832555256E-004
                   154  2.527360428824830E-004
                   155 -3.233546506125786E-004
                   156 -1.905092941554626E-004
                   157  2.366971649947342E-005
                   158  4.284828906287665E-005
                   159  6.005054325869186E-004
                   160 -1.628079972757908E-006