[Molden Format]
[Atoms] AU
  N     1    7    -4.5082829200   -0.1342819900   -0.4228200100        
  C     2    6    -1.7496705200   -0.0824342700   -0.1838819400        
  C     3    6    -0.3491890900    0.2202010900   -2.3813599000        
  C     4    6    -0.4819141000   -0.3194027500    2.1144844200        
  C     5    6     2.2679837200    0.2851297300   -2.2867536700        
  C     6    6     2.1285900100   -0.2535069600    2.1993448600        
  C     7    6     3.5096699900    0.0491470500   -0.0030301700        
  H     8    1    -5.2360393300   -2.3263659700    0.8673061800        
  H     9    1    -5.2312650200    1.3935123600    1.0889586400        
  H    10    1    -1.3260875200    0.4019365300   -4.1451509600        
  H    11    1    -1.5448115400   -0.5543420500    3.8263524900        
  H    12    1     3.3318141500    0.5199799700   -3.9976458500        
  H    13    1     3.0845146800   -0.4378414600    3.9798216900        
  H    14    1     5.5368142800    0.0998677000    0.0666404700        
[5D]
[7F]
[GTO]
  1  0
   s    12 1.00
  0.114200D+05  0.172695D-04
  0.171200D+04  0.134411D-03
  0.389300D+03  0.694561D-03
  0.110000D+03  0.278531D-02
  0.355700D+02  0.863457D-02
  0.125400D+02  0.199805D-01
  0.464400D+01  0.262908D-01
  0.129300D+01 -0.243845D-01
  0.511800D+00 -0.924934D-01
  0.178700D+00 -0.339683D+00
  0.246240D-01  0.345111D+00
  0.112530D-01  0.752750D+00
   s    10 1.00
  0.114200D+05  0.523000D-03
  0.171200D+04  0.404500D-02
  0.389300D+03  0.207750D-01
  0.110000D+03  0.807269D-01
  0.355700D+02  0.233074D+00
  0.125400D+02  0.433501D+00
  0.464400D+01  0.347472D+00
  0.129300D+01  0.412620D-01
  0.511800D+00 -0.850799D-02
  0.178700D+00  0.238400D-02
   s    10 1.00
  0.114200D+05 -0.115000D-03
  0.171200D+04 -0.895000D-03
  0.389300D+03 -0.462400D-02
  0.110000D+03 -0.185280D-01
  0.355700D+02 -0.573390D-01
  0.125400D+02 -0.132076D+00
  0.464400D+01 -0.172510D+00
  0.129300D+01  0.151814D+00
  0.511800D+00  0.599944D+00
  0.178700D+00  0.387462D+00
   s     1 1.00
  0.129300D+01  0.100000D+01
   s     1 1.00
  0.178700D+00  0.100000D+01
   p     5 1.00
  0.266300D+02  0.146700D-01
  0.594800D+01  0.917640D-01
  0.174200D+01  0.298683D+00
  0.555000D+00  0.498487D+00
  0.172500D+00  0.337023D+00
   p     1 1.00
  0.174200D+01  0.100000D+01
   p     1 1.00
  0.555000D+00  0.100000D+01
   d     1 1.00
  0.165400D+01  0.100000D+01
   d     1 1.00
  0.469000D+00  0.100000D+01
   f     1 1.00
  0.109300D+01  0.100000D+01
  
  2  0
   s    10 1.00
  0.823600D+04  0.531000D-03
  0.123500D+04  0.410800D-02
  0.280800D+03  0.210870D-01
  0.792700D+02  0.818530D-01
  0.255900D+02  0.234817D+00
  0.899700D+01  0.434401D+00
  0.331900D+01  0.346129D+00
  0.905900D+00  0.393780D-01
  0.364300D+00 -0.898300D-02
  0.128500D+00  0.238500D-02
   s    10 1.00
  0.823600D+04 -0.113000D-03
  0.123500D+04 -0.878000D-03
  0.280800D+03 -0.454000D-02
  0.792700D+02 -0.181330D-01
  0.255900D+02 -0.557600D-01
  0.899700D+01 -0.126895D+00
  0.331900D+01 -0.170352D+00
  0.905900D+00  0.140382D+00
  0.364300D+00  0.598684D+00
  0.128500D+00  0.395389D+00
   s     1 1.00
  0.905900D+00  0.100000D+01
   s     1 1.00
  0.364300D+00  0.100000D+01
   p     5 1.00
  0.187100D+02  0.140310D-01
  0.413300D+01  0.868660D-01
  0.120000D+01  0.290216D+00
  0.382700D+00  0.501008D+00
  0.120900D+00  0.343406D+00
   p     1 1.00
  0.382700D+00  0.100000D+01
   p     1 1.00
  0.120900D+00  0.100000D+01
   d     1 1.00
  0.109700D+01  0.100000D+01
   d     1 1.00
  0.318000D+00  0.100000D+01
   f     1 1.00
  0.761000D+00  0.100000D+01
  
  3  0
   s    10 1.00
  0.823600D+04  0.531000D-03
  0.123500D+04  0.410800D-02
  0.280800D+03  0.210870D-01
  0.792700D+02  0.818530D-01
  0.255900D+02  0.234817D+00
  0.899700D+01  0.434401D+00
  0.331900D+01  0.346129D+00
  0.905900D+00  0.393780D-01
  0.364300D+00 -0.898300D-02
  0.128500D+00  0.238500D-02
   s    10 1.00
  0.823600D+04 -0.113000D-03
  0.123500D+04 -0.878000D-03
  0.280800D+03 -0.454000D-02
  0.792700D+02 -0.181330D-01
  0.255900D+02 -0.557600D-01
  0.899700D+01 -0.126895D+00
  0.331900D+01 -0.170352D+00
  0.905900D+00  0.140382D+00
  0.364300D+00  0.598684D+00
  0.128500D+00  0.395389D+00
   s     1 1.00
  0.905900D+00  0.100000D+01
   s     1 1.00
  0.364300D+00  0.100000D+01
   p     5 1.00
  0.187100D+02  0.140310D-01
  0.413300D+01  0.868660D-01
  0.120000D+01  0.290216D+00
  0.382700D+00  0.501008D+00
  0.120900D+00  0.343406D+00
   p     1 1.00
  0.382700D+00  0.100000D+01
   p     1 1.00
  0.120900D+00  0.100000D+01
   d     1 1.00
  0.109700D+01  0.100000D+01
   d     1 1.00
  0.318000D+00  0.100000D+01
   f     1 1.00
  0.761000D+00  0.100000D+01
  
  4  0
   s    10 1.00
  0.823600D+04  0.531000D-03
  0.123500D+04  0.410800D-02
  0.280800D+03  0.210870D-01
  0.792700D+02  0.818530D-01
  0.255900D+02  0.234817D+00
  0.899700D+01  0.434401D+00
  0.331900D+01  0.346129D+00
  0.905900D+00  0.393780D-01
  0.364300D+00 -0.898300D-02
  0.128500D+00  0.238500D-02
   s    10 1.00
  0.823600D+04 -0.113000D-03
  0.123500D+04 -0.878000D-03
  0.280800D+03 -0.454000D-02
  0.792700D+02 -0.181330D-01
  0.255900D+02 -0.557600D-01
  0.899700D+01 -0.126895D+00
  0.331900D+01 -0.170352D+00
  0.905900D+00  0.140382D+00
  0.364300D+00  0.598684D+00
  0.128500D+00  0.395389D+00
   s     1 1.00
  0.905900D+00  0.100000D+01
   s     1 1.00
  0.364300D+00  0.100000D+01
   p     5 1.00
  0.187100D+02  0.140310D-01
  0.413300D+01  0.868660D-01
  0.120000D+01  0.290216D+00
  0.382700D+00  0.501008D+00
  0.120900D+00  0.343406D+00
   p     1 1.00
  0.382700D+00  0.100000D+01
   p     1 1.00
  0.120900D+00  0.100000D+01
   d     1 1.00
  0.109700D+01  0.100000D+01
   d     1 1.00
  0.318000D+00  0.100000D+01
   f     1 1.00
  0.761000D+00  0.100000D+01
  
  5  0
   s    10 1.00
  0.823600D+04  0.531000D-03
  0.123500D+04  0.410800D-02
  0.280800D+03  0.210870D-01
  0.792700D+02  0.818530D-01
  0.255900D+02  0.234817D+00
  0.899700D+01  0.434401D+00
  0.331900D+01  0.346129D+00
  0.905900D+00  0.393780D-01
  0.364300D+00 -0.898300D-02
  0.128500D+00  0.238500D-02
   s    10 1.00
  0.823600D+04 -0.113000D-03
  0.123500D+04 -0.878000D-03
  0.280800D+03 -0.454000D-02
  0.792700D+02 -0.181330D-01
  0.255900D+02 -0.557600D-01
  0.899700D+01 -0.126895D+00
  0.331900D+01 -0.170352D+00
  0.905900D+00  0.140382D+00
  0.364300D+00  0.598684D+00
  0.128500D+00  0.395389D+00
   s     1 1.00
  0.905900D+00  0.100000D+01
   s     1 1.00
  0.364300D+00  0.100000D+01
   p     5 1.00
  0.187100D+02  0.140310D-01
  0.413300D+01  0.868660D-01
  0.120000D+01  0.290216D+00
  0.382700D+00  0.501008D+00
  0.120900D+00  0.343406D+00
   p     1 1.00
  0.382700D+00  0.100000D+01
   p     1 1.00
  0.120900D+00  0.100000D+01
   d     1 1.00
  0.109700D+01  0.100000D+01
   d     1 1.00
  0.318000D+00  0.100000D+01
   f     1 1.00
  0.761000D+00  0.100000D+01
  
  6  0
   s    10 1.00
  0.823600D+04  0.531000D-03
  0.123500D+04  0.410800D-02
  0.280800D+03  0.210870D-01
  0.792700D+02  0.818530D-01
  0.255900D+02  0.234817D+00
  0.899700D+01  0.434401D+00
  0.331900D+01  0.346129D+00
  0.905900D+00  0.393780D-01
  0.364300D+00 -0.898300D-02
  0.128500D+00  0.238500D-02
   s    10 1.00
  0.823600D+04 -0.113000D-03
  0.123500D+04 -0.878000D-03
  0.280800D+03 -0.454000D-02
  0.792700D+02 -0.181330D-01
  0.255900D+02 -0.557600D-01
  0.899700D+01 -0.126895D+00
  0.331900D+01 -0.170352D+00
  0.905900D+00  0.140382D+00
  0.364300D+00  0.598684D+00
  0.128500D+00  0.395389D+00
   s     1 1.00
  0.905900D+00  0.100000D+01
   s     1 1.00
  0.364300D+00  0.100000D+01
   p     5 1.00
  0.187100D+02  0.140310D-01
  0.413300D+01  0.868660D-01
  0.120000D+01  0.290216D+00
  0.382700D+00  0.501008D+00
  0.120900D+00  0.343406D+00
   p     1 1.00
  0.382700D+00  0.100000D+01
   p     1 1.00
  0.120900D+00  0.100000D+01
   d     1 1.00
  0.109700D+01  0.100000D+01
   d     1 1.00
  0.318000D+00  0.100000D+01
   f     1 1.00
  0.761000D+00  0.100000D+01
  
  7  0
   s    10 1.00
  0.823600D+04  0.531000D-03
  0.123500D+04  0.410800D-02
  0.280800D+03  0.210870D-01
  0.792700D+02  0.818530D-01
  0.255900D+02  0.234817D+00
  0.899700D+01  0.434401D+00
  0.331900D+01  0.346129D+00
  0.905900D+00  0.393780D-01
  0.364300D+00 -0.898300D-02
  0.128500D+00  0.238500D-02
   s    10 1.00
  0.823600D+04 -0.113000D-03
  0.123500D+04 -0.878000D-03
  0.280800D+03 -0.454000D-02
  0.792700D+02 -0.181330D-01
  0.255900D+02 -0.557600D-01
  0.899700D+01 -0.126895D+00
  0.331900D+01 -0.170352D+00
  0.905900D+00  0.140382D+00
  0.364300D+00  0.598684D+00
  0.128500D+00  0.395389D+00
   s     1 1.00
  0.905900D+00  0.100000D+01
   s     1 1.00
  0.364300D+00  0.100000D+01
   p     5 1.00
  0.187100D+02  0.140310D-01
  0.413300D+01  0.868660D-01
  0.120000D+01  0.290216D+00
  0.382700D+00  0.501008D+00
  0.120900D+00  0.343406D+00
   p     1 1.00
  0.382700D+00  0.100000D+01
   p     1 1.00
  0.120900D+00  0.100000D+01
   d     1 1.00
  0.109700D+01  0.100000D+01
   d     1 1.00
  0.318000D+00  0.100000D+01
   f     1 1.00
  0.761000D+00  0.100000D+01
  
  8  0
   s     4 1.00
  0.130100D+02  0.196850D-01
  0.196200D+01  0.137977D+00
  0.444600D+00  0.478148D+00
  0.122000D+00  0.501240D+00
   s     1 1.00
  0.122000D+00  0.100000D+01
   p     1 1.00
  0.727000D+00  0.100000D+01
  
  9  0
   s     4 1.00
  0.130100D+02  0.196850D-01
  0.196200D+01  0.137977D+00
  0.444600D+00  0.478148D+00
  0.122000D+00  0.501240D+00
   s     1 1.00
  0.122000D+00  0.100000D+01
   p     1 1.00
  0.727000D+00  0.100000D+01
  
 10  0
   s     4 1.00
  0.130100D+02  0.196850D-01
  0.196200D+01  0.137977D+00
  0.444600D+00  0.478148D+00
  0.122000D+00  0.501240D+00
   s     1 1.00
  0.122000D+00  0.100000D+01
   p     1 1.00
  0.727000D+00  0.100000D+01
  
 11  0
   s     4 1.00
  0.130100D+02  0.196850D-01
  0.196200D+01  0.137977D+00
  0.444600D+00  0.478148D+00
  0.122000D+00  0.501240D+00
   s     1 1.00
  0.122000D+00  0.100000D+01
   p     1 1.00
  0.727000D+00  0.100000D+01
  
 12  0
   s     4 1.00
  0.130100D+02  0.196850D-01
  0.196200D+01  0.137977D+00
  0.444600D+00  0.478148D+00
  0.122000D+00  0.501240D+00
   s     1 1.00
  0.122000D+00  0.100000D+01
   p     1 1.00
  0.727000D+00  0.100000D+01
  
 13  0
   s     4 1.00
  0.130100D+02  0.196850D-01
  0.196200D+01  0.137977D+00
  0.444600D+00  0.478148D+00
  0.122000D+00  0.501240D+00
   s     1 1.00
  0.122000D+00  0.100000D+01
   p     1 1.00
  0.727000D+00  0.100000D+01
  
 14  0
   s     4 1.00
  0.130100D+02  0.196850D-01
  0.196200D+01  0.137977D+00
  0.444600D+00  0.478148D+00
  0.122000D+00  0.501240D+00
   s     1 1.00
  0.122000D+00  0.100000D+01
   p     1 1.00
  0.727000D+00  0.100000D+01
  
[MO]
 Sym= __1_A__
 Ene=   1.00000000000000     
 Spin= Alpha
 Occup=    1.00000000000000     
                     1 -1.852046017904851E-004
                     2  0.998431753996643     
                     3 -2.243712779383140E-002
                     4  1.334796969952987E-003
                     5  6.199711927979652E-003
                     6  1.114520302597172E-002
                     7 -7.788962118985575E-004
                     8  1.639826147543877E-002
                     9 -1.531835219316040E-003
                    10  4.573886635806010E-005
                    11 -1.478405464174234E-003
                    12 -3.805849863851014E-003
                    13 -4.722656479241469E-005
                    14 -5.227631867952635E-003
                    15  8.781074750858352E-005
                    16  1.150361177233273E-005
                    17 -1.997157890222045E-005
                    18  7.163755667374094E-005
                    19  5.145709381433864E-006
                    20  2.583391793740211E-004
                    21  7.556617522752865E-004
                    22 -3.507453226579461E-005
                    23  2.253663080740934E-004
                    24  1.706301009695634E-005
                    25  4.663498126423390E-005
                    26 -4.987367547532891E-005
                    27  9.717113270640882E-006
                    28  4.001033908483156E-005
                    29  1.991580050010311E-005
                    30 -1.399826613446037E-005
                    31  8.271946306130296E-006
                    32 -3.257983286963997E-004
                    33  4.426797809031452E-004
                    34  2.944481284209560E-004
                    35  4.003137713196256E-005
                    36  5.579505924669222E-004
                    37  5.479133842250361E-004
                    38 -1.545942044289488E-003
                    39 -3.500792963336360E-004
                    40 -1.361132359025910E-004
                    41  9.506188540744433E-004
                    42  4.381286708720947E-003
                    43  2.946767347827137E-004
                    44 -2.257961737729918E-003
                    45  4.977412629841057E-006
                    46 -1.919682568554137E-004
                    47 -1.367471757025141E-005
                    48 -2.069913195718510E-006
                    49  1.710299486226122E-005
                    50  2.673158346730126E-004
                    51  5.294721287314781E-004
                    52  1.067516433301731E-005
                    53 -1.668924903969670E-004
                    54 -3.117144435085975E-005
                    55  7.883943617041217E-005
                    56 -1.643490117798560E-005
                    57  1.165087600236364E-005
                    58  8.596400123756926E-005
                    59  2.203551431611114E-006
                    60 -5.925763696002279E-005
                    61 -8.207710921080874E-006
                    62 -8.970690332125384E-004
                    63 -7.994737604766539E-004
                    64 -1.679354359745957E-004
                    65  3.309361454494815E-003
                    66 -2.896674354956819E-003
                    67  6.865659132278986E-005
                    68  9.939164784846287E-004
                    69  8.281151474455664E-004
                    70 -4.467094526230233E-005
                    71  7.383746925651142E-004
                    72  1.518777751963818E-003
                    73  3.081120720109129E-004
                    74 -2.221161483881515E-003
                    75  7.151126410577100E-005
                    76 -9.291588696536247E-005
                    77 -1.841812837359334E-005
                    78  4.818344089958106E-005
                    79  1.262674050106372E-005
                    80  3.565496939242984E-004
                    81 -2.004264296791771E-004
                    82 -6.556819217225160E-005
                    83 -1.460610943040884E-006
                    84  1.662050102202184E-005
                    85 -2.855117808839677E-005
                    86 -1.883773537264655E-004
                    87 -1.709050631292207E-005
                    88  1.891934133128432E-005
                    89  2.142908552343598E-005
                    90 -7.417461152366188E-005
                    91  6.631628248526250E-006
                    92 -1.511591119212289E-007
                    93 -4.602619633039778E-004
                    94  3.202405523462329E-004
                    95 -1.209135628599342E-003
                    96 -1.998368838297021E-004
                    97  2.689218898936639E-005
                    98  9.578467931756434E-004
                    99  1.490847501087380E-004
                   100 -7.955484577744187E-005
                   101  3.909980115248856E-004
                   102 -1.976293099248530E-003
                   103 -3.160166507880190E-005
                   104  2.103776329790697E-004
                   105 -2.791281150677596E-005
                   106 -3.219334212685697E-005
                   107 -7.913717988360733E-007
                   108  2.638426462822596E-005
                   109  4.308204961030601E-006
                   110 -1.573852555636629E-004
                   111  1.298902996745680E-004
                   112  5.091089412039028E-005
                   113 -1.312452637790919E-004
                   114 -2.830323548606321E-005
                   115 -2.800151005411628E-005
                   116  4.061268788723162E-005
                   117 -8.606077888376701E-006
                   118 -1.106726078558316E-006
                   119 -8.186369043321544E-006
                   120  3.872039380514814E-006
                   121  1.261918106836723E-006
                   122 -3.317773099603428E-004
                   123 -1.838666372296637E-003
                   124  1.656392501289102E-004
                   125  7.816551276397290E-004
                   126  1.289018768683179E-003
                   127  1.631380974570177E-004
                   128 -1.684676171885536E-004
                   129  5.133033608808841E-004
                   130 -3.100400600866702E-005
                   131  3.710674215998390E-004
                   132  1.887346975716187E-003
                   133 -1.755327290123423E-005
                   134  6.223449454269948E-004
                   135  6.872678416892614E-005
                   136 -2.720926359559127E-005
                   137 -8.942556520489277E-006
                   138 -5.729827863782644E-005
                   139 -5.157436367733387E-006
                   140  2.498818318296385E-004
                   141  2.042284700932066E-004
                   142  1.313572090156587E-006
                   143 -4.113664102282522E-004
                   144 -6.141550617301769E-005
                   145 -1.968970672050376E-005
                   146 -4.606445531254409E-005
                   147 -8.712817606439309E-006
                   148  5.979150850178774E-006
                   149 -6.238885857545960E-006
                   150 -1.001159194136776E-004
                   151  9.762269509073107E-006
                   152 -1.710364105043426E-004
                   153 -4.938174088841390E-004
                   154 -5.909436462445944E-005
                   155  7.164074747136671E-004
                   156  2.877817217864673E-004
                   157 -3.900374076664994E-005
                   158 -1.724378930248271E-005
                   159 -2.710233001000360E-004
                   160 -1.077772201641494E-005
                   161  7.826748108136446E-005
                   162 -6.243054141189363E-004
                   163 -1.664277854159959E-004
                   164  8.648981524184212E-004
                   165 -9.903466480822016E-006
                   166 -1.086219816611274E-005
                   167  5.401052317044143E-008
                   168  1.941574058766145E-005
                   169 -2.911504072058997E-006
                   170 -4.014048686560291E-005
                   171  6.096532725617140E-005
                   172  1.615657620320257E-005
                   173 -3.459293303252940E-005
                   174 -9.538713584141931E-006
                   175 -7.560305879148700E-006
                   176 -9.595578217252062E-006
                   177 -1.807522531298457E-006
                   178 -9.556866335291863E-006
                   179  2.414598670726947E-006
                   180  2.509368651635319E-006
                   181  2.152705906171180E-006
                   182 -1.512200445511674E-004
                   183 -3.334600883640751E-004
                   184  3.676689286134037E-005
                   185  2.579671443977123E-004
                   186 -1.957453157685933E-004
                   187 -7.037178524146859E-005
                   188 -4.854407102200030E-005
                   189  1.506614239342115E-004
                   190 -4.522282104493580E-005
                   191  3.919761347845217E-004
                   192 -5.292960165510934E-004
                   193 -2.092722667329526E-004
                   194  1.503832170445929E-003
                   195  2.028185187336451E-005
                   196 -4.770102910365790E-006
                   197 -6.152280669860849E-006
                   198 -1.260360419699716E-005
                   199 -3.651803337541509E-007
                   200 -7.706770962117877E-005
                   201 -2.854473424501808E-004
                   202  1.581404827218340E-006
                   203  2.519847816559564E-005
                   204  3.350547516111662E-005
                   205  1.706611766105587E-006
                   206  6.943243808956934E-006
                   207 -3.499125926093873E-006
                   208  1.710874545752402E-005
                   209 -2.561851241226285E-007
                   210 -5.454149168914201E-006
                   211 -1.877495029350853E-006
                   212 -7.892431224259917E-004
                   213  9.531392583262779E-004
                   214  8.698629153752566E-005
                   215 -4.876806032997759E-005
                   216  2.524480721960747E-005
                   217 -1.467070919913425E-003
                   218  9.656704989710493E-004
                   219  1.152153994610402E-004
                   220 -1.017114934381274E-005
                   221  3.658447418551988E-005
                   222  8.025397219269001E-004
                   223 -1.327003226973417E-003
                   224 -6.562777910636966E-005
                   225 -1.028339702118779E-005
                   226  1.196140233144859E-004
                   227  7.481870604147523E-004
                   228 -6.629027143054442E-004
                   229 -6.386746358351108E-006
                   230  1.190034933140514E-005
                   231 -1.022977116428343E-004
                   232  7.401323293327262E-004
                   233 -4.342595188901693E-004
                   234 -5.232889210473352E-006
                   235 -3.783052296555695E-006
                   236  4.474974333835776E-005
                   237 -3.190614861253961E-005
                   238 -4.374934304908978E-004
                   239 -6.053815804004803E-006
                   240 -1.583817446658574E-006
                   241  5.258444265974946E-006
                   242 -3.026010551643260E-004
                   243  2.011923795347514E-004
                   244  3.993664752629524E-005
                   245 -1.000477068136743E-006
                   246 -1.074009125847823E-006
 Sym= __2_A__
 Ene=   2.00000000000000     
 Spin= Alpha
 Occup=    1.00000000000000     
                     1 -2.367487771957197E-005
                     2 -1.116030292224228E-004
                     3  4.743313160171636E-004
                     4 -1.062976257264460E-005
                     5  9.572301349781323E-004
                     6  1.676410485465686E-003
                     7 -1.058703063097449E-004
                     8  6.760405858669639E-004
                     9 -1.367957718897740E-004
                    10 -4.551061904674973E-006
                    11 -7.939794502071632E-005
                    12  1.281663069286137E-004
                    13  2.208596702064890E-005
                    14 -1.243391289550043E-004
                    15 -4.983848079881119E-005
                    16  2.889422338270942E-005
                    17  3.578372951321952E-006
                    18  5.593482983161240E-005
                    19 -8.200292808625145E-007
                    20  2.827079656503718E-005
                    21 -5.126672938463933E-005
                    22 -1.543701827158301E-005
                    23  1.127973507622583E-004
                    24  1.943021208692487E-005
                    25 -2.559068824437706E-005
                    26  1.215728837491908E-004
                    27  1.167287298670080E-005
                    28 -5.978434688633464E-005
                    29 -1.088003047268412E-005
                    30  9.936824104932189E-005
                    31 -2.148983180331609E-006
                    32   1.00079508095477     
                    33  8.649864336790566E-003
                    34  2.838318893139223E-003
                    35 -8.442667060894851E-003
                    36 -1.432438342620830E-003
                    37 -1.358103130222932E-004
                    38  1.455426082442513E-005
                    39  5.410795374821073E-004
                    40  1.197610557190470E-004
                    41 -3.357475443657290E-004
                    42  2.535430018218271E-003
                    43  6.260498193595500E-005
                    44  3.427692352320882E-004
                    45  3.092486042229108E-004
                    46  5.355386649356447E-007
                    47 -1.033960734234889E-004
                    48  3.242762393209224E-004
                    49  1.390553822848511E-005
                    50 -1.018744124759458E-003
                    51 -3.411820263601894E-004
                    52  2.151249580725726E-004
                    53 -9.911451085984669E-005
                    54  3.820733039117171E-005
                    55 -3.086540450318957E-005
                    56  2.551605074357190E-004
                    57  7.072114355448882E-006
                    58 -3.169180061578874E-005
                    59 -3.686894925757694E-005
                    60  7.855685644044878E-005
                    61 -1.501259964906123E-006
                    62  1.824027739393932E-002
                    63 -1.487454671730718E-003
                    64 -2.872806867987518E-004
                    65  2.788192695399790E-003
                    66 -2.701131345868237E-004
                    67 -4.766965116213483E-005
                    68  3.806180250324266E-004
                    69  1.011933989325988E-005
                    70 -4.504394560307431E-005
                    71  3.374358910514014E-004
                    72  2.058395117415596E-004
                    73  2.175324212341484E-004
                    74 -1.768519241017285E-003
                    75  8.454120754663492E-006
                    76  2.108994890328379E-005
                    77  3.831259672113701E-006
                    78 -4.321623685914502E-005
                    79 -4.432586497026395E-006
                    80 -5.365545697079949E-004
                    81 -3.612700686572673E-004
                    82 -9.172038890490179E-007
                    83  8.025392906191556E-004
                    84  9.182444160294325E-005
                    85  3.508397035315047E-005
                    86  1.113695277372132E-004
                    87  1.879375545415328E-005
                    88 -2.860195028774502E-005
                    89 -2.597527871766078E-005
                    90 -2.636621438917079E-005
                    91  6.423199975518821E-006
                    92  1.902403625242761E-002
                    93 -1.770621342768547E-003
                    94 -3.348204158239610E-004
                    95  3.381363346838157E-003
                    96 -1.919133124976408E-004
                    97  2.687625634110096E-005
                    98 -2.833009859268353E-004
                    99 -1.139583843028721E-004
                   100  8.924554769117380E-005
                   101 -8.202894417323541E-004
                   102  2.812498793400939E-004
                   103 -1.715483069350783E-004
                   104  1.492254681817295E-003
                   105  3.055130639050473E-006
                   106 -4.636648573051283E-007
                   107  2.103283438285003E-006
                   108 -2.028608846333170E-005
                   109 -7.191829596976810E-007
                   110 -1.431640910556969E-004
                   111  5.060029399564841E-004
                   112 -2.220152873918585E-005
                   113  6.079884559442968E-004
                   114 -2.313655446317676E-005
                   115 -4.252428106411727E-005
                   116  8.719930279694688E-005
                   117 -1.545708815676978E-005
                   118  1.804267095059471E-005
                   119 -2.113305774954711E-005
                   120 -2.885975510780363E-005
                   121 -6.669987495260978E-007
                   122  2.919494493001188E-005
                   123 -6.947110500396540E-004
                   124  2.413123871972299E-004
                   125 -3.965582713979017E-004
                   126 -1.258176947033780E-004
                   127  3.754458981346890E-006
                   128 -4.833645690304372E-005
                   129  6.293562668088169E-004
                   130  1.323975825779234E-005
                   131  4.860518111789131E-005
                   132  3.599284978513156E-004
                   133 -3.755953283268470E-005
                   134  4.110404429406263E-004
                   135  1.448522692119051E-006
                   136  3.609954805143320E-005
                   137  5.081718064119518E-006
                   138 -3.811962668766952E-005
                   139 -6.799674352427755E-006
                   140  1.839023178030544E-004
                   141 -2.711549434810931E-004
                   142 -1.822235576827615E-005
                   143 -2.216138900489422E-004
                   144  1.894538085814839E-005
                   145 -1.081072488867534E-005
                   146  1.381087900202757E-005
                   147 -1.988449441728745E-006
                   148 -4.087911489238214E-006
                   149 -6.018816844029655E-006
                   150 -2.028568328577044E-005
                   151  2.676658504452177E-006
                   152  9.272430568888423E-005
                   153 -7.315249503389144E-004
                   154  2.277009386676190E-004
                   155 -1.261110628928316E-004
                   156 -1.511420355270992E-004
                   157 -1.334160466527358E-005
                   158  2.806568558173114E-005
                   159  4.834469191325216E-004
                   160  1.376508754964007E-005