[Molden Format]
[Atoms] AU
  N     1    7    -4.4759662800    0.1572704100   -0.2360249700        
  C     2    6    -1.7555168000    0.0174609000   -0.1062475400        
  C     3    6    -0.3748721400    0.2003568000   -2.3410281600        
  C     4    6    -0.4591202800   -0.1479177000    2.1774112400        
  C     5    6     2.2369814400    0.1650388000   -2.2848992800        
  C     6    6     2.1603495700   -0.1317823000    2.2200817600        
  C     7    6     3.5171225200    0.0120847500   -0.0061980200        
  H     8    1    -5.1724635900   -1.5835638300   -0.7636130800        
  H     9    1    -5.1274978700    0.4120078400    1.5763837800        
  H    10    1    -1.3609518700    0.3844892400   -4.1014723000        
  H    11    1    -1.4945816800   -0.3039812300    3.9147751400        
  H    12    1     3.2779057100    0.2939664200   -4.0217060900        
  H    13    1     3.1327199400   -0.2519860700    3.9971283400        
  H    14    1     5.5453341700    0.0099751400    0.0288810400        
[5D]
[7F]
[GTO]
  1  0
   s    12 1.00
  0.114200D+05  0.172695D-04
  0.171200D+04  0.134411D-03
  0.389300D+03  0.694561D-03
  0.110000D+03  0.278531D-02
  0.355700D+02  0.863457D-02
  0.125400D+02  0.199805D-01
  0.464400D+01  0.262908D-01
  0.129300D+01 -0.243845D-01
  0.511800D+00 -0.924934D-01
  0.178700D+00 -0.339683D+00
  0.246240D-01  0.345111D+00
  0.112530D-01  0.752750D+00
   s    10 1.00
  0.114200D+05  0.523000D-03
  0.171200D+04  0.404500D-02
  0.389300D+03  0.207750D-01
  0.110000D+03  0.807269D-01
  0.355700D+02  0.233074D+00
  0.125400D+02  0.433501D+00
  0.464400D+01  0.347472D+00
  0.129300D+01  0.412620D-01
  0.511800D+00 -0.850799D-02
  0.178700D+00  0.238400D-02
   s    10 1.00
  0.114200D+05 -0.115000D-03
  0.171200D+04 -0.895000D-03
  0.389300D+03 -0.462400D-02
  0.110000D+03 -0.185280D-01
  0.355700D+02 -0.573390D-01
  0.125400D+02 -0.132076D+00
  0.464400D+01 -0.172510D+00
  0.129300D+01  0.151814D+00
  0.511800D+00  0.599944D+00
  0.178700D+00  0.387462D+00
   s     1 1.00
  0.129300D+01  0.100000D+01
   s     1 1.00
  0.178700D+00  0.100000D+01
   p     5 1.00
  0.266300D+02  0.146700D-01
  0.594800D+01  0.917640D-01
  0.174200D+01  0.298683D+00
  0.555000D+00  0.498487D+00
  0.172500D+00  0.337023D+00
   p     1 1.00
  0.174200D+01  0.100000D+01
   p     1 1.00
  0.555000D+00  0.100000D+01
   d     1 1.00
  0.165400D+01  0.100000D+01
   d     1 1.00
  0.469000D+00  0.100000D+01
   f     1 1.00
  0.109300D+01  0.100000D+01
  
  2  0
   s    10 1.00
  0.823600D+04  0.531000D-03
  0.123500D+04  0.410800D-02
  0.280800D+03  0.210870D-01
  0.792700D+02  0.818530D-01
  0.255900D+02  0.234817D+00
  0.899700D+01  0.434401D+00
  0.331900D+01  0.346129D+00
  0.905900D+00  0.393780D-01
  0.364300D+00 -0.898300D-02
  0.128500D+00  0.238500D-02
   s    10 1.00
  0.823600D+04 -0.113000D-03
  0.123500D+04 -0.878000D-03
  0.280800D+03 -0.454000D-02
  0.792700D+02 -0.181330D-01
  0.255900D+02 -0.557600D-01
  0.899700D+01 -0.126895D+00
  0.331900D+01 -0.170352D+00
  0.905900D+00  0.140382D+00
  0.364300D+00  0.598684D+00
  0.128500D+00  0.395389D+00
   s     1 1.00
  0.905900D+00  0.100000D+01
   s     1 1.00
  0.364300D+00  0.100000D+01
   p     5 1.00
  0.187100D+02  0.140310D-01
  0.413300D+01  0.868660D-01
  0.120000D+01  0.290216D+00
  0.382700D+00  0.501008D+00
  0.120900D+00  0.343406D+00
   p     1 1.00
  0.382700D+00  0.100000D+01
   p     1 1.00
  0.120900D+00  0.100000D+01
   d     1 1.00
  0.109700D+01  0.100000D+01
   d     1 1.00
  0.318000D+00  0.100000D+01
   f     1 1.00
  0.761000D+00  0.100000D+01
  
  3  0
   s    10 1.00
  0.823600D+04  0.531000D-03
  0.123500D+04  0.410800D-02
  0.280800D+03  0.210870D-01
  0.792700D+02  0.818530D-01
  0.255900D+02  0.234817D+00
  0.899700D+01  0.434401D+00
  0.331900D+01  0.346129D+00
  0.905900D+00  0.393780D-01
  0.364300D+00 -0.898300D-02
  0.128500D+00  0.238500D-02
   s    10 1.00
  0.823600D+04 -0.113000D-03
  0.123500D+04 -0.878000D-03
  0.280800D+03 -0.454000D-02
  0.792700D+02 -0.181330D-01
  0.255900D+02 -0.557600D-01
  0.899700D+01 -0.126895D+00
  0.331900D+01 -0.170352D+00
  0.905900D+00  0.140382D+00
  0.364300D+00  0.598684D+00
  0.128500D+00  0.395389D+00
   s     1 1.00
  0.905900D+00  0.100000D+01
   s     1 1.00
  0.364300D+00  0.100000D+01
   p     5 1.00
  0.187100D+02  0.140310D-01
  0.413300D+01  0.868660D-01
  0.120000D+01  0.290216D+00
  0.382700D+00  0.501008D+00
  0.120900D+00  0.343406D+00
   p     1 1.00
  0.382700D+00  0.100000D+01
   p     1 1.00
  0.120900D+00  0.100000D+01
   d     1 1.00
  0.109700D+01  0.100000D+01
   d     1 1.00
  0.318000D+00  0.100000D+01
   f     1 1.00
  0.761000D+00  0.100000D+01
  
  4  0
   s    10 1.00
  0.823600D+04  0.531000D-03
  0.123500D+04  0.410800D-02
  0.280800D+03  0.210870D-01
  0.792700D+02  0.818530D-01
  0.255900D+02  0.234817D+00
  0.899700D+01  0.434401D+00
  0.331900D+01  0.346129D+00
  0.905900D+00  0.393780D-01
  0.364300D+00 -0.898300D-02
  0.128500D+00  0.238500D-02
   s    10 1.00
  0.823600D+04 -0.113000D-03
  0.123500D+04 -0.878000D-03
  0.280800D+03 -0.454000D-02
  0.792700D+02 -0.181330D-01
  0.255900D+02 -0.557600D-01
  0.899700D+01 -0.126895D+00
  0.331900D+01 -0.170352D+00
  0.905900D+00  0.140382D+00
  0.364300D+00  0.598684D+00
  0.128500D+00  0.395389D+00
   s     1 1.00
  0.905900D+00  0.100000D+01
   s     1 1.00
  0.364300D+00  0.100000D+01
   p     5 1.00
  0.187100D+02  0.140310D-01
  0.413300D+01  0.868660D-01
  0.120000D+01  0.290216D+00
  0.382700D+00  0.501008D+00
  0.120900D+00  0.343406D+00
   p     1 1.00
  0.382700D+00  0.100000D+01
   p     1 1.00
  0.120900D+00  0.100000D+01
   d     1 1.00
  0.109700D+01  0.100000D+01
   d     1 1.00
  0.318000D+00  0.100000D+01
   f     1 1.00
  0.761000D+00  0.100000D+01
  
  5  0
   s    10 1.00
  0.823600D+04  0.531000D-03
  0.123500D+04  0.410800D-02
  0.280800D+03  0.210870D-01
  0.792700D+02  0.818530D-01
  0.255900D+02  0.234817D+00
  0.899700D+01  0.434401D+00
  0.331900D+01  0.346129D+00
  0.905900D+00  0.393780D-01
  0.364300D+00 -0.898300D-02
  0.128500D+00  0.238500D-02
   s    10 1.00
  0.823600D+04 -0.113000D-03
  0.123500D+04 -0.878000D-03
  0.280800D+03 -0.454000D-02
  0.792700D+02 -0.181330D-01
  0.255900D+02 -0.557600D-01
  0.899700D+01 -0.126895D+00
  0.331900D+01 -0.170352D+00
  0.905900D+00  0.140382D+00
  0.364300D+00  0.598684D+00
  0.128500D+00  0.395389D+00
   s     1 1.00
  0.905900D+00  0.100000D+01
   s     1 1.00
  0.364300D+00  0.100000D+01
   p     5 1.00
  0.187100D+02  0.140310D-01
  0.413300D+01  0.868660D-01
  0.120000D+01  0.290216D+00
  0.382700D+00  0.501008D+00
  0.120900D+00  0.343406D+00
   p     1 1.00
  0.382700D+00  0.100000D+01
   p     1 1.00
  0.120900D+00  0.100000D+01
   d     1 1.00
  0.109700D+01  0.100000D+01
   d     1 1.00
  0.318000D+00  0.100000D+01
   f     1 1.00
  0.761000D+00  0.100000D+01
  
  6  0
   s    10 1.00
  0.823600D+04  0.531000D-03
  0.123500D+04  0.410800D-02
  0.280800D+03  0.210870D-01
  0.792700D+02  0.818530D-01
  0.255900D+02  0.234817D+00
  0.899700D+01  0.434401D+00
  0.331900D+01  0.346129D+00
  0.905900D+00  0.393780D-01
  0.364300D+00 -0.898300D-02
  0.128500D+00  0.238500D-02
   s    10 1.00
  0.823600D+04 -0.113000D-03
  0.123500D+04 -0.878000D-03
  0.280800D+03 -0.454000D-02
  0.792700D+02 -0.181330D-01
  0.255900D+02 -0.557600D-01
  0.899700D+01 -0.126895D+00
  0.331900D+01 -0.170352D+00
  0.905900D+00  0.140382D+00
  0.364300D+00  0.598684D+00
  0.128500D+00  0.395389D+00
   s     1 1.00
  0.905900D+00  0.100000D+01
   s     1 1.00
  0.364300D+00  0.100000D+01
   p     5 1.00
  0.187100D+02  0.140310D-01
  0.413300D+01  0.868660D-01
  0.120000D+01  0.290216D+00
  0.382700D+00  0.501008D+00
  0.120900D+00  0.343406D+00
   p     1 1.00
  0.382700D+00  0.100000D+01
   p     1 1.00
  0.120900D+00  0.100000D+01
   d     1 1.00
  0.109700D+01  0.100000D+01
   d     1 1.00
  0.318000D+00  0.100000D+01
   f     1 1.00
  0.761000D+00  0.100000D+01
  
  7  0
   s    10 1.00
  0.823600D+04  0.531000D-03
  0.123500D+04  0.410800D-02
  0.280800D+03  0.210870D-01
  0.792700D+02  0.818530D-01
  0.255900D+02  0.234817D+00
  0.899700D+01  0.434401D+00
  0.331900D+01  0.346129D+00
  0.905900D+00  0.393780D-01
  0.364300D+00 -0.898300D-02
  0.128500D+00  0.238500D-02
   s    10 1.00
  0.823600D+04 -0.113000D-03
  0.123500D+04 -0.878000D-03
  0.280800D+03 -0.454000D-02
  0.792700D+02 -0.181330D-01
  0.255900D+02 -0.557600D-01
  0.899700D+01 -0.126895D+00
  0.331900D+01 -0.170352D+00
  0.905900D+00  0.140382D+00
  0.364300D+00  0.598684D+00
  0.128500D+00  0.395389D+00
   s     1 1.00
  0.905900D+00  0.100000D+01
   s     1 1.00
  0.364300D+00  0.100000D+01
   p     5 1.00
  0.187100D+02  0.140310D-01
  0.413300D+01  0.868660D-01
  0.120000D+01  0.290216D+00
  0.382700D+00  0.501008D+00
  0.120900D+00  0.343406D+00
   p     1 1.00
  0.382700D+00  0.100000D+01
   p     1 1.00
  0.120900D+00  0.100000D+01
   d     1 1.00
  0.109700D+01  0.100000D+01
   d     1 1.00
  0.318000D+00  0.100000D+01
   f     1 1.00
  0.761000D+00  0.100000D+01
  
  8  0
   s     4 1.00
  0.130100D+02  0.196850D-01
  0.196200D+01  0.137977D+00
  0.444600D+00  0.478148D+00
  0.122000D+00  0.501240D+00
   s     1 1.00
  0.122000D+00  0.100000D+01
   p     1 1.00
  0.727000D+00  0.100000D+01
  
  9  0
   s     4 1.00
  0.130100D+02  0.196850D-01
  0.196200D+01  0.137977D+00
  0.444600D+00  0.478148D+00
  0.122000D+00  0.501240D+00
   s     1 1.00
  0.122000D+00  0.100000D+01
   p     1 1.00
  0.727000D+00  0.100000D+01
  
 10  0
   s     4 1.00
  0.130100D+02  0.196850D-01
  0.196200D+01  0.137977D+00
  0.444600D+00  0.478148D+00
  0.122000D+00  0.501240D+00
   s     1 1.00
  0.122000D+00  0.100000D+01
   p     1 1.00
  0.727000D+00  0.100000D+01
  
 11  0
   s     4 1.00
  0.130100D+02  0.196850D-01
  0.196200D+01  0.137977D+00
  0.444600D+00  0.478148D+00
  0.122000D+00  0.501240D+00
   s     1 1.00
  0.122000D+00  0.100000D+01
   p     1 1.00
  0.727000D+00  0.100000D+01
  
 12  0
   s     4 1.00
  0.130100D+02  0.196850D-01
  0.196200D+01  0.137977D+00
  0.444600D+00  0.478148D+00
  0.122000D+00  0.501240D+00
   s     1 1.00
  0.122000D+00  0.100000D+01
   p     1 1.00
  0.727000D+00  0.100000D+01
  
 13  0
   s     4 1.00
  0.130100D+02  0.196850D-01
  0.196200D+01  0.137977D+00
  0.444600D+00  0.478148D+00
  0.122000D+00  0.501240D+00
   s     1 1.00
  0.122000D+00  0.100000D+01
   p     1 1.00
  0.727000D+00  0.100000D+01
  
 14  0
   s     4 1.00
  0.130100D+02  0.196850D-01
  0.196200D+01  0.137977D+00
  0.444600D+00  0.478148D+00
  0.122000D+00  0.501240D+00
   s     1 1.00
  0.122000D+00  0.100000D+01
   p     1 1.00
  0.727000D+00  0.100000D+01
  
[MO]
 Sym= __1_A__
 Ene=   1.00000000000000     
 Spin= Alpha
 Occup=    1.00000000000000     
                     1  2.278813967492761E-004
                     2  0.998103521202845     
                     3 -1.265574233708402E-004
                     4  1.941394560576618E-003
                     5  6.576605508918089E-003
                     6  6.079144225026932E-003
                     7 -4.191219419184439E-003
                     8  4.842760935303072E-003
                     9 -9.358985778503841E-004
                    10  3.306712272105084E-004
                    11 -5.834311507544642E-004
                    12 -1.862726181732482E-003
                    13  2.692578342452684E-003
                    14 -2.760976314890719E-003
                    15  7.044705097450711E-006
                    16 -6.430895461257758E-005
                    17 -2.637130226688997E-005
                    18  4.070938559576426E-005
                    19  3.742579302142212E-005
                    20 -2.070834581487242E-004
                    21  4.838483584767242E-004
                    22 -2.207469833174780E-004
                    23  1.517921863729488E-004
                    24 -3.776359550320330E-004
                    25 -3.268354819824683E-005
                    26 -1.029233432712181E-004
                    27  4.566799196123100E-005
                    28  5.252090859125334E-005
                    29 -1.223181948401812E-005
                    30 -9.978737584533752E-005
                    31 -1.514159688892611E-005
                    32 -3.369122963223142E-004
                    33  5.641648774442904E-004
                    34  2.559760060220777E-004
                    35 -6.254349843072732E-005
                    36 -3.229912876276888E-003
                    37 -2.523983687526961E-004
                    38 -2.522720304592425E-004
                    39  2.026202649298580E-004
                    40 -8.713344348889279E-005
                    41  8.271366520769732E-004
                    42  4.745414293893156E-003
                    43  7.499737163877573E-004
                    44 -3.289418955537251E-003
                    45 -1.768302088741136E-004
                    46  2.529394002200414E-005
                    47  1.374035636316432E-005
                    48  1.760861986534519E-004
                    49  3.871434609711347E-005
                    50  5.332556296476057E-004
                    51  6.509579482670882E-004
                    52 -9.594800115163034E-005
                    53 -1.439299811140154E-004
                    54 -3.263541765659013E-004
                    55  3.836849508662615E-005
                    56 -4.409353885926825E-005
                    57 -1.745751515484622E-006
                    58  3.861563879586910E-005
                    59  1.598330788713795E-006
                    60 -3.471958403712484E-005
                    61  1.725052328456820E-005
                    62 -7.035899404671620E-004
                    63 -2.668327801632772E-003
                    64 -4.618046978425742E-005
                    65  2.457357243231549E-003
                    66  1.766434506617443E-004
                    67 -1.553423225821905E-004
                    68 -5.151557959397089E-004
                    69  8.647309404704644E-004
                    70  4.837376985113610E-006
                    71  5.909840323294835E-004
                    72  1.576664523640631E-003
                    73 -8.872434970473155E-005
                    74 -1.497107444217853E-003
                    75 -5.998571057273192E-005
                    76 -3.606469683219951E-005
                    77  1.165614340772685E-005
                    78  7.903899468566078E-005
                    79 -7.806149354017118E-007
                    80  4.276637008050223E-004
                    81  1.885903089593299E-004
                    82 -7.832352473363590E-005
                    83 -5.873798875519198E-005
                    84  7.099948520510589E-006
                    85 -2.361071957603098E-005
                    86 -1.351212274776811E-004
                    87  1.276259877185586E-005
                    88  7.184742508672868E-006
                    89  1.733820789370523E-005
                    90 -7.126122938451290E-005
                    91 -1.090500487020938E-005
                    92 -3.036024473546279E-005
                    93 -5.011484126280293E-004
                    94  2.697466059101853E-004
                    95 -8.766559767150523E-004
                    96  4.276053460486764E-004
                    97 -1.853386894270324E-004
                    98  3.151514789065972E-004
                    99  2.637072047190115E-004
                   100  4.364415138553141E-005
                   101  4.008402451373413E-004
                   102 -2.342985260252667E-003
                   103 -1.955743952720899E-004
                   104  1.600321864551711E-004
                   105 -5.777367826107363E-005
                   106 -3.386665013634464E-006
                   107 -3.632971450172382E-006
                   108  3.580678821683346E-005
                   109 -5.712952860335250E-006
                   110 -6.694960629628417E-005
                   111 -2.071778160216371E-004
                   112  2.087269306470040E-005
                   113 -2.317219140075862E-004
                   114  5.139816338264931E-005
                   115 -1.994740715457556E-005
                   116  3.476452330449856E-005
                   117  1.287519822696309E-005
                   118  1.847482496475044E-005
                   119 -1.147623529624160E-005
                   120 -1.279538316506551E-005
                   121 -6.685477718171625E-006
                   122 -3.073766306563540E-004
                   123 -8.073142087103226E-004
                   124  1.091737659526703E-004
                   125  8.877939819341204E-004
                   126 -4.006899481317619E-004
                   127 -5.068154864896798E-005
                   128 -3.207337143790734E-005
                   129  5.533766635609714E-004
                   130 -2.910487840664438E-005
                   131  2.679208291609104E-004
                   132  2.790971858726319E-003
                   133  5.066892579780249E-005
                   134  4.501101514022642E-004
                   135  3.065853438686874E-005
                   136  1.258998244250513E-007
                   137 -4.863029902489107E-006
                   138 -1.669522194219384E-005
                   139  8.773593679051165E-006
                   140  2.474587240254787E-004
                   141  3.682513022594831E-004
                   142  1.476083850143164E-006
                   143 -3.782169555212456E-004
                   144 -2.790547082234104E-005
                   145 -3.606477368133401E-005
                   146 -2.301038161329770E-005
                   147 -3.132211095198741E-006
                   148 -1.395855681782824E-005
                   149 -5.041985778221977E-006
                   150 -8.218443144611848E-005
                   151 -1.923061289622295E-006
                   152 -1.377448153324610E-004
                   153 -2.459340183628198E-004
                   154 -3.029000378154170E-005
                   155  4.958066611978106E-004
                   156 -3.194708219168204E-004
                   157 -3.744201083621808E-005
                   158 -5.813491060880578E-005
                   159 -1.886444351109979E-004
                   160 -3.503927615080658E-005
                   161  2.429969253716929E-004
                   162 -1.099076881797484E-003
                   163  5.653237528163708E-006
                   164  9.241219882859356E-004
                   165 -1.885064435922040E-005
                   166  8.786249700938215E-006
                   167  2.353928709141361E-006
                   168  1.723869449594735E-005
                   169  5.347092110161283E-006
                   170 -8.260082422650435E-005
                   171 -2.197642328507391E-005
                   172  1.139927907081155E-005
                   173  3.226805932829760E-005
                   174  7.778730681158202E-006
                   175 -1.211067266727527E-005
                   176 -5.083855191594829E-006
                   177  4.066582368618854E-007
                   178 -6.776494855655034E-006
                   179  2.217908613145748E-007
                   180 -2.365130747700465E-006
                   181 -3.251394128257538E-006
                   182 -1.537729443306752E-004
                   183 -4.773930389983647E-004
                   184  3.700154629174862E-005
                   185  1.982925201642936E-004
                   186 -1.941137235746583E-005
                   187 -6.965772869012089E-006
                   188 -8.711131809625535E-005
                   189  9.106178536690277E-005
                   190 -1.193108253380950E-005
                   191  3.918686872428921E-004
                   192 -4.256877300743251E-004
                   193 -1.803228558198467E-004
                   194  2.130451247155285E-003
                   195 -6.442882946660920E-006
                   196  4.460416265379740E-006
                   197  3.809386842936484E-007
                   198  1.701365863560831E-006
                   199 -3.470943273273810E-007
                   200 -1.303036073442692E-004
                   201 -3.210775245903436E-004
                   202  1.382012459264339E-005
                   203  6.603944426778734E-005
                   204  2.737181475891274E-005
                   205  3.604627985432514E-006
                   206  3.136165832390460E-006
                   207 -3.508314172402680E-007
                   208  2.471815902584688E-005
                   209 -1.967735468368667E-006
                   210 -4.608236324218311E-006
                   211 -3.241974853902534E-006
                   212  1.177536144016658E-003
                   213 -1.431031981900364E-003
                   214  1.175178706052961E-004
                   215  3.487379771267608E-004
                   216  4.152896864039668E-005
                   217  1.955282519247340E-003
                   218 -1.778267281047393E-003
                   219  1.595508355178437E-004
                   220  1.904513214686292E-005
                   221 -4.347431516915507E-004
                   222 -4.565813903635358E-004
                   223 -2.172262586985351E-004
                   224 -9.708939804435525E-005
                   225  3.653373085456237E-006
                   226  4.173962287681923E-005
                   227 -2.758513086776499E-004
                   228 -5.234642681391058E-004
                   229 -2.896080586773417E-005
                   230  1.427413007708574E-005
                   231 -5.042880866240313E-005
                   232  1.864873441933369E-005
                   233 -7.113013637469891E-004
                   234 -1.724256335802352E-006
                   235 -1.330506033460814E-006
                   236  3.528858964356568E-006
                   237 -1.228341791209996E-004
                   238 -2.501242841724311E-004
                   239  1.898218511251192E-005
                   240 -3.718932439182119E-006
                   241  2.162091149749535E-005
                   242 -1.629943299704340E-005
                   243  1.208651842217575E-004
                   244  3.051262953897696E-005
                   245  1.710482756211536E-006
                   246  1.701923571620636E-006
 Sym= __2_A__
 Ene=   2.00000000000000     
 Spin= Alpha
 Occup=    1.00000000000000     
                     1 -2.897998596720712E-006
                     2 -8.897027138933029E-005
                     3  1.538887013307776E-003
                     4 -2.214258466655220E-005
                     5  1.191994258898803E-003
                     6  1.578474917368664E-003
                     7 -3.308866194979135E-005
                     8 -1.908311748053428E-004
                     9 -1.561759891115259E-004
                    10  1.072111055844355E-004
                    11 -3.366106913830119E-005
                    12  1.599348895658476E-004
                    13  1.426849518216102E-004
                    14  3.446792091170661E-005
                    15 -6.149374833143188E-005
                    16  1.667594819474632E-005
                    17 -6.920168794014563E-006
                    18  4.608813290011460E-005
                    19 -1.187697983434231E-006
                    20  1.089462771355651E-004
                    21 -7.144709302583319E-005
                    22  2.900800700485354E-005
                    23  1.224815352004502E-004
                    24 -6.406516405698489E-005
                    25 -5.933245635773024E-005
                    26  1.276916992339466E-004
                    27  2.661807971001719E-006
                    28 -1.708436198933770E-005
                    29 -5.790963588958933E-006
                    30  1.242113908933625E-004
                    31  3.477203018702628E-005
                    32   1.00090654680188     
                    33  8.685619186172886E-003
                    34  2.833101677988737E-003
                    35 -8.366681834609655E-003
                    36 -2.100044289378827E-003
                    37  4.357717842494775E-004
                    38  7.720665656607536E-005
                    39  1.056096134995785E-003
                    40 -1.671478799683690E-004
                    41 -1.911551840691591E-004
                    42  2.973350689602344E-003
                    43 -1.208663676168122E-004
                    44 -1.564374241548304E-004
                    45  3.063336620466498E-004
                    46  1.747055519715501E-005
                    47 -5.177178387449386E-005
                    48  3.651834629848398E-004
                    49 -9.555209986719462E-006
                    50 -9.948786291564286E-004
                    51 -2.146606938612194E-004
                    52  1.490242685284067E-004
                    53 -1.488055488098530E-004
                    54  1.771803531014218E-005
                    55 -1.180765349506781E-005
                    56  2.799906266450008E-004
                    57 -1.066208548879080E-005
                    58 -2.067783048342760E-005
                    59 -1.842886775539146E-005
                    60  7.057628248090780E-005
                    61  1.234868359384683E-005
                    62  1.436533093241623E-002
                    63 -1.747455824733928E-003
                    64 -2.862700221466741E-004
                    65  2.925510874734652E-003
                    66 -1.835302122030343E-004
                    67  3.430834049593890E-005
                    68  3.274657568947118E-004
                    69  3.221445967050092E-005
                    70 -2.925420393680386E-005
                    71  3.729644974772776E-004
                    72  4.290759423054491E-004
                    73  1.497526108002110E-004
                    74 -1.795272184126697E-003
                    75 -2.907931145720540E-006
                    76  2.549520803417971E-005
                    77  6.145075199875827E-006
                    78 -4.078409984346890E-005
                    79 -2.860798136998140E-006
                    80 -4.714856177402040E-004
                    81 -4.028001673893725E-004
                    82  2.252126943989887E-005
                    83  7.914189666702658E-004
                    84  1.190042370020504E-005
                    85  4.235540881200391E-005
                    86  1.068589831615227E-004
                    87  1.568110616683887E-005
                    88 -1.982452127808971E-005
                    89 -2.090027336272009E-005
                    90 -2.440294886245561E-005
                    91  2.013084284540231E-006
                    92  1.617062267900870E-002
                    93 -1.689354836898345E-003
                    94 -3.373731753974970E-004
                    95  3.268434654000580E-003
                    96 -2.247305422508635E-004
                    97  8.223026816203163E-005
                    98 -3.162681061341012E-004
                    99 -4.969402730239593E-005
                   100  5.610186921347372E-005
                   101 -6.661284641054522E-004
                   102  8.135974057283932E-005
                   103 -1.163255278483048E-004
                   104  1.654665343413768E-003
                   105  3.072385564446572E-006
                   106 -1.266202358838350E-005
                   107 -1.070387061125224E-007
                   108 -3.098492259607442E-005
                   109 -1.773308314600155E-006
                   110 -3.035402536489250E-004
                   111  4.876865516141811E-004
                   112 -2.886030070756045E-005
                   113  6.808046634952802E-004
                   114 -3.996386120021305E-005
                   115 -5.004028832166636E-005
                   116  9.427861399951522E-005
                   117 -8.659197647564903E-006
                   118  2.079941916380174E-005
                   119 -7.903116066467674E-006
                   120 -3.252500178016889E-005
                   121  1.161440516564696E-006
                   122 -1.181366381578383E-004
                   123 -7.663113844901907E-004
                   124  2.411008353092479E-004
                   125 -2.857837648218520E-004
                   126 -1.574597979918138E-004
                   127  1.451324097999097E-005
                   128 -5.363391995739643E-005
                   129  6.109708035753133E-004
                   130 -1.541356393333271E-005
                   131  7.757011319579013E-005
                   132  6.662901298064778E-004
                   133 -3.886784129093228E-005
                   134  4.183998719443282E-004
                   135  6.176564334873587E-007
                   136  3.966900548837900E-005
                   137  1.668282400412506E-006
                   138 -3.441590037018994E-005
                   139 -3.516494487446281E-006
                   140  1.982240672473152E-004
                   141 -2.640655687491584E-004
                   142 -3.213538471703293E-006
                   143 -2.464333129988984E-004
                   144  2.310224491117990E-005
                   145 -1.566366985081379E-005
                   146  1.446528943454240E-005
                   147 -2.363570377355786E-006
                   148 -8.653827772042199E-006
                   149 -3.748392929106115E-006
                   150 -2.131981357442959E-005
                   151  8.650162572459322E-007
                   152 -7.147777036214206E-005
                   153 -7.403661820430665E-004
                   154  2.479887988940616E-004
                   155 -2.859332872362332E-004
                   156 -1.334856943963418E-004
                   157 -3.753271041585692E-006
                   158  3.448938850177330E-005
                   159  5.373940938427568E-004
                   160  5.215980912171371E-006