[Molden Format]
[Atoms] AU
  N     1    7     0.0000000000   -4.2907334100    0.0000000000        
  C     2    6     0.0000000000   -1.7772236300    0.0000000000        
  C     3    6    -2.3389203600   -0.4111016300    0.0000000000        
  C     4    6     2.3389203600   -0.4111016300    0.0000000000        
  C     5    6    -2.2998668500    2.1639215300    0.0000000000        
  C     6    6     2.2998668500    2.1639215300    0.0000000000        
  C     7    6     0.0000000000    3.4755251800    0.0000000000        
  H     8    1    -2.4124509000   -5.7790131500    0.0000000000        
  H     9    1     2.2516208400   -5.6797945000    0.0000000000        
  H    10    1    -4.0745407300   -1.4447408500    0.0000000000        
  H    11    1     4.0745407300   -1.4447408500    0.0000000000        
  H    12    1    -4.0420632100    3.1963889500    0.0000000000        
  H    13    1     4.0420632100    3.1963889500    0.0000000000        
  H    14    1     0.0000000000    5.5020335600    0.0000000000        
[5D]
[7F]
[GTO]
  1  0
   s    12 1.00
  0.114200D+05  0.172695D-04
  0.171200D+04  0.134411D-03
  0.389300D+03  0.694561D-03
  0.110000D+03  0.278531D-02
  0.355700D+02  0.863457D-02
  0.125400D+02  0.199805D-01
  0.464400D+01  0.262908D-01
  0.129300D+01 -0.243845D-01
  0.511800D+00 -0.924934D-01
  0.178700D+00 -0.339683D+00
  0.246240D-01  0.345111D+00
  0.112530D-01  0.752750D+00
   s    10 1.00
  0.114200D+05  0.523000D-03
  0.171200D+04  0.404500D-02
  0.389300D+03  0.207750D-01
  0.110000D+03  0.807269D-01
  0.355700D+02  0.233074D+00
  0.125400D+02  0.433501D+00
  0.464400D+01  0.347472D+00
  0.129300D+01  0.412620D-01
  0.511800D+00 -0.850799D-02
  0.178700D+00  0.238400D-02
   s    10 1.00
  0.114200D+05 -0.115000D-03
  0.171200D+04 -0.895000D-03
  0.389300D+03 -0.462400D-02
  0.110000D+03 -0.185280D-01
  0.355700D+02 -0.573390D-01
  0.125400D+02 -0.132076D+00
  0.464400D+01 -0.172510D+00
  0.129300D+01  0.151814D+00
  0.511800D+00  0.599944D+00
  0.178700D+00  0.387462D+00
   s     1 1.00
  0.129300D+01  0.100000D+01
   s     1 1.00
  0.178700D+00  0.100000D+01
   p     5 1.00
  0.266300D+02  0.146700D-01
  0.594800D+01  0.917640D-01
  0.174200D+01  0.298683D+00
  0.555000D+00  0.498487D+00
  0.172500D+00  0.337023D+00
   p     1 1.00
  0.174200D+01  0.100000D+01
   p     1 1.00
  0.555000D+00  0.100000D+01
   d     1 1.00
  0.165400D+01  0.100000D+01
   d     1 1.00
  0.469000D+00  0.100000D+01
   f     1 1.00
  0.109300D+01  0.100000D+01
  
  2  0
   s    10 1.00
  0.823600D+04  0.531000D-03
  0.123500D+04  0.410800D-02
  0.280800D+03  0.210870D-01
  0.792700D+02  0.818530D-01
  0.255900D+02  0.234817D+00
  0.899700D+01  0.434401D+00
  0.331900D+01  0.346129D+00
  0.905900D+00  0.393780D-01
  0.364300D+00 -0.898300D-02
  0.128500D+00  0.238500D-02
   s    10 1.00
  0.823600D+04 -0.113000D-03
  0.123500D+04 -0.878000D-03
  0.280800D+03 -0.454000D-02
  0.792700D+02 -0.181330D-01
  0.255900D+02 -0.557600D-01
  0.899700D+01 -0.126895D+00
  0.331900D+01 -0.170352D+00
  0.905900D+00  0.140382D+00
  0.364300D+00  0.598684D+00
  0.128500D+00  0.395389D+00
   s     1 1.00
  0.905900D+00  0.100000D+01
   s     1 1.00
  0.364300D+00  0.100000D+01
   p     5 1.00
  0.187100D+02  0.140310D-01
  0.413300D+01  0.868660D-01
  0.120000D+01  0.290216D+00
  0.382700D+00  0.501008D+00
  0.120900D+00  0.343406D+00
   p     1 1.00
  0.382700D+00  0.100000D+01
   p     1 1.00
  0.120900D+00  0.100000D+01
   d     1 1.00
  0.109700D+01  0.100000D+01
   d     1 1.00
  0.318000D+00  0.100000D+01
   f     1 1.00
  0.761000D+00  0.100000D+01
  
  3  0
   s    10 1.00
  0.823600D+04  0.531000D-03
  0.123500D+04  0.410800D-02
  0.280800D+03  0.210870D-01
  0.792700D+02  0.818530D-01
  0.255900D+02  0.234817D+00
  0.899700D+01  0.434401D+00
  0.331900D+01  0.346129D+00
  0.905900D+00  0.393780D-01
  0.364300D+00 -0.898300D-02
  0.128500D+00  0.238500D-02
   s    10 1.00
  0.823600D+04 -0.113000D-03
  0.123500D+04 -0.878000D-03
  0.280800D+03 -0.454000D-02
  0.792700D+02 -0.181330D-01
  0.255900D+02 -0.557600D-01
  0.899700D+01 -0.126895D+00
  0.331900D+01 -0.170352D+00
  0.905900D+00  0.140382D+00
  0.364300D+00  0.598684D+00
  0.128500D+00  0.395389D+00
   s     1 1.00
  0.905900D+00  0.100000D+01
   s     1 1.00
  0.364300D+00  0.100000D+01
   p     5 1.00
  0.187100D+02  0.140310D-01
  0.413300D+01  0.868660D-01
  0.120000D+01  0.290216D+00
  0.382700D+00  0.501008D+00
  0.120900D+00  0.343406D+00
   p     1 1.00
  0.382700D+00  0.100000D+01
   p     1 1.00
  0.120900D+00  0.100000D+01
   d     1 1.00
  0.109700D+01  0.100000D+01
   d     1 1.00
  0.318000D+00  0.100000D+01
   f     1 1.00
  0.761000D+00  0.100000D+01
  
  4  0
   s    10 1.00
  0.823600D+04  0.531000D-03
  0.123500D+04  0.410800D-02
  0.280800D+03  0.210870D-01
  0.792700D+02  0.818530D-01
  0.255900D+02  0.234817D+00
  0.899700D+01  0.434401D+00
  0.331900D+01  0.346129D+00
  0.905900D+00  0.393780D-01
  0.364300D+00 -0.898300D-02
  0.128500D+00  0.238500D-02
   s    10 1.00
  0.823600D+04 -0.113000D-03
  0.123500D+04 -0.878000D-03
  0.280800D+03 -0.454000D-02
  0.792700D+02 -0.181330D-01
  0.255900D+02 -0.557600D-01
  0.899700D+01 -0.126895D+00
  0.331900D+01 -0.170352D+00
  0.905900D+00  0.140382D+00
  0.364300D+00  0.598684D+00
  0.128500D+00  0.395389D+00
   s     1 1.00
  0.905900D+00  0.100000D+01
   s     1 1.00
  0.364300D+00  0.100000D+01
   p     5 1.00
  0.187100D+02  0.140310D-01
  0.413300D+01  0.868660D-01
  0.120000D+01  0.290216D+00
  0.382700D+00  0.501008D+00
  0.120900D+00  0.343406D+00
   p     1 1.00
  0.382700D+00  0.100000D+01
   p     1 1.00
  0.120900D+00  0.100000D+01
   d     1 1.00
  0.109700D+01  0.100000D+01
   d     1 1.00
  0.318000D+00  0.100000D+01
   f     1 1.00
  0.761000D+00  0.100000D+01
  
  5  0
   s    10 1.00
  0.823600D+04  0.531000D-03
  0.123500D+04  0.410800D-02
  0.280800D+03  0.210870D-01
  0.792700D+02  0.818530D-01
  0.255900D+02  0.234817D+00
  0.899700D+01  0.434401D+00
  0.331900D+01  0.346129D+00
  0.905900D+00  0.393780D-01
  0.364300D+00 -0.898300D-02
  0.128500D+00  0.238500D-02
   s    10 1.00
  0.823600D+04 -0.113000D-03
  0.123500D+04 -0.878000D-03
  0.280800D+03 -0.454000D-02
  0.792700D+02 -0.181330D-01
  0.255900D+02 -0.557600D-01
  0.899700D+01 -0.126895D+00
  0.331900D+01 -0.170352D+00
  0.905900D+00  0.140382D+00
  0.364300D+00  0.598684D+00
  0.128500D+00  0.395389D+00
   s     1 1.00
  0.905900D+00  0.100000D+01
   s     1 1.00
  0.364300D+00  0.100000D+01
   p     5 1.00
  0.187100D+02  0.140310D-01
  0.413300D+01  0.868660D-01
  0.120000D+01  0.290216D+00
  0.382700D+00  0.501008D+00
  0.120900D+00  0.343406D+00
   p     1 1.00
  0.382700D+00  0.100000D+01
   p     1 1.00
  0.120900D+00  0.100000D+01
   d     1 1.00
  0.109700D+01  0.100000D+01
   d     1 1.00
  0.318000D+00  0.100000D+01
   f     1 1.00
  0.761000D+00  0.100000D+01
  
  6  0
   s    10 1.00
  0.823600D+04  0.531000D-03
  0.123500D+04  0.410800D-02
  0.280800D+03  0.210870D-01
  0.792700D+02  0.818530D-01
  0.255900D+02  0.234817D+00
  0.899700D+01  0.434401D+00
  0.331900D+01  0.346129D+00
  0.905900D+00  0.393780D-01
  0.364300D+00 -0.898300D-02
  0.128500D+00  0.238500D-02
   s    10 1.00
  0.823600D+04 -0.113000D-03
  0.123500D+04 -0.878000D-03
  0.280800D+03 -0.454000D-02
  0.792700D+02 -0.181330D-01
  0.255900D+02 -0.557600D-01
  0.899700D+01 -0.126895D+00
  0.331900D+01 -0.170352D+00
  0.905900D+00  0.140382D+00
  0.364300D+00  0.598684D+00
  0.128500D+00  0.395389D+00
   s     1 1.00
  0.905900D+00  0.100000D+01
   s     1 1.00
  0.364300D+00  0.100000D+01
   p     5 1.00
  0.187100D+02  0.140310D-01
  0.413300D+01  0.868660D-01
  0.120000D+01  0.290216D+00
  0.382700D+00  0.501008D+00
  0.120900D+00  0.343406D+00
   p     1 1.00
  0.382700D+00  0.100000D+01
   p     1 1.00
  0.120900D+00  0.100000D+01
   d     1 1.00
  0.109700D+01  0.100000D+01
   d     1 1.00
  0.318000D+00  0.100000D+01
   f     1 1.00
  0.761000D+00  0.100000D+01
  
  7  0
   s    10 1.00
  0.823600D+04  0.531000D-03
  0.123500D+04  0.410800D-02
  0.280800D+03  0.210870D-01
  0.792700D+02  0.818530D-01
  0.255900D+02  0.234817D+00
  0.899700D+01  0.434401D+00
  0.331900D+01  0.346129D+00
  0.905900D+00  0.393780D-01
  0.364300D+00 -0.898300D-02
  0.128500D+00  0.238500D-02
   s    10 1.00
  0.823600D+04 -0.113000D-03
  0.123500D+04 -0.878000D-03
  0.280800D+03 -0.454000D-02
  0.792700D+02 -0.181330D-01
  0.255900D+02 -0.557600D-01
  0.899700D+01 -0.126895D+00
  0.331900D+01 -0.170352D+00
  0.905900D+00  0.140382D+00
  0.364300D+00  0.598684D+00
  0.128500D+00  0.395389D+00
   s     1 1.00
  0.905900D+00  0.100000D+01
   s     1 1.00
  0.364300D+00  0.100000D+01
   p     5 1.00
  0.187100D+02  0.140310D-01
  0.413300D+01  0.868660D-01
  0.120000D+01  0.290216D+00
  0.382700D+00  0.501008D+00
  0.120900D+00  0.343406D+00
   p     1 1.00
  0.382700D+00  0.100000D+01
   p     1 1.00
  0.120900D+00  0.100000D+01
   d     1 1.00
  0.109700D+01  0.100000D+01
   d     1 1.00
  0.318000D+00  0.100000D+01
   f     1 1.00
  0.761000D+00  0.100000D+01
  
  8  0
   s     4 1.00
  0.130100D+02  0.196850D-01
  0.196200D+01  0.137977D+00
  0.444600D+00  0.478148D+00
  0.122000D+00  0.501240D+00
   s     1 1.00
  0.122000D+00  0.100000D+01
   p     1 1.00
  0.727000D+00  0.100000D+01
  
  9  0
   s     4 1.00
  0.130100D+02  0.196850D-01
  0.196200D+01  0.137977D+00
  0.444600D+00  0.478148D+00
  0.122000D+00  0.501240D+00
   s     1 1.00
  0.122000D+00  0.100000D+01
   p     1 1.00
  0.727000D+00  0.100000D+01
  
 10  0
   s     4 1.00
  0.130100D+02  0.196850D-01
  0.196200D+01  0.137977D+00
  0.444600D+00  0.478148D+00
  0.122000D+00  0.501240D+00
   s     1 1.00
  0.122000D+00  0.100000D+01
   p     1 1.00
  0.727000D+00  0.100000D+01
  
 11  0
   s     4 1.00
  0.130100D+02  0.196850D-01
  0.196200D+01  0.137977D+00
  0.444600D+00  0.478148D+00
  0.122000D+00  0.501240D+00
   s     1 1.00
  0.122000D+00  0.100000D+01
   p     1 1.00
  0.727000D+00  0.100000D+01
  
 12  0
   s     4 1.00
  0.130100D+02  0.196850D-01
  0.196200D+01  0.137977D+00
  0.444600D+00  0.478148D+00
  0.122000D+00  0.501240D+00
   s     1 1.00
  0.122000D+00  0.100000D+01
   p     1 1.00
  0.727000D+00  0.100000D+01
  
 13  0
   s     4 1.00
  0.130100D+02  0.196850D-01
  0.196200D+01  0.137977D+00
  0.444600D+00  0.478148D+00
  0.122000D+00  0.501240D+00
   s     1 1.00
  0.122000D+00  0.100000D+01
   p     1 1.00
  0.727000D+00  0.100000D+01
  
 14  0
   s     4 1.00
  0.130100D+02  0.196850D-01
  0.196200D+01  0.137977D+00
  0.444600D+00  0.478148D+00
  0.122000D+00  0.501240D+00
   s     1 1.00
  0.122000D+00  0.100000D+01
   p     1 1.00
  0.727000D+00  0.100000D+01
  
[MO]
 Sym= __1_A'_
 Ene=   1.00000000000000     
 Spin= Alpha
 Occup=    1.00000000000000     
                     1  2.333728016594146E-005
                     2  0.998783163353755     
                     3  8.240348360013646E-004
                     4  1.225400124050032E-003
                     5  4.952368796137096E-003
                     6  2.007216466925542E-003
                     7  6.655867799858097E-003
                     8  0.000000000000000E+000
                     9 -4.775620249240894E-004
                    10 -6.700864080158032E-004
                    11  0.000000000000000E+000
                    12 -1.304050112569716E-003
                    13 -2.256550980844819E-003
                    14  0.000000000000000E+000
                    15 -4.439496417468420E-005
                    16  0.000000000000000E+000
                    17  0.000000000000000E+000
                    18 -2.475888230049708E-004
                    19  6.980591626935283E-007
                    20  1.699355926106512E-004
                    21  0.000000000000000E+000
                    22  0.000000000000000E+000
                    23 -2.418312964314772E-004
                    24  1.859782583256029E-004
                    25  0.000000000000000E+000
                    26 -6.053610771965768E-006
                    27 -4.701931044057089E-005
                    28  0.000000000000000E+000
                    29  0.000000000000000E+000
                    30  1.178706423242385E-005
                    31 -1.110111282707541E-004
                    32 -2.830457929892681E-004
                    33  1.079737131400736E-003
                    34  2.670330642269161E-004
                    35 -3.200705885373908E-004
                    36 -1.056103713537439E-004
                    37 -3.866680534505021E-003
                    38  0.000000000000000E+000
                    39  3.220399337840078E-004
                    40  5.308138691752356E-005
                    41  0.000000000000000E+000
                    42 -1.389283779077791E-003
                    43  5.471676606592377E-003
                    44  0.000000000000000E+000
                    45 -1.833060344246532E-005
                    46  0.000000000000000E+000
                    47  0.000000000000000E+000
                    48 -2.049933756873886E-004
                    49 -3.808013768366649E-006
                    50 -2.548784663117642E-004
                    51  0.000000000000000E+000
                    52  0.000000000000000E+000
                    53 -6.189688278372561E-005
                    54  3.647167001404333E-004
                    55  0.000000000000000E+000
                    56 -9.776842403386577E-006
                    57 -4.363571133507845E-005
                    58  0.000000000000000E+000
                    59  0.000000000000000E+000
                    60  2.781001605103733E-006
                    61 -1.122079436660121E-004
                    62 -4.554846004426582E-004
                    63 -1.943757370857768E-003
                    64 -2.882233958305311E-005
                    65  1.669760127654102E-003
                    66 -5.204738490264206E-004
                    67  3.515896400372085E-004
                    68  0.000000000000000E+000
                    69  2.542076492006750E-004
                    70  6.499306449020175E-004
                    71  0.000000000000000E+000
                    72 -1.593594933713948E-003
                    73  3.116284807281673E-004
                    74  0.000000000000000E+000
                    75 -3.685609403901951E-005
                    76  0.000000000000000E+000
                    77  0.000000000000000E+000
                    78 -6.586650199363385E-005
                    79 -1.921443119559476E-005
                    80 -9.461822867514630E-005
                    81  0.000000000000000E+000
                    82  0.000000000000000E+000
                    83  5.561939798794248E-006
                    84  1.759383918080509E-005
                    85  0.000000000000000E+000
                    86  7.395784492848981E-006
                    87 -4.143233304780048E-005
                    88  0.000000000000000E+000
                    89  0.000000000000000E+000
                    90 -1.500335493319248E-005
                    91 -1.296703063965483E-004
                    92 -2.217758336686899E-004
                    93 -1.151624445327298E-003
                    94  1.387491674345399E-004
                    95  2.900900931600112E-004
                    96  4.528455326439008E-004
                    97  4.414786312496745E-004
                    98  0.000000000000000E+000
                    99  1.997966605734556E-004
                   100  3.470536098406934E-004
                   101  0.000000000000000E+000
                   102  8.485515632963730E-004
                   103 -9.846023404275523E-004
                   104  0.000000000000000E+000
                   105 -1.783574536359752E-005
                   106  0.000000000000000E+000
                   107  0.000000000000000E+000
                   108 -5.495093875680756E-005
                   109 -5.924709728586187E-006
                   110  8.679900481189786E-005
                   111  0.000000000000000E+000
                   112  0.000000000000000E+000
                   113 -7.628089122186530E-005
                   114 -1.130028247435098E-005
                   115  0.000000000000000E+000
                   116 -2.092635402082145E-005
                   117 -3.582454882515281E-005
                   118  0.000000000000000E+000
                   119  0.000000000000000E+000
                   120  1.649015372611011E-005
                   121 -5.670887215943785E-005
                   122 -2.850279572522627E-004
                   123 -6.793749529153656E-004
                   124  1.435030062624861E-004
                   125  4.902236058266479E-004
                   126 -1.712818055775119E-005
                   127 -4.174312524183535E-004
                   128  0.000000000000000E+000
                   129  1.940063067164181E-004
                   130  4.838125614061996E-004
                   131  0.000000000000000E+000
                   132  1.327629620350482E-004
                   133  1.580982901105358E-003
                   134  0.000000000000000E+000
                   135  6.313087541157833E-006
                   136  0.000000000000000E+000
                   137  0.000000000000000E+000
                   138  3.457729446596468E-005
                   139 -3.505164323267054E-006
                   140  1.794961749799999E-004
                   141  0.000000000000000E+000
                   142  0.000000000000000E+000
                   143  2.840634311039486E-004
                   144  1.880456510170162E-004
                   145  0.000000000000000E+000
                   146 -9.002963667343583E-006
                   147 -4.939718570494245E-005
                   148  0.000000000000000E+000
                   149  0.000000000000000E+000
                   150 -8.161104983773321E-006
                   151 -3.917904146953646E-005
                   152 -2.289212058604071E-004
                   153 -5.091502058371275E-004
                   154  6.371437973102000E-005
                   155  4.966070508129667E-004
                   156 -1.166396078031262E-005
                   157 -3.713065445540453E-004
                   158  0.000000000000000E+000
                   159 -4.454922477886105E-005
                   160  1.406056098063248E-004
                   161  0.000000000000000E+000
                   162  4.890392777066598E-004
                   163  1.952680494452247E-004
                   164  0.000000000000000E+000
                   165 -8.160417272179703E-007
                   166  0.000000000000000E+000
                   167  0.000000000000000E+000
                   168  5.432655990991676E-006
                   169  6.789257478486394E-006
                   170  8.901190840275413E-005
                   171  0.000000000000000E+000
                   172  0.000000000000000E+000
                   173  7.499309682854301E-005
                   174 -6.224553145660184E-005
                   175  0.000000000000000E+000
                   176  6.432444425728539E-006
                   177 -1.879611625744171E-005
                   178  0.000000000000000E+000
                   179  0.000000000000000E+000
                   180 -1.636523103372168E-005
                   181 -1.671145374560025E-005
                   182 -1.885307747759171E-004
                   183 -5.527307419016394E-004
                   184  5.820048061957028E-005
                   185  2.910999056813443E-004
                   186 -2.330144718141110E-005
                   187 -4.644051316848688E-005
                   188  0.000000000000000E+000
                   189  1.227178178396348E-004
                   190  6.565560927823424E-005
                   191  0.000000000000000E+000
                   192  7.769347311608749E-004
                   193 -1.590755319308558E-004
                   194  0.000000000000000E+000
                   195 -1.916506604353908E-006
                   196  0.000000000000000E+000
                   197  0.000000000000000E+000
                   198 -1.289232473354290E-005
                   199  3.835419919079395E-006
                   200  3.215835423294701E-005
                   201  0.000000000000000E+000
                   202  0.000000000000000E+000
                   203 -8.370025218232660E-005
                   204 -1.114604666994537E-004
                   205  0.000000000000000E+000
                   206 -3.888168246085052E-006
                   207 -6.935644976026817E-006
                   208  0.000000000000000E+000
                   209  0.000000000000000E+000
                   210  6.354804378912109E-006
                   211 -3.480981600337211E-007
                   212 -7.021024163343725E-005
                   213 -7.945914750854328E-006
                   214  1.681987775399855E-004
                   215  1.366689164371313E-004
                   216  0.000000000000000E+000
                   217 -3.297568817502673E-004
                   218 -2.483626576142747E-004
                   219 -2.074021520582975E-004
                   220  1.173465307307686E-004
                   221  0.000000000000000E+000
                   222 -2.985032687868906E-004
                   223 -6.843916321767762E-004
                   224  5.614628910382950E-006
                   225 -5.601678042677645E-005
                   226  0.000000000000000E+000
                   227 -1.915373582201105E-004
                   228 -5.929512951133204E-004
                   229 -8.235809277929263E-006
                   230 -2.881872445327076E-005
                   231  0.000000000000000E+000
                   232 -4.284342728619573E-005
                   233 -5.416371532585157E-004
                   234  5.341177501550368E-006
                   235 -4.487032698385696E-006
                   236  0.000000000000000E+000
                   237 -9.957451629323185E-005
                   238 -4.221928121119759E-004
                   239  3.689223030966201E-006
                   240  1.142238236990187E-006
                   241  0.000000000000000E+000
                   242  1.109120752908667E-005
                   243 -4.243935690426612E-005
                   244  3.704857850291516E-007
                   245  2.108471513958436E-005
                   246  0.000000000000000E+000
 Sym= __2_A'_
 Ene=   2.00000000000000     
 Spin= Alpha
 Occup=    1.00000000000000     
                     1 -5.877393533912449E-005
                     2 -3.599401470070008E-004
                     3  3.057828018323790E-003
                     4  1.710607076962610E-004
                     5  1.321183693485731E-003
                     6 -5.008669643759007E-005
                     7  2.947616720888301E-003
                     8  0.000000000000000E+000
                     9 -9.850710396728097E-006
                    10 -1.256401691713480E-004
                    11  0.000000000000000E+000
                    12  1.292861414230583E-005
                    13 -3.784242977285242E-004
                    14  0.000000000000000E+000
                    15  3.257588500049451E-005
                    16  0.000000000000000E+000
                    17  0.000000000000000E+000
                    18 -5.252248380303010E-005
                    19  5.393201609966712E-006
                    20 -1.158202150461122E-004
                    21  0.000000000000000E+000
                    22  0.000000000000000E+000
                    23  1.134431521257482E-004
                    24  2.611856168162678E-006
                    25  0.000000000000000E+000
                    26 -2.839431461797920E-006
                    27  8.883380637905635E-005
                    28  0.000000000000000E+000
                    29  0.000000000000000E+000
                    30 -1.325250718786664E-006
                    31  1.536779473801617E-004
                    32   1.00100102692302     
                    33  9.305227897049396E-003
                    34  2.762552484646733E-003
                    35 -8.121854298912122E-003
                    36 -6.607965231847616E-005
                    37 -3.766003170411642E-003
                    38  0.000000000000000E+000
                    39  8.248018407803664E-005
                    40  6.176763339853234E-004
                    41  0.000000000000000E+000
                    42  2.221079945392615E-005
                    43  4.285763464062975E-003
                    44  0.000000000000000E+000
                    45 -5.771839153082264E-004
                    46  0.000000000000000E+000
                    47  0.000000000000000E+000
                    48 -2.048787192945616E-004
                    49  1.207049818180002E-006
                    50  5.503488960588780E-004
                    51  0.000000000000000E+000
                    52  0.000000000000000E+000
                    53 -8.551229248995730E-004
                    54  2.395014324697066E-005
                    55  0.000000000000000E+000
                    56 -3.354876478578413E-006
                    57  9.149803777302483E-005
                    58  0.000000000000000E+000
                    59  0.000000000000000E+000
                    60  3.335026320483889E-006
                    61  4.007021328748843E-004
                    62  9.224713423185186E-003
                    63 -2.084330886592080E-003
                    64 -2.891443944405201E-004
                    65  3.050437819274873E-003
                    66 -1.440735072373011E-005
                    67  1.007455767421065E-004
                    68  0.000000000000000E+000
                    69  7.014367111873202E-004
                    70  2.511334464268747E-005
                    71  0.000000000000000E+000
                    72 -2.052685048855040E-003
                    73  7.755725894797445E-005
                    74  0.000000000000000E+000
                    75  2.859380188891372E-005
                    76  0.000000000000000E+000
                    77  0.000000000000000E+000
                    78 -3.816690699502618E-006
                    79  4.705504798892180E-006
                    80 -4.110797728515274E-004
                    81  0.000000000000000E+000
                    82  0.000000000000000E+000
                    83 -5.953040391914842E-004
                    84 -3.699967413565603E-004
                    85  0.000000000000000E+000
                    86  3.266209586336851E-005
                    87 -5.870762767372074E-005
                    88  0.000000000000000E+000
                    89  0.000000000000000E+000
                    90  5.134489831975761E-005
                    91  1.393683852548626E-004
                    92  9.402420859807463E-003
                    93 -2.076661236386774E-003
                    94 -2.776809113716666E-004
                    95  3.006771169118957E-003
                    96  5.946956361037414E-006
                    97  9.178434480452449E-005
                    98  0.000000000000000E+000
                    99 -6.586114593596458E-004
                   100  5.845132103929269E-005
                   101  0.000000000000000E+000
                   102  2.055599319087937E-003
                   103  7.868956737679318E-005
                   104  0.000000000000000E+000
                   105  3.100440718377958E-005
                   106  0.000000000000000E+000
                   107  0.000000000000000E+000
                   108 -5.611249849696642E-006
                   109 -7.321839712653258E-006
                   110 -4.081238135540170E-004
                   111  0.000000000000000E+000
                   112  0.000000000000000E+000
                   113 -6.110616515598713E-004
                   114  3.570199174103669E-004
                   115  0.000000000000000E+000
                   116 -3.334418903119876E-005
                   117 -5.951416035815886E-005
                   118  0.000000000000000E+000
                   119  0.000000000000000E+000
                   120 -5.087084736447367E-005
                   121  1.388829552446131E-004
                   122 -1.688064186917515E-004
                   123 -6.840442086888309E-004
                   124  2.283821739677204E-004
                   125 -1.192536826377551E-004
                   126 -1.118235302313305E-006
                   127 -3.396847304243325E-004
                   128  0.000000000000000E+000
                   129 -5.840104759697108E-005
                   130  5.455365088074678E-004
                   131  0.000000000000000E+000
                   132  3.201903264117568E-004
                   133  7.530595637532480E-004
                   134  0.000000000000000E+000
                   135  1.955838490940451E-005
                   136  0.000000000000000E+000
                   137  0.000000000000000E+000
                   138  3.861975453929986E-006
                   139  5.316740955000599E-005
                   140  1.363272714159641E-004
                   141  0.000000000000000E+000
                   142  0.000000000000000E+000
                   143  2.475889196809716E-004
                   144 -1.873645046603103E-004
                   145  0.000000000000000E+000
                   146  6.864876792986064E-006
                   147 -3.332925903367128E-005
                   148  0.000000000000000E+000
                   149  0.000000000000000E+000
                   150 -4.646473270025300E-005
                   151  2.752456649481511E-005
                   152 -1.619197574915989E-004
                   153 -6.849985223502942E-004
                   154  2.297533447734272E-004
                   155 -1.304893959562772E-004
                   156  2.269357893134197E-006
                   157 -3.390305058872544E-004
                   158  0.000000000000000E+000
                   159  5.238404319850028E-005
                   160  5.590529756730853E-004