[Molden Format]
[Atoms] AU
  N     1    7     0.0000000000   -4.2907334100    0.0000000000        
  C     2    6     0.0000000000   -1.7772236300    0.0000000000        
  C     3    6    -2.3389203600   -0.4111016300    0.0000000000        
  C     4    6     2.3389203600   -0.4111016300    0.0000000000        
  C     5    6    -2.2998668500    2.1639215300    0.0000000000        
  C     6    6     2.2998668500    2.1639215300    0.0000000000        
  C     7    6     0.0000000000    3.4755251800    0.0000000000        
  H     8    1    -2.5732809600   -5.8782317900    0.0000000000        
  H     9    1     2.2516208400   -5.6797945000    0.0000000000        
  H    10    1    -4.0745407300   -1.4447408500    0.0000000000        
  H    11    1     4.0745407300   -1.4447408500    0.0000000000        
  H    12    1    -4.0420632100    3.1963889500    0.0000000000        
  H    13    1     4.0420632100    3.1963889500    0.0000000000        
  H    14    1     0.0000000000    5.5020335600    0.0000000000        
[5D]
[7F]
[GTO]
  1  0
   s    12 1.00
  0.114200D+05  0.172695D-04
  0.171200D+04  0.134411D-03
  0.389300D+03  0.694561D-03
  0.110000D+03  0.278531D-02
  0.355700D+02  0.863457D-02
  0.125400D+02  0.199805D-01
  0.464400D+01  0.262908D-01
  0.129300D+01 -0.243845D-01
  0.511800D+00 -0.924934D-01
  0.178700D+00 -0.339683D+00
  0.246240D-01  0.345111D+00
  0.112530D-01  0.752750D+00
   s    10 1.00
  0.114200D+05  0.523000D-03
  0.171200D+04  0.404500D-02
  0.389300D+03  0.207750D-01
  0.110000D+03  0.807269D-01
  0.355700D+02  0.233074D+00
  0.125400D+02  0.433501D+00
  0.464400D+01  0.347472D+00
  0.129300D+01  0.412620D-01
  0.511800D+00 -0.850799D-02
  0.178700D+00  0.238400D-02
   s    10 1.00
  0.114200D+05 -0.115000D-03
  0.171200D+04 -0.895000D-03
  0.389300D+03 -0.462400D-02
  0.110000D+03 -0.185280D-01
  0.355700D+02 -0.573390D-01
  0.125400D+02 -0.132076D+00
  0.464400D+01 -0.172510D+00
  0.129300D+01  0.151814D+00
  0.511800D+00  0.599944D+00
  0.178700D+00  0.387462D+00
   s     1 1.00
  0.129300D+01  0.100000D+01
   s     1 1.00
  0.178700D+00  0.100000D+01
   p     5 1.00
  0.266300D+02  0.146700D-01
  0.594800D+01  0.917640D-01
  0.174200D+01  0.298683D+00
  0.555000D+00  0.498487D+00
  0.172500D+00  0.337023D+00
   p     1 1.00
  0.174200D+01  0.100000D+01
   p     1 1.00
  0.555000D+00  0.100000D+01
   d     1 1.00
  0.165400D+01  0.100000D+01
   d     1 1.00
  0.469000D+00  0.100000D+01
   f     1 1.00
  0.109300D+01  0.100000D+01
  
  2  0
   s    10 1.00
  0.823600D+04  0.531000D-03
  0.123500D+04  0.410800D-02
  0.280800D+03  0.210870D-01
  0.792700D+02  0.818530D-01
  0.255900D+02  0.234817D+00
  0.899700D+01  0.434401D+00
  0.331900D+01  0.346129D+00
  0.905900D+00  0.393780D-01
  0.364300D+00 -0.898300D-02
  0.128500D+00  0.238500D-02
   s    10 1.00
  0.823600D+04 -0.113000D-03
  0.123500D+04 -0.878000D-03
  0.280800D+03 -0.454000D-02
  0.792700D+02 -0.181330D-01
  0.255900D+02 -0.557600D-01
  0.899700D+01 -0.126895D+00
  0.331900D+01 -0.170352D+00
  0.905900D+00  0.140382D+00
  0.364300D+00  0.598684D+00
  0.128500D+00  0.395389D+00
   s     1 1.00
  0.905900D+00  0.100000D+01
   s     1 1.00
  0.364300D+00  0.100000D+01
   p     5 1.00
  0.187100D+02  0.140310D-01
  0.413300D+01  0.868660D-01
  0.120000D+01  0.290216D+00
  0.382700D+00  0.501008D+00
  0.120900D+00  0.343406D+00
   p     1 1.00
  0.382700D+00  0.100000D+01
   p     1 1.00
  0.120900D+00  0.100000D+01
   d     1 1.00
  0.109700D+01  0.100000D+01
   d     1 1.00
  0.318000D+00  0.100000D+01
   f     1 1.00
  0.761000D+00  0.100000D+01
  
  3  0
   s    10 1.00
  0.823600D+04  0.531000D-03
  0.123500D+04  0.410800D-02
  0.280800D+03  0.210870D-01
  0.792700D+02  0.818530D-01
  0.255900D+02  0.234817D+00
  0.899700D+01  0.434401D+00
  0.331900D+01  0.346129D+00
  0.905900D+00  0.393780D-01
  0.364300D+00 -0.898300D-02
  0.128500D+00  0.238500D-02
   s    10 1.00
  0.823600D+04 -0.113000D-03
  0.123500D+04 -0.878000D-03
  0.280800D+03 -0.454000D-02
  0.792700D+02 -0.181330D-01
  0.255900D+02 -0.557600D-01
  0.899700D+01 -0.126895D+00
  0.331900D+01 -0.170352D+00
  0.905900D+00  0.140382D+00
  0.364300D+00  0.598684D+00
  0.128500D+00  0.395389D+00
   s     1 1.00
  0.905900D+00  0.100000D+01
   s     1 1.00
  0.364300D+00  0.100000D+01
   p     5 1.00
  0.187100D+02  0.140310D-01
  0.413300D+01  0.868660D-01
  0.120000D+01  0.290216D+00
  0.382700D+00  0.501008D+00
  0.120900D+00  0.343406D+00
   p     1 1.00
  0.382700D+00  0.100000D+01
   p     1 1.00
  0.120900D+00  0.100000D+01
   d     1 1.00
  0.109700D+01  0.100000D+01
   d     1 1.00
  0.318000D+00  0.100000D+01
   f     1 1.00
  0.761000D+00  0.100000D+01
  
  4  0
   s    10 1.00
  0.823600D+04  0.531000D-03
  0.123500D+04  0.410800D-02
  0.280800D+03  0.210870D-01
  0.792700D+02  0.818530D-01
  0.255900D+02  0.234817D+00
  0.899700D+01  0.434401D+00
  0.331900D+01  0.346129D+00
  0.905900D+00  0.393780D-01
  0.364300D+00 -0.898300D-02
  0.128500D+00  0.238500D-02
   s    10 1.00
  0.823600D+04 -0.113000D-03
  0.123500D+04 -0.878000D-03
  0.280800D+03 -0.454000D-02
  0.792700D+02 -0.181330D-01
  0.255900D+02 -0.557600D-01
  0.899700D+01 -0.126895D+00
  0.331900D+01 -0.170352D+00
  0.905900D+00  0.140382D+00
  0.364300D+00  0.598684D+00
  0.128500D+00  0.395389D+00
   s     1 1.00
  0.905900D+00  0.100000D+01
   s     1 1.00
  0.364300D+00  0.100000D+01
   p     5 1.00
  0.187100D+02  0.140310D-01
  0.413300D+01  0.868660D-01
  0.120000D+01  0.290216D+00
  0.382700D+00  0.501008D+00
  0.120900D+00  0.343406D+00
   p     1 1.00
  0.382700D+00  0.100000D+01
   p     1 1.00
  0.120900D+00  0.100000D+01
   d     1 1.00
  0.109700D+01  0.100000D+01
   d     1 1.00
  0.318000D+00  0.100000D+01
   f     1 1.00
  0.761000D+00  0.100000D+01
  
  5  0
   s    10 1.00
  0.823600D+04  0.531000D-03
  0.123500D+04  0.410800D-02
  0.280800D+03  0.210870D-01
  0.792700D+02  0.818530D-01
  0.255900D+02  0.234817D+00
  0.899700D+01  0.434401D+00
  0.331900D+01  0.346129D+00
  0.905900D+00  0.393780D-01
  0.364300D+00 -0.898300D-02
  0.128500D+00  0.238500D-02
   s    10 1.00
  0.823600D+04 -0.113000D-03
  0.123500D+04 -0.878000D-03
  0.280800D+03 -0.454000D-02
  0.792700D+02 -0.181330D-01
  0.255900D+02 -0.557600D-01
  0.899700D+01 -0.126895D+00
  0.331900D+01 -0.170352D+00
  0.905900D+00  0.140382D+00
  0.364300D+00  0.598684D+00
  0.128500D+00  0.395389D+00
   s     1 1.00
  0.905900D+00  0.100000D+01
   s     1 1.00
  0.364300D+00  0.100000D+01
   p     5 1.00
  0.187100D+02  0.140310D-01
  0.413300D+01  0.868660D-01
  0.120000D+01  0.290216D+00
  0.382700D+00  0.501008D+00
  0.120900D+00  0.343406D+00
   p     1 1.00
  0.382700D+00  0.100000D+01
   p     1 1.00
  0.120900D+00  0.100000D+01
   d     1 1.00
  0.109700D+01  0.100000D+01
   d     1 1.00
  0.318000D+00  0.100000D+01
   f     1 1.00
  0.761000D+00  0.100000D+01
  
  6  0
   s    10 1.00
  0.823600D+04  0.531000D-03
  0.123500D+04  0.410800D-02
  0.280800D+03  0.210870D-01
  0.792700D+02  0.818530D-01
  0.255900D+02  0.234817D+00
  0.899700D+01  0.434401D+00
  0.331900D+01  0.346129D+00
  0.905900D+00  0.393780D-01
  0.364300D+00 -0.898300D-02
  0.128500D+00  0.238500D-02
   s    10 1.00
  0.823600D+04 -0.113000D-03
  0.123500D+04 -0.878000D-03
  0.280800D+03 -0.454000D-02
  0.792700D+02 -0.181330D-01
  0.255900D+02 -0.557600D-01
  0.899700D+01 -0.126895D+00
  0.331900D+01 -0.170352D+00
  0.905900D+00  0.140382D+00
  0.364300D+00  0.598684D+00
  0.128500D+00  0.395389D+00
   s     1 1.00
  0.905900D+00  0.100000D+01
   s     1 1.00
  0.364300D+00  0.100000D+01
   p     5 1.00
  0.187100D+02  0.140310D-01
  0.413300D+01  0.868660D-01
  0.120000D+01  0.290216D+00
  0.382700D+00  0.501008D+00
  0.120900D+00  0.343406D+00
   p     1 1.00
  0.382700D+00  0.100000D+01
   p     1 1.00
  0.120900D+00  0.100000D+01
   d     1 1.00
  0.109700D+01  0.100000D+01
   d     1 1.00
  0.318000D+00  0.100000D+01
   f     1 1.00
  0.761000D+00  0.100000D+01
  
  7  0
   s    10 1.00
  0.823600D+04  0.531000D-03
  0.123500D+04  0.410800D-02
  0.280800D+03  0.210870D-01
  0.792700D+02  0.818530D-01
  0.255900D+02  0.234817D+00
  0.899700D+01  0.434401D+00
  0.331900D+01  0.346129D+00
  0.905900D+00  0.393780D-01
  0.364300D+00 -0.898300D-02
  0.128500D+00  0.238500D-02
   s    10 1.00
  0.823600D+04 -0.113000D-03
  0.123500D+04 -0.878000D-03
  0.280800D+03 -0.454000D-02
  0.792700D+02 -0.181330D-01
  0.255900D+02 -0.557600D-01
  0.899700D+01 -0.126895D+00
  0.331900D+01 -0.170352D+00
  0.905900D+00  0.140382D+00
  0.364300D+00  0.598684D+00
  0.128500D+00  0.395389D+00
   s     1 1.00
  0.905900D+00  0.100000D+01
   s     1 1.00
  0.364300D+00  0.100000D+01
   p     5 1.00
  0.187100D+02  0.140310D-01
  0.413300D+01  0.868660D-01
  0.120000D+01  0.290216D+00
  0.382700D+00  0.501008D+00
  0.120900D+00  0.343406D+00
   p     1 1.00
  0.382700D+00  0.100000D+01
   p     1 1.00
  0.120900D+00  0.100000D+01
   d     1 1.00
  0.109700D+01  0.100000D+01
   d     1 1.00
  0.318000D+00  0.100000D+01
   f     1 1.00
  0.761000D+00  0.100000D+01
  
  8  0
   s     4 1.00
  0.130100D+02  0.196850D-01
  0.196200D+01  0.137977D+00
  0.444600D+00  0.478148D+00
  0.122000D+00  0.501240D+00
   s     1 1.00
  0.122000D+00  0.100000D+01
   p     1 1.00
  0.727000D+00  0.100000D+01
  
  9  0
   s     4 1.00
  0.130100D+02  0.196850D-01
  0.196200D+01  0.137977D+00
  0.444600D+00  0.478148D+00
  0.122000D+00  0.501240D+00
   s     1 1.00
  0.122000D+00  0.100000D+01
   p     1 1.00
  0.727000D+00  0.100000D+01
  
 10  0
   s     4 1.00
  0.130100D+02  0.196850D-01
  0.196200D+01  0.137977D+00
  0.444600D+00  0.478148D+00
  0.122000D+00  0.501240D+00
   s     1 1.00
  0.122000D+00  0.100000D+01
   p     1 1.00
  0.727000D+00  0.100000D+01
  
 11  0
   s     4 1.00
  0.130100D+02  0.196850D-01
  0.196200D+01  0.137977D+00
  0.444600D+00  0.478148D+00
  0.122000D+00  0.501240D+00
   s     1 1.00
  0.122000D+00  0.100000D+01
   p     1 1.00
  0.727000D+00  0.100000D+01
  
 12  0
   s     4 1.00
  0.130100D+02  0.196850D-01
  0.196200D+01  0.137977D+00
  0.444600D+00  0.478148D+00
  0.122000D+00  0.501240D+00
   s     1 1.00
  0.122000D+00  0.100000D+01
   p     1 1.00
  0.727000D+00  0.100000D+01
  
 13  0
   s     4 1.00
  0.130100D+02  0.196850D-01
  0.196200D+01  0.137977D+00
  0.444600D+00  0.478148D+00
  0.122000D+00  0.501240D+00
   s     1 1.00
  0.122000D+00  0.100000D+01
   p     1 1.00
  0.727000D+00  0.100000D+01
  
 14  0
   s     4 1.00
  0.130100D+02  0.196850D-01
  0.196200D+01  0.137977D+00
  0.444600D+00  0.478148D+00
  0.122000D+00  0.501240D+00
   s     1 1.00
  0.122000D+00  0.100000D+01
   p     1 1.00
  0.727000D+00  0.100000D+01
  
[MO]
 Sym= __1_a__
 Ene=  0.000000000000000E+000
 Spin= Alpha
 Occup=    2.00000000000000     
                     1  3.589652616198180E-005
                     2  0.998756670505190     
                     3  9.252965203776380E-004
                     4  1.234715363376230E-003
                     5  5.002141760686690E-003
                     6  3.020898583921920E-003
                     7  6.503468089971150E-003
                     8  0.000000000000000E+000
                     9 -7.271622243082350E-004
                    10 -6.009001032209089E-004
                    11  0.000000000000000E+000
                    12 -2.019251134437630E-003
                    13 -2.196892750022270E-003
                    14  0.000000000000000E+000
                    15 -4.146350481562216E-005
                    16  0.000000000000000E+000
                    17  0.000000000000000E+000
                    18 -2.505365900829000E-004
                    19 -3.354979503277800E-006
                    20  1.445720496045942E-004
                    21  0.000000000000000E+000
                    22  0.000000000000000E+000
                    23 -2.061023842822600E-004
                    24  3.131771897908430E-004
                    25  0.000000000000000E+000
                    26 -7.748973683530443E-006
                    27 -4.412293890645232E-005
                    28  0.000000000000000E+000
                    29  0.000000000000000E+000
                    30  2.085307226806518E-005
                    31 -1.152484684006983E-004
                    32 -2.860392877012480E-004
                    33  1.099416732862230E-003
                    34  2.642688989414290E-004
                    35 -3.011978278358990E-004
                    36 -1.486733193762140E-004
                    37 -3.965753110986770E-003
                    38  0.000000000000000E+000
                    39  5.050992198459660E-004
                    40  2.238427670696990E-005
                    41  0.000000000000000E+000
                    42 -2.193397415156910E-003
                    43  5.476038176733080E-003
                    44  0.000000000000000E+000
                    45 -2.213631156956129E-005
                    46  0.000000000000000E+000
                    47  0.000000000000000E+000
                    48 -2.094304062781560E-004
                    49 -3.078002042151920E-006
                    50 -2.497302782597884E-004
                    51  0.000000000000000E+000
                    52  0.000000000000000E+000
                    53 -1.118644159869492E-004
                    54  5.886183673137060E-004
                    55  0.000000000000000E+000
                    56 -1.444501012440987E-005
                    57 -4.195464934050462E-005
                    58  0.000000000000000E+000
                    59  0.000000000000000E+000
                    60  7.110209752268578E-007
                    61 -1.084856698118415E-004
                    62 -5.234087374918900E-004
                    63 -2.220418248809000E-003
                    64 -7.936972562077620E-005
                    65  2.094002393878140E-003
                    66 -5.722958096898250E-004
                    67  3.713382004052600E-004
                    68  0.000000000000000E+000
                    69  3.968798865156020E-004
                    70  7.155777185993260E-004
                    71  0.000000000000000E+000
                    72 -1.801268632282040E-003
                    73  6.657027046591960E-004
                    74  0.000000000000000E+000
                    75 -4.228989458184446E-005
                    76  0.000000000000000E+000
                    77  0.000000000000000E+000
                    78 -7.176937936227480E-005
                    79 -2.629943268500650E-005
                    80 -1.455856573150602E-004
                    81  0.000000000000000E+000
                    82  0.000000000000000E+000
                    83  2.652254869167580E-005
                    84  1.180673810533640E-005
                    85  0.000000000000000E+000
                    86  4.304586659273372E-006
                    87 -4.270554370891665E-005
                    88  0.000000000000000E+000
                    89  0.000000000000000E+000
                    90 -1.164473396077237E-005
                    91 -1.495531361836774E-004
                    92 -1.516744635192190E-004
                    93 -9.248266606963819E-004
                    94  1.827849559781310E-004
                    95 -9.541007996921240E-005
                    96  4.471712065411200E-004
                    97  4.848197326104140E-004
                    98  0.000000000000000E+000
                    99  3.244895346627230E-004
                   100  2.364424198925400E-004
                   101  0.000000000000000E+000
                   102  6.425162198352590E-004
                   103 -1.379403422851660E-003
                   104  0.000000000000000E+000
                   105 -1.247345822682253E-005
                   106  0.000000000000000E+000
                   107  0.000000000000000E+000
                   108 -5.195278658246780E-005
                   109 -1.323094951882940E-005
                   110  1.391378445740807E-004
                   111  0.000000000000000E+000
                   112  0.000000000000000E+000
                   113 -1.113321932312362E-004
                   114  2.109876643794330E-006
                   115  0.000000000000000E+000
                   116 -2.508757713957767E-005
                   117 -3.370395843489586E-005
                   118  0.000000000000000E+000
                   119  0.000000000000000E+000
                   120  1.568884409539270E-005
                   121 -3.398505847735198E-005
                   122 -2.960882573985600E-004
                   123 -6.955518694088490E-004
                   124  1.642595830682500E-004
                   125  4.836757662017560E-004
                   126 -2.400229387135720E-005
                   127 -4.514005737613330E-004
                   128  0.000000000000000E+000
                   129  2.361037669434780E-004
                   130  5.777344307344430E-004
                   131  0.000000000000000E+000
                   132  3.115967029819060E-004
                   133  1.984845116110620E-003
                   134  0.000000000000000E+000
                   135  7.663951026965222E-006
                   136  0.000000000000000E+000
                   137  0.000000000000000E+000
                   138  4.212727913810020E-005
                   139 -1.832732622680530E-006
                   140  2.062750320891686E-004
                   141  0.000000000000000E+000
                   142  0.000000000000000E+000
                   143  3.425699916537060E-004
                   144  2.259409767320340E-004
                   145  0.000000000000000E+000
                   146 -9.413048257086393E-006
                   147 -5.809194442765178E-005
                   148  0.000000000000000E+000
                   149  0.000000000000000E+000
                   150 -1.642003026509698E-005
                   151 -4.530755606249662E-005
                   152 -2.079914615678830E-004
                   153 -4.370898218748520E-004
                   154  3.840632959084730E-005
                   155  4.899066755703920E-004
                   156 -2.115355134333870E-005
                   157 -3.685284112066900E-004
                   158  0.000000000000000E+000
                   159 -2.645510111688160E-006
                   160  3.887609273334280E-005
                   161  0.000000000000000E+000
                   162  6.646448826709460E-004
                   163 -2.092187759500400E-004
                   164  0.000000000000000E+000
                   165 -3.437742260522014E-006
                   166  0.000000000000000E+000
                   167  0.000000000000000E+000
                   168 -3.772167265499240E-006
                   169  7.400369326474690E-006
                   170  6.201007259344896E-005
                   171  0.000000000000000E+000
                   172  0.000000000000000E+000
                   173  1.225892708250792E-005
                   174 -2.457233539286550E-005
                   175  0.000000000000000E+000
                   176  5.508157301141095E-006
                   177 -9.619508842490786E-006
                   178  0.000000000000000E+000
                   179  0.000000000000000E+000
                   180 -2.331626657975480E-005
                   181 -9.225939170264320E-006
                   182 -1.845746224721610E-004
                   183 -5.380305158794250E-004
                   184  5.758508042344820E-005
                   185  2.810604082472050E-004
                   186 -3.648527603010540E-005
                   187 -4.930564597138770E-005
                   188  0.000000000000000E+000
                   189  1.927479061515330E-004
                   190  6.682970647433270E-005
                   191  0.000000000000000E+000
                   192  1.228727570624030E-003
                   193 -1.727715017772580E-004
                   194  0.000000000000000E+000
                   195 -1.738811875789638E-006
                   196  0.000000000000000E+000
                   197  0.000000000000000E+000
                   198 -1.292503868402510E-005
                   199  6.253682485131840E-006
                   200  3.077959756504368E-005
                   201  0.000000000000000E+000
                   202  0.000000000000000E+000
                   203 -8.496242685549780E-005
                   204 -1.757760124029130E-004
                   205  0.000000000000000E+000
                   206 -6.011944715072045E-006
                   207 -6.916929138929289E-006
                   208  0.000000000000000E+000
                   209  0.000000000000000E+000
                   210  1.025959785155511E-005
                   211 -1.737336915577639E-007
                   212 -1.959486470384300E-005
                   213  7.543446534358551E-005
                   214  1.380311377287640E-004
                   215  1.252162115580910E-004
                   216  0.000000000000000E+000
                   217 -5.118756547043000E-004
                   218 -3.022710202036740E-004
                   219 -2.059949890194710E-004
                   220  1.002413150275550E-004
                   221  0.000000000000000E+000
                   222 -3.430113082580310E-004
                   223 -7.006235359594910E-004
                   224  4.445813430719000E-006
                   225 -6.462263439909569E-005
                   226  0.000000000000000E+000
                   227 -1.589931703543580E-004
                   228 -5.815666479304590E-004
                   229 -8.288809290192750E-006
                   230 -1.961972677983320E-005
                   231  0.000000000000000E+000
                   232 -3.233016612829840E-005
                   233 -5.797069159391390E-004
                   234  7.482295502809150E-006
                   235 -6.687687982190270E-006
                   236  0.000000000000000E+000
                   237 -1.206682759865220E-004
                   238 -3.857064593587830E-004
                   239  6.889726974759430E-006
                   240  2.535206062864780E-006
                   241  0.000000000000000E+000
                   242  1.133355373812650E-005
                   243 -3.323100297258310E-005
                   244  5.497881541061760E-007
                   245  2.141190581908320E-005
                   246  0.000000000000000E+000
 Sym= __2_a__
 Ene=  0.000000000000000E+000
 Spin= Alpha
 Occup=    2.00000000000000     
                     1 -5.701443777236010E-005
                     2 -3.571025584460760E-004
                     3  3.064915123488740E-003
                     4  1.722582848109040E-004
                     5  1.329382623433910E-003
                     6 -9.106946380908249E-005
                     7  2.867480713734750E-003
                     8  0.000000000000000E+000
                     9 -1.851024007816430E-005
                    10 -1.318164639377730E-004
                    11  0.000000000000000E+000
                    12  1.751167778703800E-005
                    13 -3.618685058889370E-004
                    14  0.000000000000000E+000
                    15  3.210130524854759E-005
                    16  0.000000000000000E+000
                    17  0.000000000000000E+000
                    18 -4.752094814375360E-005
                    19  9.534954162051760E-006
                    20 -1.104248441911376E-004
                    21  0.000000000000000E+000
                    22  0.000000000000000E+000
                    23  1.002648010262006E-004
                    24  7.626386865146030E-008
                    25  0.000000000000000E+000
                    26 -5.079209908978083E-006
                    27  8.721322168635536E-005
                    28  0.000000000000000E+000
                    29  0.000000000000000E+000
                    30 -2.507715998137939E-006
                    31  1.551175979402453E-004
                    32   1.00100924398520     
                    33  9.266194383875241E-003
                    34  2.753322211327190E-003
                    35 -8.141785828871579E-003
                    36 -9.246019233997999E-005
                    37 -3.649657883450090E-003
                    38  0.000000000000000E+000
                    39  1.355581461752640E-004
                    40  5.680059035760490E-004
                    41  0.000000000000000E+000
                    42  2.589055472640860E-005
                    43  4.239828679905600E-003
                    44  0.000000000000000E+000
                    45 -5.719832764707609E-004
                    46  0.000000000000000E+000
                    47  0.000000000000000E+000
                    48 -2.013802674336440E-004
                    49  2.711483276125890E-006
                    50  5.519751881049236E-004
                    51  0.000000000000000E+000
                    52  0.000000000000000E+000
                    53 -8.439255056424240E-004
                    54  3.828514545912440E-005
                    55  0.000000000000000E+000
                    56 -5.787733155205183E-006
                    57  9.207656396087628E-005
                    58  0.000000000000000E+000
                    59  0.000000000000000E+000
                    60  5.595958216549596E-006
                    61  3.961286036427151E-004
                    62  9.286194381918170E-003
                    63 -2.086279447690550E-003
                    64 -2.949623885148580E-004
                    65  3.059917245444660E-003
                    66 -2.405300362617750E-005
                    67  1.126459401738230E-004
                    68  0.000000000000000E+000
                    69  7.212904285894580E-004
                    70  1.709854809673930E-005
                    71  0.000000000000000E+000
                    72 -2.042499729029430E-003
                    73  7.381459613868770E-005
                    74  0.000000000000000E+000
                    75  2.761482865999574E-005
                    76  0.000000000000000E+000
                    77  0.000000000000000E+000
                    78 -2.622766663450340E-006
                    79  3.515017058088750E-006
                    80 -4.147616786172632E-004
                    81  0.000000000000000E+000
                    82  0.000000000000000E+000
                    83 -5.866281746786980E-004
                    84 -3.705632950307250E-004
                    85  0.000000000000000E+000
                    86  3.195725793046479E-005
                    87 -5.880509052846879E-005
                    88  0.000000000000000E+000
                    89  0.000000000000000E+000
                    90  5.021373263034212E-005
                    91  1.392560736579856E-004
                    92  9.561865449714709E-003
                    93 -2.053550764674850E-003
                    94 -2.761674045523020E-004
                    95  2.989354228065880E-003
                    96 -4.352726849529430E-006
                    97  7.945930587426990E-005
                    98  0.000000000000000E+000
                    99 -6.512799139163310E-004
                   100  7.104214352959290E-005
                   101  0.000000000000000E+000
                   102  2.044040433910100E-003
                   103  7.421617193404810E-005
                   104  0.000000000000000E+000
                   105  3.131834614382305E-005
                   106  0.000000000000000E+000
                   107  0.000000000000000E+000
                   108 -5.380279215866400E-006
                   109 -7.299854030598730E-006
                   110 -4.089547739578027E-004
                   111  0.000000000000000E+000
                   112  0.000000000000000E+000
                   113 -6.095041961132740E-004
                   114  3.496754631781810E-004
                   115  0.000000000000000E+000
                   116 -3.312224121644615E-005
                   117 -6.002153746176798E-005
                   118  0.000000000000000E+000
                   119  0.000000000000000E+000
                   120 -4.953074446169492E-005
                   121  1.381888053095921E-004
                   122 -1.559612433740030E-004
                   123 -6.753663417790500E-004
                   124  2.284173565640120E-004
                   125 -1.207449349016300E-004
                   126 -3.445779097045720E-007
                   127 -3.422969983505250E-004
                   128  0.000000000000000E+000
                   129 -6.240479983441830E-005
                   130  5.443136499180720E-004
                   131  0.000000000000000E+000
                   132  3.213783019480860E-004
                   133  7.500312393679530E-004
                   134  0.000000000000000E+000
                   135  1.954390084960375E-005
                   136  0.000000000000000E+000
                   137  0.000000000000000E+000
                   138  3.898566654258620E-006
                   139  5.313178952660480E-005
                   140  1.368862298119241E-004
                   141  0.000000000000000E+000
                   142  0.000000000000000E+000
                   143  2.454455560700020E-004
                   144 -1.862565858874460E-004
                   145  0.000000000000000E+000
                   146  7.011280037999080E-006
                   147 -3.349010605246724E-005
                   148  0.000000000000000E+000
                   149  0.000000000000000E+000
                   150 -4.689580886321435E-005
                   151  2.766285804956014E-005
                   152 -1.526408184024820E-004
                   153 -6.826821097979300E-004
                   154  2.304651303803110E-004
                   155 -1.372157312535880E-004
                   156  2.502941253095640E-006
                   157 -3.349255219982880E-004
                   158  0.000000000000000E+000
                   159  5.332838001874170E-005
                   160  5.638891147430230E-004