[Molden Format]
[Atoms] AU
  N     1    7    -4.4575939100    0.1554248300   -0.0942276800        
  C     2    6    -1.7702173200   -0.0161912600   -0.0405430900        
  C     3    6    -0.4100154000    0.0423396700   -2.3004627500        
  C     4    6    -0.4468628100   -0.0558462800    2.2354699400        
  C     5    6     2.2021325800    0.0315428500   -2.2681927900        
  C     6    6     2.1726846500   -0.0370643500    2.2450681600        
  C     7    6     3.5122596800   -0.0008988700    0.0009113900        
  H     8    1    -5.1899926500   -1.1074979300   -1.3617121400        
  H     9    1    -5.1776571100   -0.2994471500    1.6419838500        
  H    10    1    -1.4048308700    0.1058059900   -4.0662794100        
  H    11    1    -1.4616307900   -0.1055677600    3.9912073100        
  H    12    1     3.2198342300    0.0640860200   -4.0234062500        
  H    13    1     3.1610343300   -0.0672052600    4.0170830000        
  H    14    1     5.5401759400    0.0021727100    0.0146823200        
[5D]
[7F]
[GTO]
  1  0
   s    12 1.00
  0.114200D+05  0.172695D-04
  0.171200D+04  0.134411D-03
  0.389300D+03  0.694561D-03
  0.110000D+03  0.278531D-02
  0.355700D+02  0.863457D-02
  0.125400D+02  0.199805D-01
  0.464400D+01  0.262908D-01
  0.129300D+01 -0.243845D-01
  0.511800D+00 -0.924934D-01
  0.178700D+00 -0.339683D+00
  0.246240D-01  0.345111D+00
  0.112530D-01  0.752750D+00
   s    10 1.00
  0.114200D+05  0.523000D-03
  0.171200D+04  0.404500D-02
  0.389300D+03  0.207750D-01
  0.110000D+03  0.807269D-01
  0.355700D+02  0.233074D+00
  0.125400D+02  0.433501D+00
  0.464400D+01  0.347472D+00
  0.129300D+01  0.412620D-01
  0.511800D+00 -0.850799D-02
  0.178700D+00  0.238400D-02
   s    10 1.00
  0.114200D+05 -0.115000D-03
  0.171200D+04 -0.895000D-03
  0.389300D+03 -0.462400D-02
  0.110000D+03 -0.185280D-01
  0.355700D+02 -0.573390D-01
  0.125400D+02 -0.132076D+00
  0.464400D+01 -0.172510D+00
  0.129300D+01  0.151814D+00
  0.511800D+00  0.599944D+00
  0.178700D+00  0.387462D+00
   s     1 1.00
  0.129300D+01  0.100000D+01
   s     1 1.00
  0.178700D+00  0.100000D+01
   p     5 1.00
  0.266300D+02  0.146700D-01
  0.594800D+01  0.917640D-01
  0.174200D+01  0.298683D+00
  0.555000D+00  0.498487D+00
  0.172500D+00  0.337023D+00
   p     1 1.00
  0.174200D+01  0.100000D+01
   p     1 1.00
  0.555000D+00  0.100000D+01
   d     1 1.00
  0.165400D+01  0.100000D+01
   d     1 1.00
  0.469000D+00  0.100000D+01
   f     1 1.00
  0.109300D+01  0.100000D+01
  
  2  0
   s    10 1.00
  0.823600D+04  0.531000D-03
  0.123500D+04  0.410800D-02
  0.280800D+03  0.210870D-01
  0.792700D+02  0.818530D-01
  0.255900D+02  0.234817D+00
  0.899700D+01  0.434401D+00
  0.331900D+01  0.346129D+00
  0.905900D+00  0.393780D-01
  0.364300D+00 -0.898300D-02
  0.128500D+00  0.238500D-02
   s    10 1.00
  0.823600D+04 -0.113000D-03
  0.123500D+04 -0.878000D-03
  0.280800D+03 -0.454000D-02
  0.792700D+02 -0.181330D-01
  0.255900D+02 -0.557600D-01
  0.899700D+01 -0.126895D+00
  0.331900D+01 -0.170352D+00
  0.905900D+00  0.140382D+00
  0.364300D+00  0.598684D+00
  0.128500D+00  0.395389D+00
   s     1 1.00
  0.905900D+00  0.100000D+01
   s     1 1.00
  0.364300D+00  0.100000D+01
   p     5 1.00
  0.187100D+02  0.140310D-01
  0.413300D+01  0.868660D-01
  0.120000D+01  0.290216D+00
  0.382700D+00  0.501008D+00
  0.120900D+00  0.343406D+00
   p     1 1.00
  0.382700D+00  0.100000D+01
   p     1 1.00
  0.120900D+00  0.100000D+01
   d     1 1.00
  0.109700D+01  0.100000D+01
   d     1 1.00
  0.318000D+00  0.100000D+01
   f     1 1.00
  0.761000D+00  0.100000D+01
  
  3  0
   s    10 1.00
  0.823600D+04  0.531000D-03
  0.123500D+04  0.410800D-02
  0.280800D+03  0.210870D-01
  0.792700D+02  0.818530D-01
  0.255900D+02  0.234817D+00
  0.899700D+01  0.434401D+00
  0.331900D+01  0.346129D+00
  0.905900D+00  0.393780D-01
  0.364300D+00 -0.898300D-02
  0.128500D+00  0.238500D-02
   s    10 1.00
  0.823600D+04 -0.113000D-03
  0.123500D+04 -0.878000D-03
  0.280800D+03 -0.454000D-02
  0.792700D+02 -0.181330D-01
  0.255900D+02 -0.557600D-01
  0.899700D+01 -0.126895D+00
  0.331900D+01 -0.170352D+00
  0.905900D+00  0.140382D+00
  0.364300D+00  0.598684D+00
  0.128500D+00  0.395389D+00
   s     1 1.00
  0.905900D+00  0.100000D+01
   s     1 1.00
  0.364300D+00  0.100000D+01
   p     5 1.00
  0.187100D+02  0.140310D-01
  0.413300D+01  0.868660D-01
  0.120000D+01  0.290216D+00
  0.382700D+00  0.501008D+00
  0.120900D+00  0.343406D+00
   p     1 1.00
  0.382700D+00  0.100000D+01
   p     1 1.00
  0.120900D+00  0.100000D+01
   d     1 1.00
  0.109700D+01  0.100000D+01
   d     1 1.00
  0.318000D+00  0.100000D+01
   f     1 1.00
  0.761000D+00  0.100000D+01
  
  4  0
   s    10 1.00
  0.823600D+04  0.531000D-03
  0.123500D+04  0.410800D-02
  0.280800D+03  0.210870D-01
  0.792700D+02  0.818530D-01
  0.255900D+02  0.234817D+00
  0.899700D+01  0.434401D+00
  0.331900D+01  0.346129D+00
  0.905900D+00  0.393780D-01
  0.364300D+00 -0.898300D-02
  0.128500D+00  0.238500D-02
   s    10 1.00
  0.823600D+04 -0.113000D-03
  0.123500D+04 -0.878000D-03
  0.280800D+03 -0.454000D-02
  0.792700D+02 -0.181330D-01
  0.255900D+02 -0.557600D-01
  0.899700D+01 -0.126895D+00
  0.331900D+01 -0.170352D+00
  0.905900D+00  0.140382D+00
  0.364300D+00  0.598684D+00
  0.128500D+00  0.395389D+00
   s     1 1.00
  0.905900D+00  0.100000D+01
   s     1 1.00
  0.364300D+00  0.100000D+01
   p     5 1.00
  0.187100D+02  0.140310D-01
  0.413300D+01  0.868660D-01
  0.120000D+01  0.290216D+00
  0.382700D+00  0.501008D+00
  0.120900D+00  0.343406D+00
   p     1 1.00
  0.382700D+00  0.100000D+01
   p     1 1.00
  0.120900D+00  0.100000D+01
   d     1 1.00
  0.109700D+01  0.100000D+01
   d     1 1.00
  0.318000D+00  0.100000D+01
   f     1 1.00
  0.761000D+00  0.100000D+01
  
  5  0
   s    10 1.00
  0.823600D+04  0.531000D-03
  0.123500D+04  0.410800D-02
  0.280800D+03  0.210870D-01
  0.792700D+02  0.818530D-01
  0.255900D+02  0.234817D+00
  0.899700D+01  0.434401D+00
  0.331900D+01  0.346129D+00
  0.905900D+00  0.393780D-01
  0.364300D+00 -0.898300D-02
  0.128500D+00  0.238500D-02
   s    10 1.00
  0.823600D+04 -0.113000D-03
  0.123500D+04 -0.878000D-03
  0.280800D+03 -0.454000D-02
  0.792700D+02 -0.181330D-01
  0.255900D+02 -0.557600D-01
  0.899700D+01 -0.126895D+00
  0.331900D+01 -0.170352D+00
  0.905900D+00  0.140382D+00
  0.364300D+00  0.598684D+00
  0.128500D+00  0.395389D+00
   s     1 1.00
  0.905900D+00  0.100000D+01
   s     1 1.00
  0.364300D+00  0.100000D+01
   p     5 1.00
  0.187100D+02  0.140310D-01
  0.413300D+01  0.868660D-01
  0.120000D+01  0.290216D+00
  0.382700D+00  0.501008D+00
  0.120900D+00  0.343406D+00
   p     1 1.00
  0.382700D+00  0.100000D+01
   p     1 1.00
  0.120900D+00  0.100000D+01
   d     1 1.00
  0.109700D+01  0.100000D+01
   d     1 1.00
  0.318000D+00  0.100000D+01
   f     1 1.00
  0.761000D+00  0.100000D+01
  
  6  0
   s    10 1.00
  0.823600D+04  0.531000D-03
  0.123500D+04  0.410800D-02
  0.280800D+03  0.210870D-01
  0.792700D+02  0.818530D-01
  0.255900D+02  0.234817D+00
  0.899700D+01  0.434401D+00
  0.331900D+01  0.346129D+00
  0.905900D+00  0.393780D-01
  0.364300D+00 -0.898300D-02
  0.128500D+00  0.238500D-02
   s    10 1.00
  0.823600D+04 -0.113000D-03
  0.123500D+04 -0.878000D-03
  0.280800D+03 -0.454000D-02
  0.792700D+02 -0.181330D-01
  0.255900D+02 -0.557600D-01
  0.899700D+01 -0.126895D+00
  0.331900D+01 -0.170352D+00
  0.905900D+00  0.140382D+00
  0.364300D+00  0.598684D+00
  0.128500D+00  0.395389D+00
   s     1 1.00
  0.905900D+00  0.100000D+01
   s     1 1.00
  0.364300D+00  0.100000D+01
   p     5 1.00
  0.187100D+02  0.140310D-01
  0.413300D+01  0.868660D-01
  0.120000D+01  0.290216D+00
  0.382700D+00  0.501008D+00
  0.120900D+00  0.343406D+00
   p     1 1.00
  0.382700D+00  0.100000D+01
   p     1 1.00
  0.120900D+00  0.100000D+01
   d     1 1.00
  0.109700D+01  0.100000D+01
   d     1 1.00
  0.318000D+00  0.100000D+01
   f     1 1.00
  0.761000D+00  0.100000D+01
  
  7  0
   s    10 1.00
  0.823600D+04  0.531000D-03
  0.123500D+04  0.410800D-02
  0.280800D+03  0.210870D-01
  0.792700D+02  0.818530D-01
  0.255900D+02  0.234817D+00
  0.899700D+01  0.434401D+00
  0.331900D+01  0.346129D+00
  0.905900D+00  0.393780D-01
  0.364300D+00 -0.898300D-02
  0.128500D+00  0.238500D-02
   s    10 1.00
  0.823600D+04 -0.113000D-03
  0.123500D+04 -0.878000D-03
  0.280800D+03 -0.454000D-02
  0.792700D+02 -0.181330D-01
  0.255900D+02 -0.557600D-01
  0.899700D+01 -0.126895D+00
  0.331900D+01 -0.170352D+00
  0.905900D+00  0.140382D+00
  0.364300D+00  0.598684D+00
  0.128500D+00  0.395389D+00
   s     1 1.00
  0.905900D+00  0.100000D+01
   s     1 1.00
  0.364300D+00  0.100000D+01
   p     5 1.00
  0.187100D+02  0.140310D-01
  0.413300D+01  0.868660D-01
  0.120000D+01  0.290216D+00
  0.382700D+00  0.501008D+00
  0.120900D+00  0.343406D+00
   p     1 1.00
  0.382700D+00  0.100000D+01
   p     1 1.00
  0.120900D+00  0.100000D+01
   d     1 1.00
  0.109700D+01  0.100000D+01
   d     1 1.00
  0.318000D+00  0.100000D+01
   f     1 1.00
  0.761000D+00  0.100000D+01
  
  8  0
   s     4 1.00
  0.130100D+02  0.196850D-01
  0.196200D+01  0.137977D+00
  0.444600D+00  0.478148D+00
  0.122000D+00  0.501240D+00
   s     1 1.00
  0.122000D+00  0.100000D+01
   p     1 1.00
  0.727000D+00  0.100000D+01
  
  9  0
   s     4 1.00
  0.130100D+02  0.196850D-01
  0.196200D+01  0.137977D+00
  0.444600D+00  0.478148D+00
  0.122000D+00  0.501240D+00
   s     1 1.00
  0.122000D+00  0.100000D+01
   p     1 1.00
  0.727000D+00  0.100000D+01
  
 10  0
   s     4 1.00
  0.130100D+02  0.196850D-01
  0.196200D+01  0.137977D+00
  0.444600D+00  0.478148D+00
  0.122000D+00  0.501240D+00
   s     1 1.00
  0.122000D+00  0.100000D+01
   p     1 1.00
  0.727000D+00  0.100000D+01
  
 11  0
   s     4 1.00
  0.130100D+02  0.196850D-01
  0.196200D+01  0.137977D+00
  0.444600D+00  0.478148D+00
  0.122000D+00  0.501240D+00
   s     1 1.00
  0.122000D+00  0.100000D+01
   p     1 1.00
  0.727000D+00  0.100000D+01
  
 12  0
   s     4 1.00
  0.130100D+02  0.196850D-01
  0.196200D+01  0.137977D+00
  0.444600D+00  0.478148D+00
  0.122000D+00  0.501240D+00
   s     1 1.00
  0.122000D+00  0.100000D+01
   p     1 1.00
  0.727000D+00  0.100000D+01
  
 13  0
   s     4 1.00
  0.130100D+02  0.196850D-01
  0.196200D+01  0.137977D+00
  0.444600D+00  0.478148D+00
  0.122000D+00  0.501240D+00
   s     1 1.00
  0.122000D+00  0.100000D+01
   p     1 1.00
  0.727000D+00  0.100000D+01
  
 14  0
   s     4 1.00
  0.130100D+02  0.196850D-01
  0.196200D+01  0.137977D+00
  0.444600D+00  0.478148D+00
  0.122000D+00  0.501240D+00
   s     1 1.00
  0.122000D+00  0.100000D+01
   p     1 1.00
  0.727000D+00  0.100000D+01
  
[MO]
 Sym= __1_A__
 Ene=   1.00000000000000     
 Spin= Alpha
 Occup=    1.00000000000000     
                     1  2.255024904271277E-004
                     2  0.998069637032886     
                     3  3.748167753208484E-003
                     4  1.922887822853985E-003
                     5  5.575849483998979E-003
                     6  5.504764136636290E-003
                     7 -4.661040728744089E-003
                     8  1.661992913498899E-003
                     9 -7.710633127953872E-004
                    10  2.510629332183812E-004
                    11 -1.880575897904095E-004
                    12 -1.394086328874770E-003
                    13  3.038760537264261E-003
                    14 -1.005922920851448E-003
                    15 -7.028137970834321E-006
                    16 -2.707855206916465E-005
                    17  1.682380924324612E-007
                    18  7.319160446422153E-005
                    19  6.138879055920407E-005
                    20 -3.599320852879914E-004
                    21  1.971689377389464E-004
                    22 -9.880336758999311E-005
                    23  6.068147746513020E-005
                    24 -4.671367123127341E-004
                    25 -4.155403188800391E-005
                    26 -1.386974847783371E-004
                    27 -4.742297716964334E-005
                    28  4.621844068993136E-005
                    29 -1.757193064275037E-005
                    30 -1.018764236193172E-004
                    31 -4.952093862574877E-005
                    32 -3.837300273121231E-004
                    33  9.253033589254606E-004
                    34  2.426173379760042E-004
                    35 -1.043565046212670E-004
                    36 -4.363017282622058E-003
                    37 -1.965422514038294E-005
                    38 -9.901812743278857E-005
                    39  2.073555720806135E-004
                    40 -2.044089711841147E-005
                    41  2.948412852851023E-004
                    42  4.844757097190903E-003
                    43  7.793030926191846E-004
                    44 -1.422730519042958E-003
                    45 -2.220725755678723E-004
                    46  1.538793173747646E-005
                    47  4.785108679223653E-006
                    48  2.063172726313860E-004
                    49  4.698744685310849E-005
                    50  4.719890050968222E-004
                    51  2.241454183199083E-004
                    52 -3.317791389417707E-005
                    53 -5.762384736520716E-005
                    54 -3.509614141427654E-004
                    55  1.599024857773005E-005
                    56 -5.980215117871484E-005
                    57  8.754759234149633E-006
                    58  1.180002005731006E-005
                    59  1.298241833495383E-006
                    60 -3.486691366620620E-005
                    61  3.429336568515124E-005
                    62 -4.877073559870547E-004
                    63 -2.210870477381649E-003
                    64  4.072936777866750E-005
                    65  1.459888785839042E-003
                    66  5.273909162351675E-004
                    67 -9.101458203486210E-005
                    68 -6.265054602478461E-004
                    69  7.415570675391080E-004
                    70  7.149579758865887E-005
                    71  2.815874968083908E-004
                    72  4.001950065683968E-004
                    73 -3.174538419325416E-004
                    74 -1.145106988749633E-003
                    75 -7.487698013923123E-005
                    76 -1.829490676532690E-005
                    77  1.944203576860252E-005
                    78  7.019404185148084E-005
                    79 -8.254300042858517E-006
                    80  2.550093002675806E-004
                    81  1.884011856755252E-004
                    82 -3.883277715485734E-005
                    83 -7.290573973113768E-005
                    84  4.069189016013357E-005
                    85 -1.467409471495740E-005
                    86 -8.876266026581423E-005
                    87  2.079748624679608E-005
                    88 -6.112711796877012E-006
                    89  1.320601069756823E-005
                    90 -5.870814191978293E-005
                    91 -1.209305049272660E-005
                    92 -2.265080434061355E-004
                    93 -1.354260676551974E-003
                    94  1.573882368030011E-004
                    95  2.008086529305765E-004
                    96  6.195873379609445E-004
                    97 -9.363705356008788E-005
                    98  5.401151903370358E-004
                    99  4.449288184966331E-004
                   100  8.583540025103466E-005
                   101  6.549405936238857E-005
                   102 -1.317561639283749E-003
                   103 -3.415605171211135E-004
                   104  4.507430528160525E-004
                   105 -7.323525418974241E-005
                   106  7.848550297722131E-006
                   107 -1.532933931524761E-005
                   108  5.402082422240004E-005
                   109 -1.012128589191839E-005
                   110  1.020630084368186E-004
                   111 -1.904830113125021E-004
                   112  1.620554940228111E-005
                   113 -1.706804198587013E-004
                   114  5.990221918391336E-005
                   115 -1.274460209849162E-006
                   116 -2.136248296033549E-005
                   117  2.017329632408514E-005
                   118  1.546525883366845E-005
                   119 -1.191116393430934E-005
                   120 -3.297479290435268E-005
                   121 -9.040690635886122E-006
                   122 -2.304165084504137E-004
                   123 -4.466748547056589E-004
                   124  8.208373421798759E-005
                   125  6.353532914144052E-004
                   126 -5.591077759086981E-004
                   127 -3.773182368655269E-005
                   128  3.657561284070132E-006
                   129  3.918865541937079E-004
                   130 -2.305470607340931E-005
                   131  1.215346847286172E-004
                   132  1.695429133567641E-003
                   133  1.500652389632156E-004
                   134  7.996686654051575E-005
                   135  1.446318211456287E-005
                   136  1.730949511340967E-006
                   137 -4.217109954824477E-006
                   138 -7.175664916602462E-006
                   139  9.596899405446091E-006
                   140  1.561148038224543E-004
                   141  2.610837815994005E-004
                   142  9.725874592675685E-006
                   143 -2.701062572570064E-004
                   144 -2.162919471624827E-005
                   145 -2.114080994902477E-005
                   146 -1.796950712727079E-005
                   147  1.535066143122974E-006
                   148 -7.474532754974090E-006
                   149 -2.696028515029194E-006
                   150 -6.047799905336824E-005
                   151 -1.126178305059942E-006
                   152 -1.558489884825722E-004
                   153 -2.047695328093736E-004
                   154  2.156578947955132E-005
                   155  4.898376324449055E-004
                   156 -5.174666700958800E-004
                   157 -3.360882856102256E-005
                   158 -4.432713331063794E-005
                   159  4.632025609388345E-005
                   160 -2.962054028471510E-005
                   161  1.037820919192869E-004
                   162 -8.957629240531344E-006
                   163  1.244889226466050E-004
                   164  6.064840030720087E-004
                   165 -5.562304462445929E-006
                   166  3.069073797537032E-006
                   167  3.424294925375233E-006
                   168  7.499141497137422E-006
                   169  7.807036003944384E-006
                   170 -3.505879966427078E-006
                   171 -1.246802788461263E-004
                   172 -3.698777722205830E-006
                   173 -9.270237437440587E-005
                   174 -4.930710826001970E-006
                   175  1.336933719574516E-006
                   176 -1.150012981569107E-005
                   177  2.813323730772558E-006
                   178  7.475087212679892E-007
                   179  8.695128390346148E-007
                   180 -2.796556090664356E-005
                   181 -2.828767872811548E-006
                   182 -1.293719332201721E-004
                   183 -4.003321769249544E-004
                   184  2.855833704894543E-005
                   185  1.586843927219566E-004
                   186 -1.699010403299008E-005
                   187 -4.202509452563749E-005
                   188 -4.022687279540989E-005
                   189  9.291748502421883E-005
                   190  1.803020560791409E-005
                   191  1.725844585371667E-004
                   192 -3.732272917578608E-004
                   193 -1.138362982825185E-004
                   194  9.380203468784750E-004
                   195 -9.943888389918649E-006
                   196  1.455863046391069E-006
                   197 -2.686139448225058E-008
                   198  3.904192887995190E-006
                   199 -1.981087278669423E-006
                   200 -1.164230129211872E-004
                   201 -1.423455057809971E-004
                   202  2.287718482596253E-006
                   203  6.452533356948534E-005
                   204  1.747794050071727E-005
                   205  1.634961415032543E-006
                   206  1.112531269335843E-006
                   207  2.663894440234545E-006
                   208  1.126200793705928E-005
                   209 -5.507060211751386E-007
                   210 -5.464004365381507E-006
                   211 -2.618897801982778E-006
                   212  2.571906036240545E-003
                   213 -2.093301764903876E-003
                   214  1.667372058410773E-004
                   215  3.722656964826122E-004
                   216  2.590255843571793E-004
                   217  2.842008288305761E-003
                   218 -2.228426093546745E-003
                   219  1.933448145055693E-004
                   220  1.947123582931487E-004
                   221 -4.526234546578568E-004
                   222 -5.200370049172284E-004
                   223 -2.813905309283854E-004
                   224 -7.185589505575234E-005
                   225  8.691153635360634E-006
                   226  3.481934930289089E-005
                   227 -4.615162404059167E-004
                   228 -3.471238655303439E-004
                   229 -5.061568349729513E-005
                   230  1.241832262428246E-005
                   231 -4.164330132151611E-005
                   232 -9.229887461359349E-005
                   233 -5.491380864988339E-004
                   234  1.666818397558964E-006
                   235 -1.134001009853871E-006
                   236 -5.263030546633737E-006
                   237 -1.348747204012686E-004
                   238 -3.896986659731491E-004
                   239  9.814134434146286E-006
                   240 -2.372191467917983E-006
                   241  1.396988942173019E-005
                   242  1.532806441087831E-005
                   243  1.157631084820573E-004
                   244  2.979288317704100E-005
                   245  1.758753819051954E-006
                   246  1.112754688553437E-006
 Sym= __2_A__
 Ene=   2.00000000000000     
 Spin= Alpha
 Occup=    1.00000000000000     
                     1 -1.830151910586892E-005
                     2 -8.387665343869766E-005
                     3  1.939652096195398E-003
                     4 -1.378846761750500E-005
                     5  1.238775005551147E-003
                     6  1.908806283404346E-003
                     7  2.617293339038499E-004
                     8 -1.306912672220198E-004
                     9 -1.502093535601911E-004
                    10  9.894906572111904E-005
                    11 -1.391726604417803E-005
                    12  5.468380484964986E-005
                    13  6.277337826216102E-005
                    14  4.596160360967591E-005
                    15 -7.101842059921998E-005
                    16  7.424866202607284E-006
                    17 -5.843995099952934E-006
                    18  4.079819099277048E-005
                    19 -2.625086002393118E-006
                    20  1.776117294524705E-004
                    21 -4.382590323275221E-005
                    22  1.884067189317848E-005
                    23  1.021681024963555E-004
                    24 -4.577091687866196E-005
                    25 -3.863465407543509E-005
                    26  1.377487996166547E-004
                    27 -4.533008794200982E-005
                    28  1.244025897087845E-007
                    29  7.730781121841876E-007
                    30  1.284762461516729E-004
                    31  3.616273332641846E-005
                    32   1.00096263010669     
                    33  8.773319313987765E-003
                    34  2.789432942989786E-003
                    35 -8.238642840126311E-003
                    36 -2.554130411688405E-003
                    37  6.718344839239600E-004
                    38  7.453956425035862E-006
                    39  1.097652404035998E-003
                    40 -2.215055987336244E-004
                    41 -5.706608730751149E-005
                    42  3.408215881523761E-003
                    43 -1.253237322278266E-004
                    44 -1.240998799631853E-004
                    45  2.973540558403124E-004
                    46  1.295038322525694E-005
                    47 -1.021385097102162E-005
                    48  4.130416154798906E-004
                    49 -2.219344338956921E-005
                    50 -1.039889405498428E-003
                    51 -8.888440591021786E-005
                    52  4.510810037137948E-005
                    53 -1.173656242685027E-004
                    54  2.915691931558918E-005
                    55 -5.722233524601508E-006
                    56  3.090661049086292E-004
                    57 -8.930084848954869E-006
                    58 -8.686849244643434E-006
                    59 -2.664837401479521E-006
                    60  8.096035760755869E-005
                    61  1.777652810460670E-005
                    62  1.240727490970291E-002
                    63 -1.872164674696055E-003
                    64 -2.980268480497425E-004
                    65  3.073275041292426E-003
                    66 -1.416590690324277E-004
                    67  1.106204950883172E-004
                    68  2.694666475578322E-004
                    69  3.230372826316549E-005
                    70 -8.210455664982437E-006
                    71  4.612210259120300E-004
                    72  2.929836083657438E-004
                    73  1.181996639162406E-005
                    74 -1.856427593795638E-003
                    75 -1.039828819460950E-005
                    76  2.598352089642689E-005
                    77  9.335962024336554E-006
                    78 -3.716048403251624E-005
                    79 -4.601890377091661E-006
                    80 -4.414607034952853E-004
                    81 -4.468600848916362E-004
                    82  4.912074861802473E-006
                    83  7.741050766634946E-004
                    84  1.159528094896709E-006
                    85  4.939139392833539E-005
                    86  1.103893950117173E-004
                    87  5.323169004511484E-006
                    88 -1.580291091974424E-005
                    89 -1.129555201410475E-005
                    90 -2.657616071245968E-005
                    91  3.899668849836144E-006
                    92  1.318696026755265E-002
                    93 -1.819715597190723E-003
                    94 -3.269351768924567E-004
                    95  3.216394725899844E-003
                    96 -1.649919696150744E-004
                    97  1.243805511963034E-004
                    98 -2.597152757755050E-004
                    99  1.389161930531908E-005
                   100  1.546171262882188E-005
                   101 -5.788691470042708E-004
                   102  4.944758026105945E-005
                   103 -6.468299605250469E-005
                   104  1.798908575924466E-003
                   105 -7.521165825074800E-006
                   106 -2.186870831042318E-005
                   107 -6.433756370155863E-006
                   108 -3.454282674746718E-005
                   109 -4.438167376333751E-006
                   110 -3.885760425733414E-004
                   111  4.829948143354473E-004
                   112 -4.151224480495198E-006
                   113  7.407949639652908E-004
                   114 -8.656000658578198E-006
                   115 -5.151959510963559E-005
                   116  1.030797465113813E-004
                   117 -2.662025642444184E-006
                   118  1.829530438136711E-005
                   119  2.630051177881920E-006
                   120 -3.212115436324872E-005
                   121  5.094711982696998E-006
                   122 -1.517909720386280E-004
                   123 -7.362636961257687E-004
                   124  2.465203746543628E-004
                   125 -2.902338559385084E-004
                   126 -1.892883672786501E-004
                   127  2.471236814836168E-005
                   128 -4.842703334944843E-005
                   129  6.032490159307833E-004
                   130 -7.344692708499980E-006
                   131  6.384832366447844E-005
                   132  6.767875008902479E-004
                   133 -4.136976344405977E-006
                   134  3.793183404252974E-004
                   135  1.530884826892352E-008
                   136  4.177324006994870E-005
                   137  2.405027727261811E-007
                   138 -3.255777455534046E-005
                   139 -2.018129083385839E-006
                   140  1.971230644251961E-004
                   141 -2.614283385779036E-004
                   142  3.134623756878244E-006
                   143 -2.626321998479492E-004
                   144  3.425998688594257E-006
                   145 -1.849220321662376E-005
                   146  1.495926055292049E-005
                   147 -4.850013082594813E-007
                   148 -1.238500017124559E-005
                   149 -2.627140514242438E-006
                   150 -2.395609261788120E-005
                   151 -2.169054055850488E-007
                   152 -1.329592155979355E-004
                   153 -7.031398442216364E-004
                   154  2.563487274540752E-004
                   155 -3.443402386007529E-004
                   156 -1.809206530223717E-004
                   157  1.638646467956035E-005
                   158  3.719959524862710E-005
                   159  5.896551823882473E-004
                   160  3.668431373940486E-006