[Molden Format]
[Atoms] AU
  N     1    7     0.0000000000   -4.2907334100    0.0000000000        
  C     2    6     0.0000000000   -1.7772236300    0.0000000000        
  C     3    6    -2.3389203600   -0.4111016300    0.0000000000        
  C     4    6     2.3389203600   -0.4111016300    0.0000000000        
  C     5    6    -2.2998668500    2.1639215300    0.0000000000        
  C     6    6     2.2998668500    2.1639215300    0.0000000000        
  C     7    6     0.0000000000    3.4755251800    0.0000000000        
  H     8    1    -2.5732809600   -5.8782317900    0.0000000000        
  H     9    1     2.5732809600   -5.8782318000    0.0000000000        
  H    10    1    -4.0745407300   -1.4447408500    0.0000000000        
  H    11    1     4.0745407300   -1.4447408500    0.0000000000        
  H    12    1    -4.0420632100    3.1963889500    0.0000000000        
  H    13    1     4.0420632100    3.1963889500    0.0000000000        
  H    14    1     0.0000000000    5.5020335600    0.0000000000        
[5D]
[7F]
[GTO]
  1  0
   s    12 1.00
  0.114200D+05  0.172695D-04
  0.171200D+04  0.134411D-03
  0.389300D+03  0.694561D-03
  0.110000D+03  0.278531D-02
  0.355700D+02  0.863457D-02
  0.125400D+02  0.199805D-01
  0.464400D+01  0.262908D-01
  0.129300D+01 -0.243845D-01
  0.511800D+00 -0.924934D-01
  0.178700D+00 -0.339683D+00
  0.246240D-01  0.345111D+00
  0.112530D-01  0.752750D+00
   s    10 1.00
  0.114200D+05  0.523000D-03
  0.171200D+04  0.404500D-02
  0.389300D+03  0.207750D-01
  0.110000D+03  0.807269D-01
  0.355700D+02  0.233074D+00
  0.125400D+02  0.433501D+00
  0.464400D+01  0.347472D+00
  0.129300D+01  0.412620D-01
  0.511800D+00 -0.850799D-02
  0.178700D+00  0.238400D-02
   s    10 1.00
  0.114200D+05 -0.115000D-03
  0.171200D+04 -0.895000D-03
  0.389300D+03 -0.462400D-02
  0.110000D+03 -0.185280D-01
  0.355700D+02 -0.573390D-01
  0.125400D+02 -0.132076D+00
  0.464400D+01 -0.172510D+00
  0.129300D+01  0.151814D+00
  0.511800D+00  0.599944D+00
  0.178700D+00  0.387462D+00
   s     1 1.00
  0.129300D+01  0.100000D+01
   s     1 1.00
  0.178700D+00  0.100000D+01
   p     5 1.00
  0.266300D+02  0.146700D-01
  0.594800D+01  0.917640D-01
  0.174200D+01  0.298683D+00
  0.555000D+00  0.498487D+00
  0.172500D+00  0.337023D+00
   p     1 1.00
  0.174200D+01  0.100000D+01
   p     1 1.00
  0.555000D+00  0.100000D+01
   d     1 1.00
  0.165400D+01  0.100000D+01
   d     1 1.00
  0.469000D+00  0.100000D+01
   f     1 1.00
  0.109300D+01  0.100000D+01
  
  2  0
   s    10 1.00
  0.823600D+04  0.531000D-03
  0.123500D+04  0.410800D-02
  0.280800D+03  0.210870D-01
  0.792700D+02  0.818530D-01
  0.255900D+02  0.234817D+00
  0.899700D+01  0.434401D+00
  0.331900D+01  0.346129D+00
  0.905900D+00  0.393780D-01
  0.364300D+00 -0.898300D-02
  0.128500D+00  0.238500D-02
   s    10 1.00
  0.823600D+04 -0.113000D-03
  0.123500D+04 -0.878000D-03
  0.280800D+03 -0.454000D-02
  0.792700D+02 -0.181330D-01
  0.255900D+02 -0.557600D-01
  0.899700D+01 -0.126895D+00
  0.331900D+01 -0.170352D+00
  0.905900D+00  0.140382D+00
  0.364300D+00  0.598684D+00
  0.128500D+00  0.395389D+00
   s     1 1.00
  0.905900D+00  0.100000D+01
   s     1 1.00
  0.364300D+00  0.100000D+01
   p     5 1.00
  0.187100D+02  0.140310D-01
  0.413300D+01  0.868660D-01
  0.120000D+01  0.290216D+00
  0.382700D+00  0.501008D+00
  0.120900D+00  0.343406D+00
   p     1 1.00
  0.382700D+00  0.100000D+01
   p     1 1.00
  0.120900D+00  0.100000D+01
   d     1 1.00
  0.109700D+01  0.100000D+01
   d     1 1.00
  0.318000D+00  0.100000D+01
   f     1 1.00
  0.761000D+00  0.100000D+01
  
  3  0
   s    10 1.00
  0.823600D+04  0.531000D-03
  0.123500D+04  0.410800D-02
  0.280800D+03  0.210870D-01
  0.792700D+02  0.818530D-01
  0.255900D+02  0.234817D+00
  0.899700D+01  0.434401D+00
  0.331900D+01  0.346129D+00
  0.905900D+00  0.393780D-01
  0.364300D+00 -0.898300D-02
  0.128500D+00  0.238500D-02
   s    10 1.00
  0.823600D+04 -0.113000D-03
  0.123500D+04 -0.878000D-03
  0.280800D+03 -0.454000D-02
  0.792700D+02 -0.181330D-01
  0.255900D+02 -0.557600D-01
  0.899700D+01 -0.126895D+00
  0.331900D+01 -0.170352D+00
  0.905900D+00  0.140382D+00
  0.364300D+00  0.598684D+00
  0.128500D+00  0.395389D+00
   s     1 1.00
  0.905900D+00  0.100000D+01
   s     1 1.00
  0.364300D+00  0.100000D+01
   p     5 1.00
  0.187100D+02  0.140310D-01
  0.413300D+01  0.868660D-01
  0.120000D+01  0.290216D+00
  0.382700D+00  0.501008D+00
  0.120900D+00  0.343406D+00
   p     1 1.00
  0.382700D+00  0.100000D+01
   p     1 1.00
  0.120900D+00  0.100000D+01
   d     1 1.00
  0.109700D+01  0.100000D+01
   d     1 1.00
  0.318000D+00  0.100000D+01
   f     1 1.00
  0.761000D+00  0.100000D+01
  
  4  0
   s    10 1.00
  0.823600D+04  0.531000D-03
  0.123500D+04  0.410800D-02
  0.280800D+03  0.210870D-01
  0.792700D+02  0.818530D-01
  0.255900D+02  0.234817D+00
  0.899700D+01  0.434401D+00
  0.331900D+01  0.346129D+00
  0.905900D+00  0.393780D-01
  0.364300D+00 -0.898300D-02
  0.128500D+00  0.238500D-02
   s    10 1.00
  0.823600D+04 -0.113000D-03
  0.123500D+04 -0.878000D-03
  0.280800D+03 -0.454000D-02
  0.792700D+02 -0.181330D-01
  0.255900D+02 -0.557600D-01
  0.899700D+01 -0.126895D+00
  0.331900D+01 -0.170352D+00
  0.905900D+00  0.140382D+00
  0.364300D+00  0.598684D+00
  0.128500D+00  0.395389D+00
   s     1 1.00
  0.905900D+00  0.100000D+01
   s     1 1.00
  0.364300D+00  0.100000D+01
   p     5 1.00
  0.187100D+02  0.140310D-01
  0.413300D+01  0.868660D-01
  0.120000D+01  0.290216D+00
  0.382700D+00  0.501008D+00
  0.120900D+00  0.343406D+00
   p     1 1.00
  0.382700D+00  0.100000D+01
   p     1 1.00
  0.120900D+00  0.100000D+01
   d     1 1.00
  0.109700D+01  0.100000D+01
   d     1 1.00
  0.318000D+00  0.100000D+01
   f     1 1.00
  0.761000D+00  0.100000D+01
  
  5  0
   s    10 1.00
  0.823600D+04  0.531000D-03
  0.123500D+04  0.410800D-02
  0.280800D+03  0.210870D-01
  0.792700D+02  0.818530D-01
  0.255900D+02  0.234817D+00
  0.899700D+01  0.434401D+00
  0.331900D+01  0.346129D+00
  0.905900D+00  0.393780D-01
  0.364300D+00 -0.898300D-02
  0.128500D+00  0.238500D-02
   s    10 1.00
  0.823600D+04 -0.113000D-03
  0.123500D+04 -0.878000D-03
  0.280800D+03 -0.454000D-02
  0.792700D+02 -0.181330D-01
  0.255900D+02 -0.557600D-01
  0.899700D+01 -0.126895D+00
  0.331900D+01 -0.170352D+00
  0.905900D+00  0.140382D+00
  0.364300D+00  0.598684D+00
  0.128500D+00  0.395389D+00
   s     1 1.00
  0.905900D+00  0.100000D+01
   s     1 1.00
  0.364300D+00  0.100000D+01
   p     5 1.00
  0.187100D+02  0.140310D-01
  0.413300D+01  0.868660D-01
  0.120000D+01  0.290216D+00
  0.382700D+00  0.501008D+00
  0.120900D+00  0.343406D+00
   p     1 1.00
  0.382700D+00  0.100000D+01
   p     1 1.00
  0.120900D+00  0.100000D+01
   d     1 1.00
  0.109700D+01  0.100000D+01
   d     1 1.00
  0.318000D+00  0.100000D+01
   f     1 1.00
  0.761000D+00  0.100000D+01
  
  6  0
   s    10 1.00
  0.823600D+04  0.531000D-03
  0.123500D+04  0.410800D-02
  0.280800D+03  0.210870D-01
  0.792700D+02  0.818530D-01
  0.255900D+02  0.234817D+00
  0.899700D+01  0.434401D+00
  0.331900D+01  0.346129D+00
  0.905900D+00  0.393780D-01
  0.364300D+00 -0.898300D-02
  0.128500D+00  0.238500D-02
   s    10 1.00
  0.823600D+04 -0.113000D-03
  0.123500D+04 -0.878000D-03
  0.280800D+03 -0.454000D-02
  0.792700D+02 -0.181330D-01
  0.255900D+02 -0.557600D-01
  0.899700D+01 -0.126895D+00
  0.331900D+01 -0.170352D+00
  0.905900D+00  0.140382D+00
  0.364300D+00  0.598684D+00
  0.128500D+00  0.395389D+00
   s     1 1.00
  0.905900D+00  0.100000D+01
   s     1 1.00
  0.364300D+00  0.100000D+01
   p     5 1.00
  0.187100D+02  0.140310D-01
  0.413300D+01  0.868660D-01
  0.120000D+01  0.290216D+00
  0.382700D+00  0.501008D+00
  0.120900D+00  0.343406D+00
   p     1 1.00
  0.382700D+00  0.100000D+01
   p     1 1.00
  0.120900D+00  0.100000D+01
   d     1 1.00
  0.109700D+01  0.100000D+01
   d     1 1.00
  0.318000D+00  0.100000D+01
   f     1 1.00
  0.761000D+00  0.100000D+01
  
  7  0
   s    10 1.00
  0.823600D+04  0.531000D-03
  0.123500D+04  0.410800D-02
  0.280800D+03  0.210870D-01
  0.792700D+02  0.818530D-01
  0.255900D+02  0.234817D+00
  0.899700D+01  0.434401D+00
  0.331900D+01  0.346129D+00
  0.905900D+00  0.393780D-01
  0.364300D+00 -0.898300D-02
  0.128500D+00  0.238500D-02
   s    10 1.00
  0.823600D+04 -0.113000D-03
  0.123500D+04 -0.878000D-03
  0.280800D+03 -0.454000D-02
  0.792700D+02 -0.181330D-01
  0.255900D+02 -0.557600D-01
  0.899700D+01 -0.126895D+00
  0.331900D+01 -0.170352D+00
  0.905900D+00  0.140382D+00
  0.364300D+00  0.598684D+00
  0.128500D+00  0.395389D+00
   s     1 1.00
  0.905900D+00  0.100000D+01
   s     1 1.00
  0.364300D+00  0.100000D+01
   p     5 1.00
  0.187100D+02  0.140310D-01
  0.413300D+01  0.868660D-01
  0.120000D+01  0.290216D+00
  0.382700D+00  0.501008D+00
  0.120900D+00  0.343406D+00
   p     1 1.00
  0.382700D+00  0.100000D+01
   p     1 1.00
  0.120900D+00  0.100000D+01
   d     1 1.00
  0.109700D+01  0.100000D+01
   d     1 1.00
  0.318000D+00  0.100000D+01
   f     1 1.00
  0.761000D+00  0.100000D+01
  
  8  0
   s     4 1.00
  0.130100D+02  0.196850D-01
  0.196200D+01  0.137977D+00
  0.444600D+00  0.478148D+00
  0.122000D+00  0.501240D+00
   s     1 1.00
  0.122000D+00  0.100000D+01
   p     1 1.00
  0.727000D+00  0.100000D+01
  
  9  0
   s     4 1.00
  0.130100D+02  0.196850D-01
  0.196200D+01  0.137977D+00
  0.444600D+00  0.478148D+00
  0.122000D+00  0.501240D+00
   s     1 1.00
  0.122000D+00  0.100000D+01
   p     1 1.00
  0.727000D+00  0.100000D+01
  
 10  0
   s     4 1.00
  0.130100D+02  0.196850D-01
  0.196200D+01  0.137977D+00
  0.444600D+00  0.478148D+00
  0.122000D+00  0.501240D+00
   s     1 1.00
  0.122000D+00  0.100000D+01
   p     1 1.00
  0.727000D+00  0.100000D+01
  
 11  0
   s     4 1.00
  0.130100D+02  0.196850D-01
  0.196200D+01  0.137977D+00
  0.444600D+00  0.478148D+00
  0.122000D+00  0.501240D+00
   s     1 1.00
  0.122000D+00  0.100000D+01
   p     1 1.00
  0.727000D+00  0.100000D+01
  
 12  0
   s     4 1.00
  0.130100D+02  0.196850D-01
  0.196200D+01  0.137977D+00
  0.444600D+00  0.478148D+00
  0.122000D+00  0.501240D+00
   s     1 1.00
  0.122000D+00  0.100000D+01
   p     1 1.00
  0.727000D+00  0.100000D+01
  
 13  0
   s     4 1.00
  0.130100D+02  0.196850D-01
  0.196200D+01  0.137977D+00
  0.444600D+00  0.478148D+00
  0.122000D+00  0.501240D+00
   s     1 1.00
  0.122000D+00  0.100000D+01
   p     1 1.00
  0.727000D+00  0.100000D+01
  
 14  0
   s     4 1.00
  0.130100D+02  0.196850D-01
  0.196200D+01  0.137977D+00
  0.444600D+00  0.478148D+00
  0.122000D+00  0.501240D+00
   s     1 1.00
  0.122000D+00  0.100000D+01
   p     1 1.00
  0.727000D+00  0.100000D+01
  
[MO]
 Sym= __1_A__
 Ene=   1.00000000000000     
 Spin= Alpha
 Occup=    1.00000000000000     
                     1  4.154247603493243E-005
                     2  0.998821049887076     
                     3 -2.130605024449410E-004
                     4  1.101088933889804E-003
                     5  5.900441658243896E-003
                     6 -3.755965127688985E-009
                     7  6.897707244856204E-003
                     8  9.160766768889248E-012
                     9  6.800147178417442E-009
                    10 -8.917435150839908E-004
                    11 -2.018369647603961E-012
                    12 -2.703089951847627E-008
                    13 -2.780007105476067E-003
                    14 -5.351664673423740E-012
                    15 -5.103311060962853E-006
                    16  2.204744455705337E-013
                    17 -2.121351321732826E-013
                    18 -2.572510982211796E-004
                    19 -1.205753880764195E-010
                    20  8.108388082296239E-005
                    21  3.411404812495094E-013
                    22  6.895231188338921E-013
                    23 -2.374378373615920E-004
                    24 -1.900574012437421E-008
                    25  2.939118664057409E-013
                    26  1.061765863434348E-009
                    27 -3.930495550297464E-005
                    28  3.120973754005456E-014
                    29 -9.371786886588181E-014
                    30 -5.606895439849134E-009
                    31 -1.321700416739440E-004
                    32 -2.862363585344742E-004
                    33  5.272341603114325E-004
                    34  3.357346067371522E-004
                    35 -4.033241227479022E-004
                    36  2.560527636145632E-008
                    37 -3.056665083086078E-003
                    38  4.395112905275509E-013
                    39 -1.156787783394698E-007
                    40  7.238180288223476E-005
                    41  1.334921762137761E-013
                    42 -1.809875926014325E-007
                    43  5.754149989485529E-003
                    44 -6.713042613925014E-013
                    45 -7.208387688462075E-006
                    46 -1.949166783366841E-013
                    47  2.016663391381101E-014
                    48 -1.605419441388833E-004
                    49  2.485799953376490E-009
                    50 -2.004079589116578E-004
                    51 -5.489102389430582E-013
                    52 -4.141108973194945E-013
                    53 -7.835264184132196E-005
                    54 -1.284375211928265E-007
                    55 -3.348686107155924E-013
                    56  4.477578271150723E-009
                    57 -5.821131413633294E-005
                    58 -2.563616530337164E-013
                    59  9.320966337522865E-014
                    60  9.216611396534316E-009
                    61 -1.202953544466508E-004
                    62 -3.860989901947281E-004
                    63 -1.589865741727632E-003
                    64  5.615320048285802E-005
                    65  1.130958292460104E-003
                    66 -3.756400140501096E-004
                    67  2.907671969073314E-004
                    68  6.284789952673851E-013
                    69  4.305437149565706E-005
                    70  4.763839641768154E-004
                    71 -1.056919169899759E-012
                    72 -1.383495348481866E-003
                    73 -3.885150531001564E-004
                    74 -1.885609452977258E-012
                    75 -3.290638064364403E-005
                    76  5.834419216895194E-013
                    77 -1.485247727316121E-013
                    78 -5.165899200903750E-005
                    79 -7.655281840648053E-006
                    80  1.342673739088824E-006
                    81 -3.735707840997473E-013
                    82 -8.391384056822860E-013
                    83 -4.109243600943270E-005
                    84 -1.507899989847707E-005
                    85 -4.430635039300102E-013
                    86  1.245155603678814E-005
                    87 -3.788768482648716E-005
                    88  1.367497119446109E-013
                    89  6.602305842441832E-015
                    90 -1.240063083545357E-005
                    91 -9.606712025176756E-005
                    92 -3.860990621723222E-004
                    93 -1.589852884232512E-003
                    94  5.624067560484596E-005
                    95  1.130672165406244E-003
                    96  3.756718119294932E-004
                    97  2.908495516964496E-004
                    98 -6.174016635368418E-013
                    99 -4.321076448741076E-005
                   100  4.758853689015844E-004
                   101  7.458523867386889E-013
                   102  1.383182298288239E-003
                   103 -3.888149637984077E-004
                   104  1.382756136024718E-012
                   105 -3.289355080993386E-005
                   106  2.064002912737039E-013
                   107  1.540217601025547E-013
                   108 -5.164147787050036E-005
                   109  7.661960508314036E-006
                   110  1.398781870004389E-006
                   111 -7.934349478682216E-013
                   112  2.473331841794248E-013
                   113 -4.079646955854660E-005
                   114  1.509997431143831E-005
                   115 -1.783021145295527E-013
                   116 -1.244496333263027E-005
                   117 -3.786152134278094E-005
                   118  1.192440862263063E-013
                   119  1.975774843426430E-013
                   120  1.238090092447485E-005
                   121 -9.604359623662365E-005
                   122 -2.945350136209954E-004
                   123 -7.678906763036177E-004
                   124  1.028041592284625E-004
                   125  6.109782752525066E-004
                   126 -1.290510908902551E-005
                   127 -3.199975716341395E-004
                   128 -2.578103906051131E-012
                   129  1.328964289378306E-004
                   130  3.039404506309798E-004
                   131  1.560705178770389E-013
                   132 -1.697775886478421E-004
                   133  9.435982870657231E-004
                   134  1.336249082059027E-012
                   135  7.018582297816172E-007
                   136  1.447514716714270E-013
                   137  4.853441296641888E-013
                   138  1.987128762140968E-005
                   139 -7.836622977422084E-006
                   140  1.419185354646215E-004
                   141 -4.009956641004176E-013
                   142 -1.180996166588732E-012
                   143  1.873729626946516E-004
                   144  1.185710250365645E-004
                   145 -2.903868106218355E-013
                   146 -8.577220781124808E-006
                   147 -3.484316646348527E-005
                   148 -2.200271080737636E-013
                   149 -9.452584959500095E-014
                   150  4.417627749245820E-006
                   151 -2.951619587976655E-005
                   152 -2.947570380339686E-004
                   153 -7.686558045173321E-004
                   154  1.026751115862398E-004
                   155  6.120525514587324E-004
                   156  1.280435427931642E-005
                   157 -3.199115333621916E-004
                   158 -2.866929710663794E-012
                   159 -1.325831144251148E-004
                   160  3.034412194723069E-004
                   161  9.609983564161302E-014
                   162  1.701576935401402E-004
                   163  9.432745195753187E-004
                   164 -4.607430107254354E-013
                   165  6.820665958647958E-007
                   166 -3.833425857470158E-014
                   167 -7.587564819979790E-014
                   168  1.984967173826396E-005
                   169  7.848228974082515E-006
                   170  1.418894924487775E-004
                   171  5.073251894257049E-013
                   172 -1.870622468008489E-013
                   173  1.871622751377674E-004
                   174 -1.184878649146720E-004
                   175 -1.415057581983905E-013
                   176  8.553326319283644E-006
                   177 -3.482031688496117E-005
                   178  3.791315201538754E-014
                   179  1.843740040811124E-013
                   180 -4.391675580779059E-006
                   181 -2.948412874637925E-005
                   182 -2.173727740667366E-004
                   183 -6.608632336282094E-004
                   184  6.403371477017428E-005
                   185  3.568932907247600E-004
                   186 -5.383756412037618E-008
                   187 -3.357635895938536E-005
                   188  8.454492138134770E-013
                   189  1.949384751227446E-007
                   190  7.727447699869923E-005
                   191  9.138830247008194E-013
                   192  2.318507728871395E-007
                   193 -2.178026084214171E-004
                   194  1.581427124245624E-013
                   195 -1.692900390421420E-006
                   196 -5.376208466682979E-014
                   197  6.102975540575691E-014
                   198 -1.112053869960450E-005
                   199 -6.029315137125163E-009
                   200  3.164816121634122E-005
                   201  3.395204959590840E-015
                   202 -3.913101105865009E-013
                   203 -8.901069922207608E-005
                   204 -7.275472521636202E-008
                   205 -1.091049871339553E-013
                   206 -9.106597890410759E-009
                   207 -6.891644789497152E-006
                   208  3.142258635504330E-013
                   209  1.902294604884334E-014
                   210 -9.225743732115341E-009
                   211  1.297040974620697E-006
                   212 -3.077889310547659E-004
                   213  3.932444293100602E-006
                   214  1.077787918878940E-004
                   215  6.654016671187524E-005
                   216  4.512400866302525E-013
                   217 -3.077903110348553E-004
                   218  3.936251502889949E-006
                   219 -1.077801165244720E-004
                   220  6.653985600034711E-005
                   221  1.098671768812690E-013
                   222 -1.893857462106987E-004
                   223 -7.302607798814410E-004
                   224  1.217184879061595E-005
                   225 -4.672401205837724E-005
                   226  1.055899468563838E-014
                   227 -1.894327892649572E-004
                   228 -7.301715170577898E-004
                   229 -1.218864024084032E-005
                   230 -4.674763663753724E-005
                   231  4.443242336257265E-013
                   232 -3.277576025104115E-005
                   233 -4.920526625392100E-004
                   234  1.473913293178793E-006
                   235 -2.184456938865022E-006
                   236  1.115775787604505E-013
                   237 -3.291732114397272E-005
                   238 -4.920066357309935E-004
                   239 -1.420749105416085E-006
                   240 -2.172986945768410E-006
                   241 -3.726684718213420E-015
                   242  3.828322007097828E-006
                   243 -1.606118088432014E-005
                   244  5.009978140283828E-009
                   245  2.374754905416552E-005
                   246  3.340570515055315E-013
 Sym= __2_A__
 Ene=   2.00000000000000     
 Spin= Alpha
 Occup=    1.00000000000000     
                     1 -5.976966953711943E-005
                     2 -3.667554602399254E-004
                     3  3.115968077594399E-003
                     4  1.762503857800975E-004
                     5  1.335047513293228E-003
                     6  1.370955934827628E-009
                     7  2.731569891106061E-003
                     8  9.548010630421116E-014
                     9 -2.038529301610222E-009
                    10 -1.433541174633547E-004
                    11 -6.863384941158042E-013
                    12  5.786641654230907E-009
                    13 -3.173211008615243E-004
                    14  1.132408386657192E-013
                    15  2.891560806513649E-005
                    16 -1.179540809572411E-013
                    17 -1.510646201056094E-013
                    18 -4.201262855020300E-005
                    19  5.200812241513917E-010
                    20 -1.007824259708407E-004
                    21  4.942748188155233E-014
                    22  2.596050560207279E-013
                    23  7.041483727609156E-005
                    24  2.010123477196681E-009
                    25  7.666304625704334E-014
                    26  5.074449325328804E-010
                    27  8.564376709379168E-005
                    28 -7.514914860724224E-014
                    29  5.677495910433208E-014
                    30  1.723036477221459E-009
                    31  1.614693817551124E-004
                    32   1.00099980434027     
                    33  9.180024590188345E-003
                    34  2.779301772033598E-003
                    35 -8.161998609660274E-003
                    36 -3.765551805371906E-009
                    37 -3.576719467620290E-003
                    38 -6.422331579995122E-014
                    39  3.055936140385890E-009
                    40  6.160747333013590E-004
                    41  1.017139609810285E-013
                    42 -2.047968782585670E-008
                    43  4.222623040839753E-003
                    44 -5.059858048181830E-013
                    45 -5.726386555667019E-004
                    46  1.154907240812657E-013
                    47  3.053354659716319E-013
                    48 -2.006100462747006E-004
                    49 -2.447096065684968E-009
                    50  5.569514260331289E-004
                    51  3.275654025925562E-013
                    52  1.577063145738290E-013
                    53 -8.027014362669556E-004
                    54  1.475047836572681E-008
                    55 -9.233139374468552E-014
                    56  1.378673136163471E-009
                    57  9.211252563128493E-005
                    58 -5.949464326776011E-014
                    59 -1.868576928712903E-013
                    60 -9.459991935648647E-010
                    61  3.902143751357753E-004
                    62  9.589828006419124E-003
                    63 -2.043239633709056E-003
                    64 -2.857730942437594E-004
                    65  3.007111811498136E-003
                    66 -9.057621867976310E-007
                    67  9.424483863875287E-005
                    68 -4.175380571998461E-013
                    69  6.804024804320023E-004
                    70  6.257756642605623E-005
                    71  6.603056513752812E-013
                    72 -2.035610382660476E-003
                    73  7.109102289734423E-005
                    74  7.225556044898425E-013
                    75  3.001432761716219E-005
                    76  1.904410362753248E-013
                    77  8.967149411974195E-014
                    78 -3.223328563113392E-006
                    79  6.120242380486161E-006
                    80 -4.144598319063714E-004
                    81  1.069387118396561E-013
                    82  3.808839050760108E-013
                    83 -5.968018855360830E-004
                    84 -3.526550294492598E-004
                    85  3.876626004789059E-013
                    86  3.245459202010874E-005
                    87 -6.005451522996607E-005
                    88  2.308591791122250E-013
                    89  5.229249751342491E-014
                    90  4.825154176326411E-005
                    91  1.380025944605891E-004
                    92  9.589806986879433E-003
                    93 -2.043316464025796E-003
                    94 -2.858113073560095E-004
                    95  3.007291830322906E-003
                    96  9.035659113931433E-007
                    97  9.422169411332594E-005
                    98 -1.825625991275102E-013
                    99 -6.803943318677350E-004
                   100  6.270223017936965E-005
                   101 -1.236529445067227E-013
                   102  2.035754311187550E-003
                   103  7.101883850535043E-005
                   104 -1.587533747625858E-013
                   105  3.000668784031824E-005
                   106  3.032419267699938E-015
                   107 -9.371545494830897E-014
                   108 -3.233821383226796E-006
                   109 -6.126089544293650E-006
                   110 -4.144723098530895E-004
                   111 -9.355203039948519E-014
                   112 -1.188853534601596E-013
                   113 -5.968626131534792E-004
                   114  3.526952412665504E-004
                   115 -3.193306236547255E-013
                   116 -3.245399775458773E-005
                   117 -6.006058907985473E-005
                   118  7.439960085450242E-014
                   119  8.865592411672460E-014
                   120 -4.824883962865887E-005
                   121  1.379915854794650E-004
                   122 -1.595675097242926E-004
                   123 -6.795583103924493E-004
                   124  2.316264879212258E-004
                   125 -1.409494830744010E-004
                   126 -1.071289166193641E-006
                   127 -3.412671138952527E-004
                   128  6.932335878123054E-013
                   129 -5.974159027567447E-005
                   130  5.606360271615465E-004
                   131 -4.911525899218728E-013
                   132  3.178365512325624E-004
                   133  7.414834666969768E-004
                   134 -1.201463405661704E-013
                   135  2.058770374224016E-005
                   136  7.497597720103242E-014
                   137 -4.101773499302677E-014
                   138  4.701592352748758E-006
                   139  5.273315320442023E-005
                   140  1.369942251143410E-004
                   141  5.252244344666993E-013
                   142  3.756732307452828E-013
                   143  2.521264553606528E-004
                   144 -1.871955355741687E-004
                   145  3.670536023737418E-014
                   146  6.531873972231492E-006
                   147 -3.374634478018536E-005
                   148  1.644416679648898E-013
                   149  2.918850962444421E-013
                   150 -4.509208484991072E-005
                   151  2.628277819682623E-005
                   152 -1.593579372134746E-004
                   153 -6.788583961630554E-004
                   154  2.316838608746276E-004
                   155 -1.417201559009558E-004
                   156  1.064377801279909E-006
                   157 -3.412722170360549E-004
                   158  4.216178875196963E-013
                   159  5.977113006803542E-005
                   160  5.606997735155773E-004