[Molden Format]
[Atoms] AU
  N     1    7     0.0000000000   -4.2907334100    0.0000000000        
  C     2    6     0.0000000000   -1.7772236300    0.0000000000        
  C     3    6    -2.3389203600   -0.4111016300    0.0000000000        
  C     4    6     2.3389203600   -0.4111016300    0.0000000000        
  C     5    6    -2.2998668500    2.1639215300    0.0000000000        
  C     6    6     2.2998668500    2.1639215300    0.0000000000        
  C     7    6     0.0000000000    3.4755251800    0.0000000000        
  H     8    1    -2.5732809600   -5.8782317900    0.0000000000        
  H     9    1     2.5732809600   -5.8782318000    0.0000000000        
  H    10    1    -4.0745407300   -1.4447408500    0.0000000000        
  H    11    1     4.0745407300   -1.4447408500    0.0000000000        
  H    12    1    -4.0420632100    3.1963889500    0.0000000000        
  H    13    1     4.0420632100    3.1963889500    0.0000000000        
  H    14    1     0.0000000000    5.5020335600    0.0000000000        
[5D]
[7F]
[GTO]
  1  0
   s    12 1.00
  0.114200D+05  0.172695D-04
  0.171200D+04  0.134411D-03
  0.389300D+03  0.694561D-03
  0.110000D+03  0.278531D-02
  0.355700D+02  0.863457D-02
  0.125400D+02  0.199805D-01
  0.464400D+01  0.262908D-01
  0.129300D+01 -0.243845D-01
  0.511800D+00 -0.924934D-01
  0.178700D+00 -0.339683D+00
  0.246240D-01  0.345111D+00
  0.112530D-01  0.752750D+00
   s    10 1.00
  0.114200D+05  0.523000D-03
  0.171200D+04  0.404500D-02
  0.389300D+03  0.207750D-01
  0.110000D+03  0.807269D-01
  0.355700D+02  0.233074D+00
  0.125400D+02  0.433501D+00
  0.464400D+01  0.347472D+00
  0.129300D+01  0.412620D-01
  0.511800D+00 -0.850799D-02
  0.178700D+00  0.238400D-02
   s    10 1.00
  0.114200D+05 -0.115000D-03
  0.171200D+04 -0.895000D-03
  0.389300D+03 -0.462400D-02
  0.110000D+03 -0.185280D-01
  0.355700D+02 -0.573390D-01
  0.125400D+02 -0.132076D+00
  0.464400D+01 -0.172510D+00
  0.129300D+01  0.151814D+00
  0.511800D+00  0.599944D+00
  0.178700D+00  0.387462D+00
   s     1 1.00
  0.129300D+01  0.100000D+01
   s     1 1.00
  0.178700D+00  0.100000D+01
   p     5 1.00
  0.266300D+02  0.146700D-01
  0.594800D+01  0.917640D-01
  0.174200D+01  0.298683D+00
  0.555000D+00  0.498487D+00
  0.172500D+00  0.337023D+00
   p     1 1.00
  0.174200D+01  0.100000D+01
   p     1 1.00
  0.555000D+00  0.100000D+01
   d     1 1.00
  0.165400D+01  0.100000D+01
   d     1 1.00
  0.469000D+00  0.100000D+01
   f     1 1.00
  0.109300D+01  0.100000D+01
  
  2  0
   s    10 1.00
  0.823600D+04  0.531000D-03
  0.123500D+04  0.410800D-02
  0.280800D+03  0.210870D-01
  0.792700D+02  0.818530D-01
  0.255900D+02  0.234817D+00
  0.899700D+01  0.434401D+00
  0.331900D+01  0.346129D+00
  0.905900D+00  0.393780D-01
  0.364300D+00 -0.898300D-02
  0.128500D+00  0.238500D-02
   s    10 1.00
  0.823600D+04 -0.113000D-03
  0.123500D+04 -0.878000D-03
  0.280800D+03 -0.454000D-02
  0.792700D+02 -0.181330D-01
  0.255900D+02 -0.557600D-01
  0.899700D+01 -0.126895D+00
  0.331900D+01 -0.170352D+00
  0.905900D+00  0.140382D+00
  0.364300D+00  0.598684D+00
  0.128500D+00  0.395389D+00
   s     1 1.00
  0.905900D+00  0.100000D+01
   s     1 1.00
  0.364300D+00  0.100000D+01
   p     5 1.00
  0.187100D+02  0.140310D-01
  0.413300D+01  0.868660D-01
  0.120000D+01  0.290216D+00
  0.382700D+00  0.501008D+00
  0.120900D+00  0.343406D+00
   p     1 1.00
  0.382700D+00  0.100000D+01
   p     1 1.00
  0.120900D+00  0.100000D+01
   d     1 1.00
  0.109700D+01  0.100000D+01
   d     1 1.00
  0.318000D+00  0.100000D+01
   f     1 1.00
  0.761000D+00  0.100000D+01
  
  3  0
   s    10 1.00
  0.823600D+04  0.531000D-03
  0.123500D+04  0.410800D-02
  0.280800D+03  0.210870D-01
  0.792700D+02  0.818530D-01
  0.255900D+02  0.234817D+00
  0.899700D+01  0.434401D+00
  0.331900D+01  0.346129D+00
  0.905900D+00  0.393780D-01
  0.364300D+00 -0.898300D-02
  0.128500D+00  0.238500D-02
   s    10 1.00
  0.823600D+04 -0.113000D-03
  0.123500D+04 -0.878000D-03
  0.280800D+03 -0.454000D-02
  0.792700D+02 -0.181330D-01
  0.255900D+02 -0.557600D-01
  0.899700D+01 -0.126895D+00
  0.331900D+01 -0.170352D+00
  0.905900D+00  0.140382D+00
  0.364300D+00  0.598684D+00
  0.128500D+00  0.395389D+00
   s     1 1.00
  0.905900D+00  0.100000D+01
   s     1 1.00
  0.364300D+00  0.100000D+01
   p     5 1.00
  0.187100D+02  0.140310D-01
  0.413300D+01  0.868660D-01
  0.120000D+01  0.290216D+00
  0.382700D+00  0.501008D+00
  0.120900D+00  0.343406D+00
   p     1 1.00
  0.382700D+00  0.100000D+01
   p     1 1.00
  0.120900D+00  0.100000D+01
   d     1 1.00
  0.109700D+01  0.100000D+01
   d     1 1.00
  0.318000D+00  0.100000D+01
   f     1 1.00
  0.761000D+00  0.100000D+01
  
  4  0
   s    10 1.00
  0.823600D+04  0.531000D-03
  0.123500D+04  0.410800D-02
  0.280800D+03  0.210870D-01
  0.792700D+02  0.818530D-01
  0.255900D+02  0.234817D+00
  0.899700D+01  0.434401D+00
  0.331900D+01  0.346129D+00
  0.905900D+00  0.393780D-01
  0.364300D+00 -0.898300D-02
  0.128500D+00  0.238500D-02
   s    10 1.00
  0.823600D+04 -0.113000D-03
  0.123500D+04 -0.878000D-03
  0.280800D+03 -0.454000D-02
  0.792700D+02 -0.181330D-01
  0.255900D+02 -0.557600D-01
  0.899700D+01 -0.126895D+00
  0.331900D+01 -0.170352D+00
  0.905900D+00  0.140382D+00
  0.364300D+00  0.598684D+00
  0.128500D+00  0.395389D+00
   s     1 1.00
  0.905900D+00  0.100000D+01
   s     1 1.00
  0.364300D+00  0.100000D+01
   p     5 1.00
  0.187100D+02  0.140310D-01
  0.413300D+01  0.868660D-01
  0.120000D+01  0.290216D+00
  0.382700D+00  0.501008D+00
  0.120900D+00  0.343406D+00
   p     1 1.00
  0.382700D+00  0.100000D+01
   p     1 1.00
  0.120900D+00  0.100000D+01
   d     1 1.00
  0.109700D+01  0.100000D+01
   d     1 1.00
  0.318000D+00  0.100000D+01
   f     1 1.00
  0.761000D+00  0.100000D+01
  
  5  0
   s    10 1.00
  0.823600D+04  0.531000D-03
  0.123500D+04  0.410800D-02
  0.280800D+03  0.210870D-01
  0.792700D+02  0.818530D-01
  0.255900D+02  0.234817D+00
  0.899700D+01  0.434401D+00
  0.331900D+01  0.346129D+00
  0.905900D+00  0.393780D-01
  0.364300D+00 -0.898300D-02
  0.128500D+00  0.238500D-02
   s    10 1.00
  0.823600D+04 -0.113000D-03
  0.123500D+04 -0.878000D-03
  0.280800D+03 -0.454000D-02
  0.792700D+02 -0.181330D-01
  0.255900D+02 -0.557600D-01
  0.899700D+01 -0.126895D+00
  0.331900D+01 -0.170352D+00
  0.905900D+00  0.140382D+00
  0.364300D+00  0.598684D+00
  0.128500D+00  0.395389D+00
   s     1 1.00
  0.905900D+00  0.100000D+01
   s     1 1.00
  0.364300D+00  0.100000D+01
   p     5 1.00
  0.187100D+02  0.140310D-01
  0.413300D+01  0.868660D-01
  0.120000D+01  0.290216D+00
  0.382700D+00  0.501008D+00
  0.120900D+00  0.343406D+00
   p     1 1.00
  0.382700D+00  0.100000D+01
   p     1 1.00
  0.120900D+00  0.100000D+01
   d     1 1.00
  0.109700D+01  0.100000D+01
   d     1 1.00
  0.318000D+00  0.100000D+01
   f     1 1.00
  0.761000D+00  0.100000D+01
  
  6  0
   s    10 1.00
  0.823600D+04  0.531000D-03
  0.123500D+04  0.410800D-02
  0.280800D+03  0.210870D-01
  0.792700D+02  0.818530D-01
  0.255900D+02  0.234817D+00
  0.899700D+01  0.434401D+00
  0.331900D+01  0.346129D+00
  0.905900D+00  0.393780D-01
  0.364300D+00 -0.898300D-02
  0.128500D+00  0.238500D-02
   s    10 1.00
  0.823600D+04 -0.113000D-03
  0.123500D+04 -0.878000D-03
  0.280800D+03 -0.454000D-02
  0.792700D+02 -0.181330D-01
  0.255900D+02 -0.557600D-01
  0.899700D+01 -0.126895D+00
  0.331900D+01 -0.170352D+00
  0.905900D+00  0.140382D+00
  0.364300D+00  0.598684D+00
  0.128500D+00  0.395389D+00
   s     1 1.00
  0.905900D+00  0.100000D+01
   s     1 1.00
  0.364300D+00  0.100000D+01
   p     5 1.00
  0.187100D+02  0.140310D-01
  0.413300D+01  0.868660D-01
  0.120000D+01  0.290216D+00
  0.382700D+00  0.501008D+00
  0.120900D+00  0.343406D+00
   p     1 1.00
  0.382700D+00  0.100000D+01
   p     1 1.00
  0.120900D+00  0.100000D+01
   d     1 1.00
  0.109700D+01  0.100000D+01
   d     1 1.00
  0.318000D+00  0.100000D+01
   f     1 1.00
  0.761000D+00  0.100000D+01
  
  7  0
   s    10 1.00
  0.823600D+04  0.531000D-03
  0.123500D+04  0.410800D-02
  0.280800D+03  0.210870D-01
  0.792700D+02  0.818530D-01
  0.255900D+02  0.234817D+00
  0.899700D+01  0.434401D+00
  0.331900D+01  0.346129D+00
  0.905900D+00  0.393780D-01
  0.364300D+00 -0.898300D-02
  0.128500D+00  0.238500D-02
   s    10 1.00
  0.823600D+04 -0.113000D-03
  0.123500D+04 -0.878000D-03
  0.280800D+03 -0.454000D-02
  0.792700D+02 -0.181330D-01
  0.255900D+02 -0.557600D-01
  0.899700D+01 -0.126895D+00
  0.331900D+01 -0.170352D+00
  0.905900D+00  0.140382D+00
  0.364300D+00  0.598684D+00
  0.128500D+00  0.395389D+00
   s     1 1.00
  0.905900D+00  0.100000D+01
   s     1 1.00
  0.364300D+00  0.100000D+01
   p     5 1.00
  0.187100D+02  0.140310D-01
  0.413300D+01  0.868660D-01
  0.120000D+01  0.290216D+00
  0.382700D+00  0.501008D+00
  0.120900D+00  0.343406D+00
   p     1 1.00
  0.382700D+00  0.100000D+01
   p     1 1.00
  0.120900D+00  0.100000D+01
   d     1 1.00
  0.109700D+01  0.100000D+01
   d     1 1.00
  0.318000D+00  0.100000D+01
   f     1 1.00
  0.761000D+00  0.100000D+01
  
  8  0
   s     4 1.00
  0.130100D+02  0.196850D-01
  0.196200D+01  0.137977D+00
  0.444600D+00  0.478148D+00
  0.122000D+00  0.501240D+00
   s     1 1.00
  0.122000D+00  0.100000D+01
   p     1 1.00
  0.727000D+00  0.100000D+01
  
  9  0
   s     4 1.00
  0.130100D+02  0.196850D-01
  0.196200D+01  0.137977D+00
  0.444600D+00  0.478148D+00
  0.122000D+00  0.501240D+00
   s     1 1.00
  0.122000D+00  0.100000D+01
   p     1 1.00
  0.727000D+00  0.100000D+01
  
 10  0
   s     4 1.00
  0.130100D+02  0.196850D-01
  0.196200D+01  0.137977D+00
  0.444600D+00  0.478148D+00
  0.122000D+00  0.501240D+00
   s     1 1.00
  0.122000D+00  0.100000D+01
   p     1 1.00
  0.727000D+00  0.100000D+01
  
 11  0
   s     4 1.00
  0.130100D+02  0.196850D-01
  0.196200D+01  0.137977D+00
  0.444600D+00  0.478148D+00
  0.122000D+00  0.501240D+00
   s     1 1.00
  0.122000D+00  0.100000D+01
   p     1 1.00
  0.727000D+00  0.100000D+01
  
 12  0
   s     4 1.00
  0.130100D+02  0.196850D-01
  0.196200D+01  0.137977D+00
  0.444600D+00  0.478148D+00
  0.122000D+00  0.501240D+00
   s     1 1.00
  0.122000D+00  0.100000D+01
   p     1 1.00
  0.727000D+00  0.100000D+01
  
 13  0
   s     4 1.00
  0.130100D+02  0.196850D-01
  0.196200D+01  0.137977D+00
  0.444600D+00  0.478148D+00
  0.122000D+00  0.501240D+00
   s     1 1.00
  0.122000D+00  0.100000D+01
   p     1 1.00
  0.727000D+00  0.100000D+01
  
 14  0
   s     4 1.00
  0.130100D+02  0.196850D-01
  0.196200D+01  0.137977D+00
  0.444600D+00  0.478148D+00
  0.122000D+00  0.501240D+00
   s     1 1.00
  0.122000D+00  0.100000D+01
   p     1 1.00
  0.727000D+00  0.100000D+01
  
[MO]
 Sym= __1_a__
 Ene=  0.000000000000000E+000
 Spin= Alpha
 Occup=    2.00000000000000     
                     1  4.154232236450960E-005
                     2  0.998821050830828     
                     3 -2.131619256232250E-004
                     4  1.101089877102720E-003
                     5  5.900445126848890E-003
                     6 -3.893711925304770E-009
                     7  6.897700670252870E-003
                     8 -6.358310996701299E-011
                     9  6.837904374342700E-009
                    10 -8.917452324150570E-004
                    11  8.704531078172901E-012
                    12 -2.692267475774250E-008
                    13 -2.780009675198210E-003
                    14  2.887763521843540E-011
                    15 -5.102772516063385E-006
                    16  2.103507371720920E-011
                    17 -3.815300094936130E-012
                    18 -2.572504491999540E-004
                    19 -1.225577237920320E-010
                    20  8.108515536353817E-005
                    21  1.271874522480610E-011
                    22 -6.013716202370010E-012
                    23 -2.374361511539700E-004
                    24 -1.901511462868410E-008
                    25 -7.398055903926218E-012
                    26  1.062453684536583E-009
                    27 -3.930467343299199E-005
                    28  3.418514488381540E-013
                    29  3.236101377559530E-012
                    30 -5.607349616084625E-009
                    31 -1.321693418661774E-004
                    32 -2.862341514738000E-004
                    33  5.272205291133860E-004
                    34  3.357340297587440E-004
                    35 -4.033195629507120E-004
                    36  2.563047337736390E-008
                    37 -3.056624384808830E-003
                    38 -1.482772775334270E-011
                    39 -1.157092055631180E-007
                    40  7.237514340531660E-005
                    41  6.416497190839170E-012
                    42 -1.808729525502670E-007
                    43  5.754134615953780E-003
                    44 -1.330978727364770E-013
                    45 -7.207898646171716E-006
                    46 -2.246426944779800E-012
                    47 -5.296943992484940E-013
                    48 -1.605400887516080E-004
                    49  2.485755515104670E-009
                    50 -2.004071430572123E-004
                    51 -1.094230259068450E-011
                    52 -6.521103868186030E-012
                    53 -7.835240942294220E-005
                    54 -1.284620386392880E-007
                    55  6.528720558262615E-012
                    56  4.478377305595711E-009
                    57 -5.821161117475977E-005
                    58 -7.684077852315480E-012
                    59  3.349475800667460E-012
                    60  9.215530225036607E-009
                    61 -1.202958208857595E-004
                    62 -3.860988126808070E-004
                    63 -1.589857690703500E-003
                    64  5.615270614044970E-005
                    65  1.130958613954570E-003
                    66 -3.756338442721480E-004
                    67  2.907579997969190E-004
                    68  2.762938173842340E-011
                    69  4.305446484496620E-005
                    70  4.763836748819540E-004
                    71  8.711913388512139E-012
                    72 -1.383493343453470E-003
                    73 -3.885145728707400E-004
                    74  5.019809024523300E-012
                    75 -3.290652960772209E-005
                    76 -1.041889813591130E-012
                    77  5.864612581315930E-012
                    78 -5.165839487657680E-005
                    79 -7.655367707964650E-006
                    80  1.342413647735548E-006
                    81 -1.102861637884640E-011
                    82  6.692514732657670E-012
                    83 -4.109208638763360E-005
                    84 -1.508033468989820E-005
                    85  2.055535747508385E-012
                    86  1.245146152033045E-005
                    87 -3.788762340547569E-005
                    88 -9.173606480162979E-013
                    89  4.359225203181140E-012
                    90 -1.240084368034979E-005
                    91 -9.606729337163992E-005
                    92 -3.860988935882710E-004
                    93 -1.589844859339270E-003
                    94  5.624016352733600E-005
                    95  1.130672575192910E-003
                    96  3.756656353411250E-004
                    97  2.908403349437070E-004
                    98 -3.996492311609210E-011
                    99 -4.321089227523690E-005
                   100  4.758851125783950E-004
                   101  1.850707663046810E-012
                   102  1.383180357843290E-003
                   103 -3.888143690316510E-004
                   104  5.409213024508840E-012
                   105 -3.289370126316966E-005
                   106  3.108374547163530E-012
                   107 -3.645982373552080E-012
                   108 -5.164088154549660E-005
                   109  7.662048574317510E-006
                   110  1.398503231744038E-006
                   111 -5.733495470784840E-012
                   112 -4.514417561440080E-012
                   113 -4.079611841968200E-005
                   114  1.510131127270210E-005
                   115 -6.394292964270008E-012
                   116 -1.244486717686446E-005
                   117 -3.786146022893610E-005
                   118 -6.012831817735260E-013
                   119 -3.467775664286990E-012
                   120  1.238111373798486E-005
                   121 -9.604377601392829E-005
                   122 -2.945347016720010E-004
                   123 -7.678932408012750E-004
                   124  1.028041315673330E-004
                   125  6.109776213948930E-004
                   126 -1.290557731460310E-005
                   127 -3.199917093747640E-004
                   128  4.231318321018730E-011
                   129  1.328969857156030E-004
                   130  3.039400972002710E-004
                   131 -1.319709775408230E-011
                   132 -1.697778547346350E-004
                   133  9.435956892067510E-004
                   134 -6.130639407010470E-012
                   135  7.019012957826739E-007
                   136  3.458677668840400E-013
                   137  2.576194122954190E-012
                   138  1.987144968735660E-005
                   139 -7.836760881050510E-006
                   140  1.419186100037479E-004
                   141  2.446098359577980E-012
                   142  6.019082077298700E-012
                   143  1.873728613801472E-004
                   144  1.185703734210530E-004
                   145 -3.467093864132863E-012
                   146 -8.577262902327927E-006
                   147 -3.484317344716767E-005
                   148 -2.592850993261600E-014
                   149  3.993571331559380E-012
                   150  4.417786408497141E-006
                   151 -2.951631802866420E-005
                   152 -2.947567263782400E-004
                   153 -7.686583704588550E-004
                   154  1.026750927809940E-004
                   155  6.120518747169109E-004
                   156  1.280482656454360E-005
                   157 -3.199056695112610E-004
                   158 -2.577596984587790E-011
                   159 -1.325836865812040E-004
                   160  3.034408996436110E-004
                   161  4.169366999598140E-012
                   162  1.701579050656470E-004
                   163  9.432720496902090E-004
                   164  3.571279028369340E-012
                   165  6.821107101702003E-007
                   166 -1.869927111142710E-012
                   167 -3.689420503387730E-012
                   168  1.984983661189866E-005
                   169  7.848366828698011E-006
                   170  1.418895759666922E-004
                   171 -8.513860011299859E-012
                   172  5.619385054127860E-012
                   173  1.871621938713558E-004
                   174 -1.184872229508760E-004
                   175 -5.609336994807473E-012
                   176  8.553368730802211E-006
                   177 -3.482032662849112E-005
                   178 -2.667969454798140E-012
                   179 -6.255576953554340E-013
                   180 -4.391832342109386E-006
                   181 -2.948425356444938E-005
                   182 -2.173722322736700E-004
                   183 -6.608617694553050E-004
                   184  6.403357319514720E-005
                   185  3.568927735034580E-004
                   186 -5.383597744131650E-008
                   187 -3.357632175607720E-005
                   188  4.711317243745380E-012
                   189  1.949289796007320E-007
                   190  7.727450946457269E-005
                   191 -4.262203365151090E-012
                   192  2.317780392737040E-007
                   193 -2.178024878015100E-004
                   194  7.679838134818040E-012
                   195 -1.692916640589658E-006
                   196  8.052956758292679E-012
                   197  3.515648472397660E-012
                   198 -1.112043745999998E-005
                   199 -6.029675858664670E-009
                   200  3.164828146334666E-005
                   201 -1.000984464580320E-011
                   202  4.061606699871170E-012
                   203 -8.901042560670179E-005
                   204 -7.274487575278730E-008
                   205 -7.916681011574777E-013
                   206 -9.106255153152710E-009
                   207 -6.891631240090786E-006
                   208  1.129243095230388E-012
                   209  5.484262042140050E-012
                   210 -9.226366892444212E-009
                   211  1.297100410967377E-006
                   212 -3.078014738926130E-004
                   213  3.935894779743920E-006
                   214  1.077778624379050E-004
                   215  6.653946193259250E-005
                   216 -4.206121584951710E-013
                   217 -3.078027616014390E-004
                   218  3.939712533831550E-006
                   219 -1.077791928530630E-004
                   220  6.653915826083870E-005
                   221 -1.483252854531740E-012
                   222 -1.893816389192260E-004
                   223 -7.302604629198830E-004
                   224  1.217204248195600E-005
                   225 -4.672393603351200E-005
                   226 -6.265550189797580E-012
                   227 -1.894286942267460E-004
                   228 -7.301712068729410E-004
                   229 -1.218883368793650E-005
                   230 -4.674756246655890E-005
                   231  1.949509017470720E-012
                   232 -3.277336079503760E-005
                   233 -4.920517862355930E-004
                   234  1.474100132556820E-006
                   235 -2.184498756448010E-006
                   236  4.805562530360220E-012
                   237 -3.291491298028250E-005
                   238 -4.920057737036480E-004
                   239 -1.420937275474990E-006
                   240 -2.173030001802140E-006
                   241  6.506741849334590E-012
                   242  3.827558924442720E-006
                   243 -1.606100303339440E-005
                   244  5.009812199894160E-009
                   245  2.374748563546840E-005
                   246 -2.111774646584540E-012
 Sym= __2_a__
 Ene=  0.000000000000000E+000
 Spin= Alpha
 Occup=    2.00000000000000     
                     1 -5.976968671761400E-005
                     2 -3.667564994284170E-004
                     3  3.115966632922770E-003
                     4  1.762504007372840E-004
                     5  1.335047501446400E-003
                     6  1.397582436020230E-009
                     7  2.731569914120360E-003
                     8 -4.594779549149770E-011
                     9 -2.040070040271380E-009
                    10 -1.433540838833340E-004
                    11  2.978579119325590E-012
                    12  5.786918402233400E-009
                    13 -3.173210825964810E-004
                    14  9.789591492141031E-012
                    15  2.891559398286969E-005
                    16  1.334909471640940E-012
                    17  8.012592606398380E-013
                    18 -4.201263047377000E-005
                    19  5.196675812916060E-010
                    20 -1.007824032130153E-004
                    21  5.186383164187610E-012
                    22 -6.133600933650760E-012
                    23  7.041493712482180E-005
                    24  2.009815638784900E-009
                    25 -1.956600216268143E-012
                    26  5.072876194791614E-010
                    27  8.564378363111965E-005
                    28  1.877912373206432E-012
                    29  3.018254506794880E-012
                    30  1.723000152349470E-009
                    31  1.614694370769212E-004
                    32   1.00099980397997     
                    33  9.180024991459000E-003
                    34  2.779302608489120E-003
                    35 -8.161999258481090E-003
                    36 -3.760909725523240E-009
                    37 -3.576720036840270E-003
                    38 -3.627890273914790E-011
                    39  3.069152267181140E-009
                    40  6.160752479384700E-004
                    41  1.561305134033190E-011
                    42 -2.047561806006560E-008
                    43  4.222623411846020E-003
                    44  8.647873452079250E-012
                    45 -5.726384356768576E-004
                    46 -4.732129595235810E-012
                    47  6.930199911806730E-012
                    48 -2.006100686996920E-004
                    49 -2.447553098884390E-009
                    50  5.569515613152915E-004
                    51 -2.607191886167610E-011
                    52 -7.204727192890380E-012
                    53 -8.027014128739400E-004
                    54  1.475674496910390E-008
                    55 -1.126133477232982E-012
                    56  1.378700440120820E-009
                    57  9.211256144621599E-005
                    58 -2.371659318873560E-012
                    59  5.870056511742630E-012
                    60 -9.467076474245941E-010
                    61  3.902143618078611E-004
                    62  9.589843480857681E-003
                    63 -2.043239766142410E-003
                    64 -2.857730261492940E-004
                    65  3.007111896955220E-003
                    66 -9.061718451196660E-007
                    67  9.424487886015780E-005
                    68  1.973627420265920E-011
                    69  6.804024427380940E-004
                    70  6.257766732581220E-005
                    71 -6.368854035449760E-012
                    72 -2.035610489066010E-003
                    73  7.109100213981839E-005
                    74 -4.710134111617750E-013
                    75  3.001432927641685E-005
                    76  3.719074661887800E-013
                    77 -9.638754063378840E-014
                    78 -3.223334791457020E-006
                    79  6.120266622750360E-006
                    80 -4.144598337382219E-004
                    81 -1.173503911417000E-011
                    82  1.641992266448220E-011
                    83 -5.968020018158600E-004
                    84 -3.526550292029150E-004
                    85 -1.267118429176960E-012
                    86  3.245460616406692E-005
                    87 -6.005452720346342E-005
                    88 -1.713210589862454E-012
                    89  5.180523075801550E-012
                    90  4.825154360850737E-005
                    91  1.380026053662003E-004
                    92  9.589822126057940E-003
                    93 -2.043316593031450E-003
                    94 -2.858112404273600E-004
                    95  3.007291913607640E-003
                    96  9.039615070333930E-007
                    97  9.422171697377309E-005
                    98 -2.111123132506960E-011
                    99 -6.803942859279390E-004
                   100  6.270234083923090E-005
                   101 -6.917486344637460E-012
                   102  2.035754422157590E-003
                   103  7.101882695583710E-005
                   104  3.590528723914790E-013
                   105  3.000669026653963E-005
                   106 -3.592423634775470E-013
                   107 -3.630548001281000E-012
                   108 -3.233827727781400E-006
                   109 -6.126113756489300E-006
                   110 -4.144723119728058E-004
                   111 -9.743502539820509E-012
                   112 -1.398301366229220E-011
                   113 -5.968627332268880E-004
                   114  3.526952402084750E-004
                   115 -2.780166027351166E-012
                   116 -3.245401206106690E-005
                   117 -6.006060127763431E-005
                   118  6.353967674549820E-013
                   119  2.067558700812890E-012
                   120 -4.824884115135722E-005
                   121  1.379915956604928E-004
                   122 -1.595671961594680E-004
                   123 -6.795583345927230E-004
                   124  2.316265087945300E-004
                   125 -1.409495385661130E-004
                   126 -1.071304309562490E-006
                   127 -3.412671412395360E-004
                   128  1.841830536577850E-011
                   129 -5.974157550232510E-005
                   130  5.606360969294660E-004
                   131 -5.812514811906480E-012
                   132  3.178366591265950E-004
                   133  7.414834799785180E-004
                   134 -4.722160142740310E-012
                   135  2.058770648021404E-005
                   136 -2.913448975160390E-012
                   137 -1.364193043334880E-012
                   138  4.701592941272000E-006
                   139  5.273316153887670E-005
                   140  1.369942226847113E-004
                   141 -1.630474940267330E-012
                   142  1.422049428643010E-011
                   143  2.521265005630780E-004
                   144 -1.871955654007320E-004
                   145  3.523398549478629E-013
                   146  6.531871889210249E-006
                   147 -3.374634646903270E-005
                   148 -1.123995679905716E-012
                   149  1.698419890302890E-012
                   150 -4.509208424581093E-005
                   151  2.628277608752328E-005
                   152 -1.593575906672790E-004
                   153 -6.788584267207170E-004
                   154  2.316838828439150E-004
                   155 -1.417202153189140E-004
                   156  1.064393971562240E-006
                   157 -3.412722365546710E-004
                   158 -3.474015727297040E-011
                   159  5.977111303307790E-005
                   160  5.606998479225170E-004