[Molden Format]
[Atoms] AU
  N     1    7    -0.0524017100   -4.4524212400    0.0000000000        
  C     2    6     0.0571032200   -1.9578645300    0.0000000000        
  C     3    6    -2.2257831100   -0.4935507600    0.0000000000        
  C     4    6     2.3071241400   -0.4422126900    0.0000000000        
  C     5    6    -2.2059870800    2.2006065600    0.0000000000        
  C     6    6     2.2332450100    2.2625334200    0.0000000000        
  C     7    6     0.0040547000    3.5988115600    0.0000000000        
  H     8    1    -2.3967884200   -5.6768230200    0.0000000000        
  H     9    1     1.6328397800   -5.4101784700    0.0000000000        
  H    10    1    -3.9947448700   -1.4678928600    0.0000000000        
  H    11    1     4.1148676700   -1.3530833100    0.0000000000        
  H    12    1    -4.0029365500    3.1442407900    0.0000000000        
  H    13    1     4.0085840600    3.2454412900    0.0000000000        
  H    14    1    -0.0230569200    5.6209451700    0.0000000000        
[5D]
[7F]
[GTO]
  1  0
   s    12 1.00
  0.114200D+05  0.172695D-04
  0.171200D+04  0.134411D-03
  0.389300D+03  0.694561D-03
  0.110000D+03  0.278531D-02
  0.355700D+02  0.863457D-02
  0.125400D+02  0.199805D-01
  0.464400D+01  0.262908D-01
  0.129300D+01 -0.243845D-01
  0.511800D+00 -0.924934D-01
  0.178700D+00 -0.339683D+00
  0.246240D-01  0.345111D+00
  0.112530D-01  0.752750D+00
   s    10 1.00
  0.114200D+05  0.523000D-03
  0.171200D+04  0.404500D-02
  0.389300D+03  0.207750D-01
  0.110000D+03  0.807269D-01
  0.355700D+02  0.233074D+00
  0.125400D+02  0.433501D+00
  0.464400D+01  0.347472D+00
  0.129300D+01  0.412620D-01
  0.511800D+00 -0.850799D-02
  0.178700D+00  0.238400D-02
   s    10 1.00
  0.114200D+05 -0.115000D-03
  0.171200D+04 -0.895000D-03
  0.389300D+03 -0.462400D-02
  0.110000D+03 -0.185280D-01
  0.355700D+02 -0.573390D-01
  0.125400D+02 -0.132076D+00
  0.464400D+01 -0.172510D+00
  0.129300D+01  0.151814D+00
  0.511800D+00  0.599944D+00
  0.178700D+00  0.387462D+00
   s     1 1.00
  0.129300D+01  0.100000D+01
   s     1 1.00
  0.178700D+00  0.100000D+01
   p     5 1.00
  0.266300D+02  0.146700D-01
  0.594800D+01  0.917640D-01
  0.174200D+01  0.298683D+00
  0.555000D+00  0.498487D+00
  0.172500D+00  0.337023D+00
   p     1 1.00
  0.174200D+01  0.100000D+01
   p     1 1.00
  0.555000D+00  0.100000D+01
   d     1 1.00
  0.165400D+01  0.100000D+01
   d     1 1.00
  0.469000D+00  0.100000D+01
   f     1 1.00
  0.109300D+01  0.100000D+01
  
  2  0
   s    10 1.00
  0.823600D+04  0.531000D-03
  0.123500D+04  0.410800D-02
  0.280800D+03  0.210870D-01
  0.792700D+02  0.818530D-01
  0.255900D+02  0.234817D+00
  0.899700D+01  0.434401D+00
  0.331900D+01  0.346129D+00
  0.905900D+00  0.393780D-01
  0.364300D+00 -0.898300D-02
  0.128500D+00  0.238500D-02
   s    10 1.00
  0.823600D+04 -0.113000D-03
  0.123500D+04 -0.878000D-03
  0.280800D+03 -0.454000D-02
  0.792700D+02 -0.181330D-01
  0.255900D+02 -0.557600D-01
  0.899700D+01 -0.126895D+00
  0.331900D+01 -0.170352D+00
  0.905900D+00  0.140382D+00
  0.364300D+00  0.598684D+00
  0.128500D+00  0.395389D+00
   s     1 1.00
  0.905900D+00  0.100000D+01
   s     1 1.00
  0.364300D+00  0.100000D+01
   p     5 1.00
  0.187100D+02  0.140310D-01
  0.413300D+01  0.868660D-01
  0.120000D+01  0.290216D+00
  0.382700D+00  0.501008D+00
  0.120900D+00  0.343406D+00
   p     1 1.00
  0.382700D+00  0.100000D+01
   p     1 1.00
  0.120900D+00  0.100000D+01
   d     1 1.00
  0.109700D+01  0.100000D+01
   d     1 1.00
  0.318000D+00  0.100000D+01
   f     1 1.00
  0.761000D+00  0.100000D+01
  
  3  0
   s    10 1.00
  0.823600D+04  0.531000D-03
  0.123500D+04  0.410800D-02
  0.280800D+03  0.210870D-01
  0.792700D+02  0.818530D-01
  0.255900D+02  0.234817D+00
  0.899700D+01  0.434401D+00
  0.331900D+01  0.346129D+00
  0.905900D+00  0.393780D-01
  0.364300D+00 -0.898300D-02
  0.128500D+00  0.238500D-02
   s    10 1.00
  0.823600D+04 -0.113000D-03
  0.123500D+04 -0.878000D-03
  0.280800D+03 -0.454000D-02
  0.792700D+02 -0.181330D-01
  0.255900D+02 -0.557600D-01
  0.899700D+01 -0.126895D+00
  0.331900D+01 -0.170352D+00
  0.905900D+00  0.140382D+00
  0.364300D+00  0.598684D+00
  0.128500D+00  0.395389D+00
   s     1 1.00
  0.905900D+00  0.100000D+01
   s     1 1.00
  0.364300D+00  0.100000D+01
   p     5 1.00
  0.187100D+02  0.140310D-01
  0.413300D+01  0.868660D-01
  0.120000D+01  0.290216D+00
  0.382700D+00  0.501008D+00
  0.120900D+00  0.343406D+00
   p     1 1.00
  0.382700D+00  0.100000D+01
   p     1 1.00
  0.120900D+00  0.100000D+01
   d     1 1.00
  0.109700D+01  0.100000D+01
   d     1 1.00
  0.318000D+00  0.100000D+01
   f     1 1.00
  0.761000D+00  0.100000D+01
  
  4  0
   s    10 1.00
  0.823600D+04  0.531000D-03
  0.123500D+04  0.410800D-02
  0.280800D+03  0.210870D-01
  0.792700D+02  0.818530D-01
  0.255900D+02  0.234817D+00
  0.899700D+01  0.434401D+00
  0.331900D+01  0.346129D+00
  0.905900D+00  0.393780D-01
  0.364300D+00 -0.898300D-02
  0.128500D+00  0.238500D-02
   s    10 1.00
  0.823600D+04 -0.113000D-03
  0.123500D+04 -0.878000D-03
  0.280800D+03 -0.454000D-02
  0.792700D+02 -0.181330D-01
  0.255900D+02 -0.557600D-01
  0.899700D+01 -0.126895D+00
  0.331900D+01 -0.170352D+00
  0.905900D+00  0.140382D+00
  0.364300D+00  0.598684D+00
  0.128500D+00  0.395389D+00
   s     1 1.00
  0.905900D+00  0.100000D+01
   s     1 1.00
  0.364300D+00  0.100000D+01
   p     5 1.00
  0.187100D+02  0.140310D-01
  0.413300D+01  0.868660D-01
  0.120000D+01  0.290216D+00
  0.382700D+00  0.501008D+00
  0.120900D+00  0.343406D+00
   p     1 1.00
  0.382700D+00  0.100000D+01
   p     1 1.00
  0.120900D+00  0.100000D+01
   d     1 1.00
  0.109700D+01  0.100000D+01
   d     1 1.00
  0.318000D+00  0.100000D+01
   f     1 1.00
  0.761000D+00  0.100000D+01
  
  5  0
   s    10 1.00
  0.823600D+04  0.531000D-03
  0.123500D+04  0.410800D-02
  0.280800D+03  0.210870D-01
  0.792700D+02  0.818530D-01
  0.255900D+02  0.234817D+00
  0.899700D+01  0.434401D+00
  0.331900D+01  0.346129D+00
  0.905900D+00  0.393780D-01
  0.364300D+00 -0.898300D-02
  0.128500D+00  0.238500D-02
   s    10 1.00
  0.823600D+04 -0.113000D-03
  0.123500D+04 -0.878000D-03
  0.280800D+03 -0.454000D-02
  0.792700D+02 -0.181330D-01
  0.255900D+02 -0.557600D-01
  0.899700D+01 -0.126895D+00
  0.331900D+01 -0.170352D+00
  0.905900D+00  0.140382D+00
  0.364300D+00  0.598684D+00
  0.128500D+00  0.395389D+00
   s     1 1.00
  0.905900D+00  0.100000D+01
   s     1 1.00
  0.364300D+00  0.100000D+01
   p     5 1.00
  0.187100D+02  0.140310D-01
  0.413300D+01  0.868660D-01
  0.120000D+01  0.290216D+00
  0.382700D+00  0.501008D+00
  0.120900D+00  0.343406D+00
   p     1 1.00
  0.382700D+00  0.100000D+01
   p     1 1.00
  0.120900D+00  0.100000D+01
   d     1 1.00
  0.109700D+01  0.100000D+01
   d     1 1.00
  0.318000D+00  0.100000D+01
   f     1 1.00
  0.761000D+00  0.100000D+01
  
  6  0
   s    10 1.00
  0.823600D+04  0.531000D-03
  0.123500D+04  0.410800D-02
  0.280800D+03  0.210870D-01
  0.792700D+02  0.818530D-01
  0.255900D+02  0.234817D+00
  0.899700D+01  0.434401D+00
  0.331900D+01  0.346129D+00
  0.905900D+00  0.393780D-01
  0.364300D+00 -0.898300D-02
  0.128500D+00  0.238500D-02
   s    10 1.00
  0.823600D+04 -0.113000D-03
  0.123500D+04 -0.878000D-03
  0.280800D+03 -0.454000D-02
  0.792700D+02 -0.181330D-01
  0.255900D+02 -0.557600D-01
  0.899700D+01 -0.126895D+00
  0.331900D+01 -0.170352D+00
  0.905900D+00  0.140382D+00
  0.364300D+00  0.598684D+00
  0.128500D+00  0.395389D+00
   s     1 1.00
  0.905900D+00  0.100000D+01
   s     1 1.00
  0.364300D+00  0.100000D+01
   p     5 1.00
  0.187100D+02  0.140310D-01
  0.413300D+01  0.868660D-01
  0.120000D+01  0.290216D+00
  0.382700D+00  0.501008D+00
  0.120900D+00  0.343406D+00
   p     1 1.00
  0.382700D+00  0.100000D+01
   p     1 1.00
  0.120900D+00  0.100000D+01
   d     1 1.00
  0.109700D+01  0.100000D+01
   d     1 1.00
  0.318000D+00  0.100000D+01
   f     1 1.00
  0.761000D+00  0.100000D+01
  
  7  0
   s    10 1.00
  0.823600D+04  0.531000D-03
  0.123500D+04  0.410800D-02
  0.280800D+03  0.210870D-01
  0.792700D+02  0.818530D-01
  0.255900D+02  0.234817D+00
  0.899700D+01  0.434401D+00
  0.331900D+01  0.346129D+00
  0.905900D+00  0.393780D-01
  0.364300D+00 -0.898300D-02
  0.128500D+00  0.238500D-02
   s    10 1.00
  0.823600D+04 -0.113000D-03
  0.123500D+04 -0.878000D-03
  0.280800D+03 -0.454000D-02
  0.792700D+02 -0.181330D-01
  0.255900D+02 -0.557600D-01
  0.899700D+01 -0.126895D+00
  0.331900D+01 -0.170352D+00
  0.905900D+00  0.140382D+00
  0.364300D+00  0.598684D+00
  0.128500D+00  0.395389D+00
   s     1 1.00
  0.905900D+00  0.100000D+01
   s     1 1.00
  0.364300D+00  0.100000D+01
   p     5 1.00
  0.187100D+02  0.140310D-01
  0.413300D+01  0.868660D-01
  0.120000D+01  0.290216D+00
  0.382700D+00  0.501008D+00
  0.120900D+00  0.343406D+00
   p     1 1.00
  0.382700D+00  0.100000D+01
   p     1 1.00
  0.120900D+00  0.100000D+01
   d     1 1.00
  0.109700D+01  0.100000D+01
   d     1 1.00
  0.318000D+00  0.100000D+01
   f     1 1.00
  0.761000D+00  0.100000D+01
  
  8  0
   s     4 1.00
  0.130100D+02  0.196850D-01
  0.196200D+01  0.137977D+00
  0.444600D+00  0.478148D+00
  0.122000D+00  0.501240D+00
   s     1 1.00
  0.122000D+00  0.100000D+01
   p     1 1.00
  0.727000D+00  0.100000D+01
  
  9  0
   s     4 1.00
  0.130100D+02  0.196850D-01
  0.196200D+01  0.137977D+00
  0.444600D+00  0.478148D+00
  0.122000D+00  0.501240D+00
   s     1 1.00
  0.122000D+00  0.100000D+01
   p     1 1.00
  0.727000D+00  0.100000D+01
  
 10  0
   s     4 1.00
  0.130100D+02  0.196850D-01
  0.196200D+01  0.137977D+00
  0.444600D+00  0.478148D+00
  0.122000D+00  0.501240D+00
   s     1 1.00
  0.122000D+00  0.100000D+01
   p     1 1.00
  0.727000D+00  0.100000D+01
  
 11  0
   s     4 1.00
  0.130100D+02  0.196850D-01
  0.196200D+01  0.137977D+00
  0.444600D+00  0.478148D+00
  0.122000D+00  0.501240D+00
   s     1 1.00
  0.122000D+00  0.100000D+01
   p     1 1.00
  0.727000D+00  0.100000D+01
  
 12  0
   s     4 1.00
  0.130100D+02  0.196850D-01
  0.196200D+01  0.137977D+00
  0.444600D+00  0.478148D+00
  0.122000D+00  0.501240D+00
   s     1 1.00
  0.122000D+00  0.100000D+01
   p     1 1.00
  0.727000D+00  0.100000D+01
  
 13  0
   s     4 1.00
  0.130100D+02  0.196850D-01
  0.196200D+01  0.137977D+00
  0.444600D+00  0.478148D+00
  0.122000D+00  0.501240D+00
   s     1 1.00
  0.122000D+00  0.100000D+01
   p     1 1.00
  0.727000D+00  0.100000D+01
  
 14  0
   s     4 1.00
  0.130100D+02  0.196850D-01
  0.196200D+01  0.137977D+00
  0.444600D+00  0.478148D+00
  0.122000D+00  0.501240D+00
   s     1 1.00
  0.122000D+00  0.100000D+01
   p     1 1.00
  0.727000D+00  0.100000D+01
  
[MO]
 Sym= __1_a__
 Ene=  0.000000000000000E+000
 Spin= Alpha
 Occup=    2.00000000000000     
                     1  3.774045344494160E-005
                     2  0.998395416337409     
                     3  2.726590931194280E-003
                     4  1.755137603581390E-003
                     5  4.225546042341810E-003
                     6  3.154626765633590E-003
                     7  6.308871569913630E-003
                     8 -3.142055635406760E-012
                     9 -5.106574948877290E-004
                    10 -5.268619829971420E-004
                    11 -3.666014191539470E-013
                    12 -1.845152430445410E-003
                    13 -1.305427026395410E-003
                    14 -7.686073981496989E-012
                    15 -1.430507633957449E-004
                    16  1.244546407761980E-012
                    17  6.310147541672160E-013
                    18 -1.912429709064640E-004
                    19 -5.328900311256830E-005
                    20  2.181813990125730E-004
                    21 -7.590772692936929E-012
                    22  2.097661373799190E-012
                    23 -3.997245351618340E-004
                    24  3.622815089977580E-004
                    25 -3.698930298600819E-013
                    26 -2.131961176470153E-005
                    27 -7.560300701779553E-005
                    28  3.679112536916000E-013
                    29  1.442002097699430E-012
                    30  2.533276192146370E-005
                    31 -1.407115228583721E-004
                    32 -3.501733564393220E-004
                    33  1.809834826991220E-003
                    34  3.201594568765970E-004
                    35 -5.409823004173730E-004
                    36 -2.632598984076190E-004
                    37 -5.175785247975600E-003
                    38 -5.614945000788680E-012
                    39  3.314152028715370E-004
                    40  4.836900492763170E-004
                    41 -3.652281826320160E-013
                    42 -1.484982371630080E-003
                    43  5.212425441195830E-003
                    44 -4.868358275236390E-013
                    45 -8.803336304006433E-006
                    46 -1.262125164598800E-013
                    47  1.360008902013850E-012
                    48 -2.184072768149540E-004
                    49 -1.759598522502640E-005
                    50 -2.639239658524202E-004
                    51  3.926651994063940E-012
                    52 -5.821454133964260E-012
                    53 -2.963311613677200E-005
                    54  5.482926541484740E-004
                    55  1.308183278435329E-012
                    56 -1.103296016538171E-005
                    57 -5.358148576892454E-005
                    58 -3.010743643848800E-012
                    59 -1.571029040944040E-012
                    60  5.509439554468895E-005
                    61 -1.425792887140131E-004
                    62 -4.188795197029850E-004
                    63 -1.982619913614480E-003
                    64 -5.123357617618120E-005
                    65  1.599830379608620E-003
                    66 -6.145939889924860E-004
                    67  4.745374441374150E-004
                    68 -3.816644906998600E-012
                    69  2.855149306918830E-004
                    70  5.872577654095710E-004
                    71  9.687988155764620E-013
                    72 -1.666113594318020E-003
                    73  7.707399895958300E-004
                    74 -4.727109262155830E-013
                    75 -2.882454931872613E-005
                    76 -3.924665147851770E-012
                    77  1.410302357507760E-012
                    78 -5.793877443533160E-005
                    79 -2.076068598845330E-005
                    80 -1.041279876424293E-004
                    81  4.161579957442180E-012
                    82 -3.270244584955640E-012
                    83 -1.602613832263804E-006
                    84 -1.433866831427230E-007
                    85 -1.035458039249423E-012
                    86  1.680737450544857E-005
                    87 -4.308442865221293E-005
                    88 -1.831769926044552E-012
                    89 -3.210145462916870E-012
                    90 -1.209746309465723E-005
                    91 -1.386772463948754E-004
                    92 -2.214983958772330E-004
                    93 -1.444635491908440E-003
                    94  1.579018499481630E-004
                    95  1.028466712881370E-004
                    96  6.124797170525890E-004
                    97  7.312190308131620E-004
                    98 -1.928044683479630E-011
                    99  2.671894151598340E-004
                   100  3.471646437739990E-004
                   101  1.015678851671880E-011
                   102  6.627451269538380E-004
                   103 -1.219258753202650E-003
                   104  1.145551236387860E-012
                   105 -6.407148755897295E-008
                   106  2.306472811027650E-012
                   107  5.663905211262270E-013
                   108 -7.646358909322800E-005
                   109 -1.738152879555070E-005
                   110  4.846768974725821E-005
                   111 -5.186255389307080E-013
                   112  9.624436086457931E-013
                   113 -1.294867161050972E-004
                   114 -1.355544313548620E-005
                   115  1.661105955991570E-012
                   116 -2.698326638134293E-005
                   117 -2.504430052121977E-005
                   118 -3.667488897365020E-013
                   119  1.143834016817740E-012
                   120 -3.233524363561665E-005
                   121 -4.284354922934506E-005
                   122 -2.364630910704770E-004
                   123 -4.805777508353740E-004
                   124  1.309529345763300E-004
                   125  4.088941026023920E-004
                   126 -1.824983826523250E-005
                   127 -5.523183820704180E-004
                   128 -4.230513047175130E-012
                   129  1.765093268920780E-004
                   130  4.608461271969530E-004
                   131  1.247870036911610E-012
                   132  4.705508530844320E-004
                   133  1.667843095427250E-003
                   134  1.075032825173160E-011
                   135  7.012937496944035E-006
                   136  1.793120100007780E-012
                   137  2.034222138187210E-013
                   138  2.165011184302420E-005
                   139  2.738574636884760E-006
                   140  1.420313239981121E-004
                   141 -2.632272139593750E-012
                   142  7.776659919044990E-013
                   143  2.885849703085460E-004
                   144  1.470938797117080E-004
                   145  5.879941522350042E-013
                   146 -7.631693937183359E-006
                   147 -5.041582731268715E-005
                   148 -2.606555092851680E-013
                   149 -1.609064706589800E-012
                   150 -6.035686944084824E-006
                   151 -3.689060697524811E-005
                   152 -1.730890929774980E-004
                   153 -2.492099963506590E-004
                   154  6.479684275618890E-005
                   155  2.740778925493110E-004
                   156 -9.277210732264210E-006
                   157 -5.275747351838700E-004
                   158  1.805062708757870E-012
                   159  1.886572296307390E-005
                   160  6.619845601451310E-005
                   161 -2.131127105227730E-012
                   162  5.207050299448330E-004
                   163 -1.393386555299770E-004
                   164  1.158083166666270E-011
                   165  7.102808905626134E-007
                   166  3.022875365144200E-012
                   167  1.717617342295600E-012
                   168 -4.153309174973700E-006
                   169 -7.301378148580600E-007
                   170  8.502359469904140E-005
                   171 -3.365934166649510E-012
                   172  1.597940870388780E-012
                   173  4.639654026792120E-005
                   174 -7.397730820491480E-006
                   175 -1.802606299456119E-013
                   176 -1.048825332360814E-007
                   177 -1.394628457086514E-005
                   178  1.094582233341004E-012
                   179 -4.335408869188870E-013
                   180 -6.362073668952285E-006
                   181 -2.076186206282231E-005
                   182 -1.685919869565380E-004
                   183 -5.409735107050261E-004
                   184  3.588010512288510E-005
                   185  2.697373506782750E-004
                   186 -3.852263847570110E-005
                   187 -5.458325723003040E-006
                   188 -8.214551520154209E-012
                   189  1.899071287471020E-004
                   190  8.364528717194280E-005
                   191  4.551239385948360E-012
                   192  1.001454955787860E-003
                   193 -2.075609088668470E-004
                   194 -1.337193461932290E-011
                   195  3.254919551237734E-006
                   196 -3.923219167825270E-013
                   197  3.425212763786800E-012
                   198 -1.108753342876688E-005
                   199  5.593681018066690E-008
                   200 -2.457604696911844E-005
                   201 -1.576858662636760E-012
                   202 -7.427585371113280E-013
                   203 -7.960991200104180E-005
                   204 -1.533185959072050E-004
                   205  1.773802297166140E-013
                   206 -8.498352495592703E-006
                   207 -4.458959087477752E-006
                   208 -2.810168693800540E-012
                   209  1.063282630575810E-012
                   210  5.414373756558701E-006
                   211 -8.366027613489155E-006
                   212  1.082952456450340E-004
                   213 -1.290210334549800E-004
                   214  2.242747347071940E-004
                   215  1.832224125076810E-004
                   216 -3.115190458148200E-012
                   217  1.762018241194630E-003
                   218 -1.537884622678450E-003
                   219 -3.830400302004710E-004
                   220  2.590545660055980E-004
                   221  7.747570762115720E-012
                   222 -3.870826445952940E-004
                   223 -6.544521976655550E-004
                   224 -1.185855350380560E-005
                   225 -6.190170633057679E-005
                   226  7.812502424054200E-013
                   227 -3.216872555407750E-004
                   228 -4.569919048278690E-004
                   229 -6.681268314275440E-006
                   230 -3.194088099984030E-005
                   231  1.056931091442880E-013
                   232 -1.111529805722900E-004
                   233 -3.474734996383060E-004
                   234 -3.750832328627000E-006
                   235 -2.186090438283300E-006
                   236 -1.443810934397690E-012
                   237 -1.606669656127750E-004
                   238 -3.401761602089370E-004
                   239  5.178818199176500E-006
                   240 -3.362509233390820E-006
                   241 -6.972080338439350E-013
                   242  2.067947430922720E-005
                   243  3.560207177178390E-005
                   244  1.527419278560190E-006
                   245  2.810371411579120E-005
                   246 -4.373874590245720E-013
 Sym= __2_a__
 Ene=  0.000000000000000E+000
 Spin= Alpha
 Occup=    2.00000000000000     
                     1 -5.441197093191910E-005
                     2 -2.577868641543180E-004
                     3  2.800064993414470E-003
                     4  1.244872687926590E-004
                     5  1.327923952507720E-003
                     6 -2.390616115776420E-004
                     7  3.246423567116920E-003
                     8  1.144111050938450E-011
                     9  6.760044960100730E-007
                    10 -1.014341025013600E-004
                    11 -4.940162972467990E-012
                    12  1.281156904015710E-005
                    13 -4.647782375870380E-004
                    14  7.704389875547830E-013
                    15  4.032833781062723E-005
                    16  1.377515074306230E-013
                    17  1.526584909454810E-013
                    18 -5.644430692030980E-005
                    19  1.521255522968720E-005
                    20 -1.159987739779929E-004
                    21 -9.396684816633440E-013
                    22  8.027450223773800E-013
                    23  2.498468040535500E-004
                    24 -1.090407306099240E-004
                    25  2.006379284721069E-012
                    26 -9.614862967637084E-006
                    27  1.140426187198494E-004
                    28 -1.223381476337482E-012
                    29 -1.263200970640390E-013
                    30 -5.277271374432935E-005
                    31  1.404391142907187E-004
                    32   1.00090131641083     
                    33  9.308967058220480E-003
                    34  2.692089232811380E-003
                    35 -7.639936064202020E-003
                    36 -5.466444180932650E-005
                    37 -3.757062315255970E-003
                    38  7.483225555781710E-012
                    39 -1.953727809761270E-004
                    40  3.746478219689680E-004
                    41 -5.689227510793670E-013
                    42 -1.124859006194870E-004
                    43  4.230885767574540E-003
                    44 -2.814503761015260E-012
                    45 -5.908278354192986E-004
                    46  3.822535256363730E-012
                    47 -7.941037985544200E-013
                    48 -2.995739286161100E-004
                    49  4.690674901680930E-005
                    50  4.767338828464162E-004
                    51 -7.136103813359910E-012
                    52  8.958722513756440E-013
                    53 -2.527436405582020E-004
                    54 -3.650136341085810E-004
                    55 -1.088938182188562E-012
                    56  1.352916158110100E-005
                    57  1.055531018149567E-004
                    58  1.037982757662006E-012
                    59  1.347244677526820E-012
                    60 -3.527021416750345E-005
                    61  4.485052229231280E-004
                    62  9.832415283804109E-003
                    63 -2.182658126622470E-003
                    64 -1.530645073893840E-004
                    65  2.463807790127350E-003
                    66 -9.649644785301600E-006
                    67 -5.954463083815610E-006
                    68  4.703891606776580E-012
                    69  5.430047543174830E-004
                    70  2.408847893725080E-004
                    71 -6.939755880342570E-012
                    72 -1.973677642364640E-003
                    73  5.436900149622640E-004
                    74 -4.053953163761160E-012
                    75  4.890320299563087E-005
                    76  1.964586648380020E-012
                    77  1.228512092293020E-012
                    78 -8.012426328056700E-006
                    79  2.537496524749480E-006
                    80 -3.880808407942698E-004
                    81 -4.730019258548920E-012
                    82 -5.981383675403850E-012
                    83 -4.715111098636600E-004
                    84 -2.845371959362530E-005
                    85  6.015789488025653E-013
                    86  2.385433508173031E-005
                    87 -6.105426361690627E-005
                    88  3.992639902466520E-012
                    89  1.608379974235130E-012
                    90 -1.227626572640075E-006
                    91  1.579822258068556E-004
                    92  1.134243744099100E-002
                    93 -2.231276680451650E-003
                    94 -2.244233692677860E-004
                    95  2.941853138026710E-003
                    96  8.998813877626050E-005
                    97  3.770097822082850E-006
                    98  3.697823499452850E-012
                    99 -9.295216244883610E-004
                   100  6.791807993486450E-005
                   101 -2.227469403381070E-012
                   102  1.647770459268160E-003
                   103  2.616136565371890E-004
                   104  3.929151288616520E-012
                   105  3.658924217093858E-005
                   106 -1.286641497303210E-012
                   107 -2.823518290867450E-012
                   108 -3.339152867409780E-006
                   109  1.163273213520690E-005
                   110 -3.988867739969560E-004
                   111 -2.071707704800410E-012
                   112 -3.447947181020510E-013
                   113 -2.326847045865520E-004
                   114  9.111955850295210E-005
                   115 -9.101014999657681E-013
                   116 -2.273785650930387E-005
                   117 -6.981463894121511E-005
                   118  3.460569289729360E-012
                   119  1.238702309845470E-012
                   120  3.749683683357352E-005
                   121  1.372558163820613E-004
                   122 -2.454054124689540E-004
                   123 -7.703911362781060E-004
                   124  2.281181170006870E-004
                   125  7.436389594551870E-005
                   126  3.124188290935740E-005
                   127 -3.649449523810570E-004
                   128  8.123299086146390E-012
                   129 -1.508059393227900E-004
                   130  5.273567962266050E-004
                   131 -2.098487153132380E-013
                   132  3.048868213204200E-004
                   133  9.772252128791279E-004
                   134  2.239203788872480E-012
                   135  1.247548471199955E-005
                   136 -1.324846523250170E-012
                   137 -5.651515197913750E-013
                   138  3.519441600314460E-006
                   139  1.960631358553190E-005
                   140  1.337489340938146E-004
                   141  4.574384316396690E-012
                   142 -4.558301809276490E-012
                   143  2.179106080800780E-004
                   144  1.617450367631470E-005
                   145 -2.569104269390861E-013
                   146  1.417087011194941E-005
                   147 -4.434882536318015E-005
                   148 -5.034660126410260E-012
                   149 -4.629889949319750E-013
                   150 -4.461807435824473E-005
                   151  3.396982004945974E-005
                   152 -1.792174070864370E-004
                   153 -7.488549295875180E-004
                   154  2.251394703767910E-004
                   155  1.450746400989780E-004
                   156 -4.231019963492660E-005
                   157 -3.654062679598090E-004
                   158  8.734939564440540E-012
                   159  1.808579550107710E-004
                   160  4.415602384699110E-004