[Molden Format]
[Atoms] AU
  N     1    7    -0.0524017100   -4.4524212400    0.0000000000        
  C     2    6     0.0571032200   -1.9578645300    0.0000000000        
  C     3    6    -2.2257831100   -0.4935507600    0.0000000000        
  C     4    6     2.3071241400   -0.4422126900    0.0000000000        
  C     5    6    -2.2059870800    2.2006065600    0.0000000000        
  C     6    6     2.2332450100    2.2625334200    0.0000000000        
  C     7    6     0.0040547000    3.5988115600    0.0000000000        
  H     8    1    -2.3967884200   -5.6768230200    0.0000000000        
  H     9    1     1.6328397800   -5.4101784700    0.0000000000        
  H    10    1    -3.9947448700   -1.4678928600    0.0000000000        
  H    11    1     4.1148676700   -1.3530833100    0.0000000000        
  H    12    1    -4.0029365500    3.1442407900    0.0000000000        
  H    13    1     4.0085840600    3.2454412900    0.0000000000        
  H    14    1    -0.0230569200    5.6209451700    0.0000000000        
[5D]
[7F]
[GTO]
  1  0
   s    12 1.00
  0.114200D+05  0.172695D-04
  0.171200D+04  0.134411D-03
  0.389300D+03  0.694561D-03
  0.110000D+03  0.278531D-02
  0.355700D+02  0.863457D-02
  0.125400D+02  0.199805D-01
  0.464400D+01  0.262908D-01
  0.129300D+01 -0.243845D-01
  0.511800D+00 -0.924934D-01
  0.178700D+00 -0.339683D+00
  0.246240D-01  0.345111D+00
  0.112530D-01  0.752750D+00
   s    10 1.00
  0.114200D+05  0.523000D-03
  0.171200D+04  0.404500D-02
  0.389300D+03  0.207750D-01
  0.110000D+03  0.807269D-01
  0.355700D+02  0.233074D+00
  0.125400D+02  0.433501D+00
  0.464400D+01  0.347472D+00
  0.129300D+01  0.412620D-01
  0.511800D+00 -0.850799D-02
  0.178700D+00  0.238400D-02
   s    10 1.00
  0.114200D+05 -0.115000D-03
  0.171200D+04 -0.895000D-03
  0.389300D+03 -0.462400D-02
  0.110000D+03 -0.185280D-01
  0.355700D+02 -0.573390D-01
  0.125400D+02 -0.132076D+00
  0.464400D+01 -0.172510D+00
  0.129300D+01  0.151814D+00
  0.511800D+00  0.599944D+00
  0.178700D+00  0.387462D+00
   s     1 1.00
  0.129300D+01  0.100000D+01
   s     1 1.00
  0.178700D+00  0.100000D+01
   p     5 1.00
  0.266300D+02  0.146700D-01
  0.594800D+01  0.917640D-01
  0.174200D+01  0.298683D+00
  0.555000D+00  0.498487D+00
  0.172500D+00  0.337023D+00
   p     1 1.00
  0.174200D+01  0.100000D+01
   p     1 1.00
  0.555000D+00  0.100000D+01
   d     1 1.00
  0.165400D+01  0.100000D+01
   d     1 1.00
  0.469000D+00  0.100000D+01
   f     1 1.00
  0.109300D+01  0.100000D+01
  
  2  0
   s    10 1.00
  0.823600D+04  0.531000D-03
  0.123500D+04  0.410800D-02
  0.280800D+03  0.210870D-01
  0.792700D+02  0.818530D-01
  0.255900D+02  0.234817D+00
  0.899700D+01  0.434401D+00
  0.331900D+01  0.346129D+00
  0.905900D+00  0.393780D-01
  0.364300D+00 -0.898300D-02
  0.128500D+00  0.238500D-02
   s    10 1.00
  0.823600D+04 -0.113000D-03
  0.123500D+04 -0.878000D-03
  0.280800D+03 -0.454000D-02
  0.792700D+02 -0.181330D-01
  0.255900D+02 -0.557600D-01
  0.899700D+01 -0.126895D+00
  0.331900D+01 -0.170352D+00
  0.905900D+00  0.140382D+00
  0.364300D+00  0.598684D+00
  0.128500D+00  0.395389D+00
   s     1 1.00
  0.905900D+00  0.100000D+01
   s     1 1.00
  0.364300D+00  0.100000D+01
   p     5 1.00
  0.187100D+02  0.140310D-01
  0.413300D+01  0.868660D-01
  0.120000D+01  0.290216D+00
  0.382700D+00  0.501008D+00
  0.120900D+00  0.343406D+00
   p     1 1.00
  0.382700D+00  0.100000D+01
   p     1 1.00
  0.120900D+00  0.100000D+01
   d     1 1.00
  0.109700D+01  0.100000D+01
   d     1 1.00
  0.318000D+00  0.100000D+01
   f     1 1.00
  0.761000D+00  0.100000D+01
  
  3  0
   s    10 1.00
  0.823600D+04  0.531000D-03
  0.123500D+04  0.410800D-02
  0.280800D+03  0.210870D-01
  0.792700D+02  0.818530D-01
  0.255900D+02  0.234817D+00
  0.899700D+01  0.434401D+00
  0.331900D+01  0.346129D+00
  0.905900D+00  0.393780D-01
  0.364300D+00 -0.898300D-02
  0.128500D+00  0.238500D-02
   s    10 1.00
  0.823600D+04 -0.113000D-03
  0.123500D+04 -0.878000D-03
  0.280800D+03 -0.454000D-02
  0.792700D+02 -0.181330D-01
  0.255900D+02 -0.557600D-01
  0.899700D+01 -0.126895D+00
  0.331900D+01 -0.170352D+00
  0.905900D+00  0.140382D+00
  0.364300D+00  0.598684D+00
  0.128500D+00  0.395389D+00
   s     1 1.00
  0.905900D+00  0.100000D+01
   s     1 1.00
  0.364300D+00  0.100000D+01
   p     5 1.00
  0.187100D+02  0.140310D-01
  0.413300D+01  0.868660D-01
  0.120000D+01  0.290216D+00
  0.382700D+00  0.501008D+00
  0.120900D+00  0.343406D+00
   p     1 1.00
  0.382700D+00  0.100000D+01
   p     1 1.00
  0.120900D+00  0.100000D+01
   d     1 1.00
  0.109700D+01  0.100000D+01
   d     1 1.00
  0.318000D+00  0.100000D+01
   f     1 1.00
  0.761000D+00  0.100000D+01
  
  4  0
   s    10 1.00
  0.823600D+04  0.531000D-03
  0.123500D+04  0.410800D-02
  0.280800D+03  0.210870D-01
  0.792700D+02  0.818530D-01
  0.255900D+02  0.234817D+00
  0.899700D+01  0.434401D+00
  0.331900D+01  0.346129D+00
  0.905900D+00  0.393780D-01
  0.364300D+00 -0.898300D-02
  0.128500D+00  0.238500D-02
   s    10 1.00
  0.823600D+04 -0.113000D-03
  0.123500D+04 -0.878000D-03
  0.280800D+03 -0.454000D-02
  0.792700D+02 -0.181330D-01
  0.255900D+02 -0.557600D-01
  0.899700D+01 -0.126895D+00
  0.331900D+01 -0.170352D+00
  0.905900D+00  0.140382D+00
  0.364300D+00  0.598684D+00
  0.128500D+00  0.395389D+00
   s     1 1.00
  0.905900D+00  0.100000D+01
   s     1 1.00
  0.364300D+00  0.100000D+01
   p     5 1.00
  0.187100D+02  0.140310D-01
  0.413300D+01  0.868660D-01
  0.120000D+01  0.290216D+00
  0.382700D+00  0.501008D+00
  0.120900D+00  0.343406D+00
   p     1 1.00
  0.382700D+00  0.100000D+01
   p     1 1.00
  0.120900D+00  0.100000D+01
   d     1 1.00
  0.109700D+01  0.100000D+01
   d     1 1.00
  0.318000D+00  0.100000D+01
   f     1 1.00
  0.761000D+00  0.100000D+01
  
  5  0
   s    10 1.00
  0.823600D+04  0.531000D-03
  0.123500D+04  0.410800D-02
  0.280800D+03  0.210870D-01
  0.792700D+02  0.818530D-01
  0.255900D+02  0.234817D+00
  0.899700D+01  0.434401D+00
  0.331900D+01  0.346129D+00
  0.905900D+00  0.393780D-01
  0.364300D+00 -0.898300D-02
  0.128500D+00  0.238500D-02
   s    10 1.00
  0.823600D+04 -0.113000D-03
  0.123500D+04 -0.878000D-03
  0.280800D+03 -0.454000D-02
  0.792700D+02 -0.181330D-01
  0.255900D+02 -0.557600D-01
  0.899700D+01 -0.126895D+00
  0.331900D+01 -0.170352D+00
  0.905900D+00  0.140382D+00
  0.364300D+00  0.598684D+00
  0.128500D+00  0.395389D+00
   s     1 1.00
  0.905900D+00  0.100000D+01
   s     1 1.00
  0.364300D+00  0.100000D+01
   p     5 1.00
  0.187100D+02  0.140310D-01
  0.413300D+01  0.868660D-01
  0.120000D+01  0.290216D+00
  0.382700D+00  0.501008D+00
  0.120900D+00  0.343406D+00
   p     1 1.00
  0.382700D+00  0.100000D+01
   p     1 1.00
  0.120900D+00  0.100000D+01
   d     1 1.00
  0.109700D+01  0.100000D+01
   d     1 1.00
  0.318000D+00  0.100000D+01
   f     1 1.00
  0.761000D+00  0.100000D+01
  
  6  0
   s    10 1.00
  0.823600D+04  0.531000D-03
  0.123500D+04  0.410800D-02
  0.280800D+03  0.210870D-01
  0.792700D+02  0.818530D-01
  0.255900D+02  0.234817D+00
  0.899700D+01  0.434401D+00
  0.331900D+01  0.346129D+00
  0.905900D+00  0.393780D-01
  0.364300D+00 -0.898300D-02
  0.128500D+00  0.238500D-02
   s    10 1.00
  0.823600D+04 -0.113000D-03
  0.123500D+04 -0.878000D-03
  0.280800D+03 -0.454000D-02
  0.792700D+02 -0.181330D-01
  0.255900D+02 -0.557600D-01
  0.899700D+01 -0.126895D+00
  0.331900D+01 -0.170352D+00
  0.905900D+00  0.140382D+00
  0.364300D+00  0.598684D+00
  0.128500D+00  0.395389D+00
   s     1 1.00
  0.905900D+00  0.100000D+01
   s     1 1.00
  0.364300D+00  0.100000D+01
   p     5 1.00
  0.187100D+02  0.140310D-01
  0.413300D+01  0.868660D-01
  0.120000D+01  0.290216D+00
  0.382700D+00  0.501008D+00
  0.120900D+00  0.343406D+00
   p     1 1.00
  0.382700D+00  0.100000D+01
   p     1 1.00
  0.120900D+00  0.100000D+01
   d     1 1.00
  0.109700D+01  0.100000D+01
   d     1 1.00
  0.318000D+00  0.100000D+01
   f     1 1.00
  0.761000D+00  0.100000D+01
  
  7  0
   s    10 1.00
  0.823600D+04  0.531000D-03
  0.123500D+04  0.410800D-02
  0.280800D+03  0.210870D-01
  0.792700D+02  0.818530D-01
  0.255900D+02  0.234817D+00
  0.899700D+01  0.434401D+00
  0.331900D+01  0.346129D+00
  0.905900D+00  0.393780D-01
  0.364300D+00 -0.898300D-02
  0.128500D+00  0.238500D-02
   s    10 1.00
  0.823600D+04 -0.113000D-03
  0.123500D+04 -0.878000D-03
  0.280800D+03 -0.454000D-02
  0.792700D+02 -0.181330D-01
  0.255900D+02 -0.557600D-01
  0.899700D+01 -0.126895D+00
  0.331900D+01 -0.170352D+00
  0.905900D+00  0.140382D+00
  0.364300D+00  0.598684D+00
  0.128500D+00  0.395389D+00
   s     1 1.00
  0.905900D+00  0.100000D+01
   s     1 1.00
  0.364300D+00  0.100000D+01
   p     5 1.00
  0.187100D+02  0.140310D-01
  0.413300D+01  0.868660D-01
  0.120000D+01  0.290216D+00
  0.382700D+00  0.501008D+00
  0.120900D+00  0.343406D+00
   p     1 1.00
  0.382700D+00  0.100000D+01
   p     1 1.00
  0.120900D+00  0.100000D+01
   d     1 1.00
  0.109700D+01  0.100000D+01
   d     1 1.00
  0.318000D+00  0.100000D+01
   f     1 1.00
  0.761000D+00  0.100000D+01
  
  8  0
   s     4 1.00
  0.130100D+02  0.196850D-01
  0.196200D+01  0.137977D+00
  0.444600D+00  0.478148D+00
  0.122000D+00  0.501240D+00
   s     1 1.00
  0.122000D+00  0.100000D+01
   p     1 1.00
  0.727000D+00  0.100000D+01
  
  9  0
   s     4 1.00
  0.130100D+02  0.196850D-01
  0.196200D+01  0.137977D+00
  0.444600D+00  0.478148D+00
  0.122000D+00  0.501240D+00
   s     1 1.00
  0.122000D+00  0.100000D+01
   p     1 1.00
  0.727000D+00  0.100000D+01
  
 10  0
   s     4 1.00
  0.130100D+02  0.196850D-01
  0.196200D+01  0.137977D+00
  0.444600D+00  0.478148D+00
  0.122000D+00  0.501240D+00
   s     1 1.00
  0.122000D+00  0.100000D+01
   p     1 1.00
  0.727000D+00  0.100000D+01
  
 11  0
   s     4 1.00
  0.130100D+02  0.196850D-01
  0.196200D+01  0.137977D+00
  0.444600D+00  0.478148D+00
  0.122000D+00  0.501240D+00
   s     1 1.00
  0.122000D+00  0.100000D+01
   p     1 1.00
  0.727000D+00  0.100000D+01
  
 12  0
   s     4 1.00
  0.130100D+02  0.196850D-01
  0.196200D+01  0.137977D+00
  0.444600D+00  0.478148D+00
  0.122000D+00  0.501240D+00
   s     1 1.00
  0.122000D+00  0.100000D+01
   p     1 1.00
  0.727000D+00  0.100000D+01
  
 13  0
   s     4 1.00
  0.130100D+02  0.196850D-01
  0.196200D+01  0.137977D+00
  0.444600D+00  0.478148D+00
  0.122000D+00  0.501240D+00
   s     1 1.00
  0.122000D+00  0.100000D+01
   p     1 1.00
  0.727000D+00  0.100000D+01
  
 14  0
   s     4 1.00
  0.130100D+02  0.196850D-01
  0.196200D+01  0.137977D+00
  0.444600D+00  0.478148D+00
  0.122000D+00  0.501240D+00
   s     1 1.00
  0.122000D+00  0.100000D+01
   p     1 1.00
  0.727000D+00  0.100000D+01
  
[MO]
 Sym= __1_A__
 Ene=  0.000000000000000E+000
 Spin= Alpha
 Occup=    2.00000000000000     
                     1  3.774045343911522E-005
                     2  0.998395416337448     
                     3  2.726590931010308E-003
                     4  1.755137603587417E-003
                     5  4.225546042395095E-003
                     6  3.154626764960755E-003
                     7  6.308871569626490E-003
                     8 -3.142055636723242E-012
                     9 -5.106574948848569E-004
                    10 -5.268619830205028E-004
                    11 -3.666014188933629E-013
                    12 -1.845152430427502E-003
                    13 -1.305427026433072E-003
                    14 -7.686073981206179E-012
                    15 -1.430507633927166E-004
                    16  1.244546407672330E-012
                    17  6.310147541669987E-013
                    18 -1.912429709080671E-004
                    19 -5.328900319466557E-005
                    20  2.181813990265399E-004
                    21 -7.590772692637480E-012
                    22  2.097661374674954E-012
                    23 -3.997245351235526E-004
                    24  3.622815086944516E-004
                    25 -3.698930298095441E-013
                    26 -2.131961175153559E-005
                    27 -7.560300700792700E-005
                    28  3.679112537114132E-013
                    29  1.442002097581819E-012
                    30  2.533276187131615E-005
                    31 -1.407115228679122E-004
                    32 -3.501733581872558E-004
                    33  1.809834823344102E-003
                    34  3.201594569153548E-004
                    35 -5.409823003072081E-004
                    36 -2.632599088014528E-004
                    37 -5.175785249125523E-003
                    38 -5.614945000233143E-012
                    39  3.314152033758409E-004
                    40  4.836900492576242E-004
                    41 -3.652281818437909E-013
                    42 -1.484982368902829E-003
                    43  5.212425441310711E-003
                    44 -4.868358275266887E-013
                    45 -8.803336247339654E-006
                    46 -1.262125163639795E-013
                    47  1.360008901848055E-012
                    48 -2.184072768275472E-004
                    49 -1.759598552409799E-005
                    50 -2.639239657379773E-004
                    51  3.926651994423299E-012
                    52 -5.821454132417774E-012
                    53 -2.963311617903822E-005
                    54  5.482926535576450E-004
                    55  1.308183278494542E-012
                    56 -1.103296007312244E-005
                    57 -5.358148575426552E-005
                    58 -3.010743643871574E-012
                    59 -1.571029040902931E-012
                    60  5.509439552103417E-005
                    61 -1.425792887771537E-004
                    62 -4.188795197312476E-004
                    63 -1.982619910025117E-003
                    64 -5.123357624188009E-005
                    65  1.599830379252416E-003
                    66 -6.145939855146810E-004
                    67  4.745374403548316E-004
                    68 -3.816644909483340E-012
                    69  2.855149304465326E-004
                    70  5.872577655566686E-004
                    71  9.687988165270135E-013
                    72 -1.666113594117417E-003
                    73  7.707399901463931E-004
                    74 -4.727109259711864E-013
                    75 -2.882454936301195E-005
                    76 -3.924665147828674E-012
                    77  1.410302357529849E-012
                    78 -5.793877441185824E-005
                    79 -2.076068613883369E-005
                    80 -1.041279876883935E-004
                    81  4.161579956674402E-012
                    82 -3.270244584536649E-012
                    83 -1.602613906888355E-006
                    84 -1.433869074684332E-007
                    85 -1.035458039282104E-012
                    86  1.680737446965517E-005
                    87 -4.308442860969560E-005
                    88 -1.831769926215171E-012
                    89 -3.210145462741902E-012
                    90 -1.209746304618784E-005
                    91 -1.386772464350689E-004
                    92 -2.214983958356851E-004
                    93 -1.444635497044371E-003
                    94  1.579018500094188E-004
                    95  1.028466716384697E-004
                    96  6.124797239252460E-004
                    97  7.312190355512258E-004
                    98 -1.928044683465438E-011
                    99  2.671894146340234E-004
                   100  3.471646433982305E-004
                   101  1.015678851730874E-011
                   102  6.627451258396225E-004
                   103 -1.219258754202745E-003
                   104  1.145551236310819E-012
                   105 -6.407140537149906E-008
                   106  2.306472810946103E-012
                   107  5.663905210572322E-013
                   108 -7.646358914122395E-005
                   109 -1.738152905949891E-005
                   110  4.846768990861385E-005
                   111 -5.186255377447454E-013
                   112  9.624436096793217E-013
                   113 -1.294867160231318E-004
                   114 -1.355544335518393E-005
                   115  1.661105956126216E-012
                   116 -2.698326643950348E-005
                   117 -2.504430056597849E-005
                   118 -3.667488899463978E-013
                   119  1.143834016598361E-012
                   120 -3.233524358761639E-005
                   121 -4.284354914149727E-005
                   122 -2.364630910193718E-004
                   123 -4.805777523686966E-004
                   124  1.309529345962321E-004
                   125  4.088941025010090E-004
                   126 -1.824983857916014E-005
                   127 -5.523183810540790E-004
                   128 -4.230513048181196E-012
                   129  1.765093268967720E-004
                   130  4.608461271396188E-004
                   131  1.247870037660554E-012
                   132  4.705508528497939E-004
                   133  1.667843095048723E-003
                   134  1.075032825106327E-011
                   135  7.012937524053423E-006
                   136  1.793120099883480E-012
                   137  2.034222139083041E-013
                   138  2.165011187787448E-005
                   139  2.738574587098577E-006
                   140  1.420313240303299E-004
                   141 -2.632272138276732E-012
                   142  7.776659926327357E-013
                   143  2.885849703165270E-004
                   144  1.470938795922799E-004
                   145  5.879941522174993E-013
                   146 -7.631693933502613E-006
                   147 -5.041582731786647E-005
                   148 -2.606555091472196E-013
                   149 -1.609064706528939E-012
                   150 -6.035686938335523E-006
                   151 -3.689060700718001E-005
                   152 -1.730890928929363E-004
                   153 -2.492099952310276E-004
                   154  6.479684268873408E-005
                   155  2.740778925545231E-004
                   156 -9.277211370505686E-006
                   157 -5.275747364096128E-004
                   158  1.805062707554294E-012
                   159  1.886572308157226E-005
                   160  6.619845596900416E-005
                   161 -2.131127104879998E-012
                   162  5.207050296602469E-004
                   163 -1.393386556623417E-004
                   164  1.158083166656403E-011
                   165  7.102808744983212E-007
                   166  3.022875365088335E-012
                   167  1.717617342220274E-012
                   168 -4.153309217934784E-006
                   169 -7.301379198176743E-007
                   170  8.502359465470131E-005
                   171 -3.365934166933070E-012
                   172  1.597940870221977E-012
                   173  4.639654026024530E-005
                   174 -7.397730932930212E-006
                   175 -1.802606300875454E-013
                   176 -1.048825325873644E-007
                   177 -1.394628455790469E-005
                   178  1.094582233277862E-012
                   179 -4.335408868426059E-013
                   180 -6.362073639264790E-006
                   181 -2.076186204066004E-005
                   182 -1.685919869011477E-004
                   183 -5.409735102282871E-004
                   184  3.588010510241156E-005
                   185  2.697373505885137E-004
                   186 -3.852263769991805E-005
                   187 -5.458325521933228E-006
                   188 -8.214551520890143E-012
                   189  1.899071286645619E-004
                   190  8.364528715723889E-005
                   191  4.551239385004840E-012
                   192  1.001454955646377E-003
                   193 -2.075609089503271E-004
                   194 -1.337193461827149E-011
                   195  3.254919547904916E-006
                   196 -3.923219170264357E-013
                   197  3.425212763788816E-012
                   198 -1.108753343912379E-005
                   199  5.593677693962382E-008
                   200 -2.457604695314353E-005
                   201 -1.576858662045761E-012
                   202 -7.427585368930604E-013
                   203 -7.960991192757000E-005
                   204 -1.533185959572590E-004
                   205  1.773802296298027E-013
                   206 -8.498352500137724E-006
                   207 -4.458959089537931E-006
                   208 -2.810168693764810E-012
                   209  1.063282630510725E-012
                   210  5.414373760361530E-006
                   211 -8.366027615116754E-006
                   212  1.082952451207091E-004
                   213 -1.290210338257999E-004
                   214  2.242747347151655E-004
                   215  1.832224125116278E-004
                   216 -3.115190458432843E-012
                   217  1.762018241488635E-003
                   218 -1.537884622335653E-003
                   219 -3.830400301641387E-004
                   220  2.590545659657144E-004
                   221  7.747570762295402E-012
                   222 -3.870826449339972E-004
                   223 -6.544521976798348E-004
                   224 -1.185855343643141E-005
                   225 -6.190170638092038E-005
                   226  7.812502423938767E-013
                   227 -3.216872533205821E-004
                   228 -4.569919048326830E-004
                   229 -6.681268328984358E-006
                   230 -3.194088088437480E-005
                   231  1.056931087441180E-013
                   232 -1.111529802508123E-004
                   233 -3.474734993480300E-004
                   234 -3.750832321425146E-006
                   235 -2.186090420526767E-006
                   236 -1.443810934455025E-012
                   237 -1.606669669509307E-004
                   238 -3.401761598735308E-004
                   239  5.178818247534862E-006
                   240 -3.362509233526500E-006
                   241 -6.972080335145666E-013
                   242  2.067947468810816E-005
                   243  3.560207176316650E-005
                   244  1.527419285641370E-006
                   245  2.810371408994726E-005
                   246 -4.373874593200717E-013
 Sym= __2_A__
 Ene=  0.000000000000000E+000
 Spin= Alpha
 Occup=    2.00000000000000     
                     1 -5.441197095427575E-005
                     2 -2.577868622604036E-004
                     3  2.800064993551664E-003
                     4  1.244872687889264E-004
                     5  1.327923952194355E-003
                     6 -2.390616119078800E-004
                     7  3.246423567029125E-003
                     8  1.144111050908286E-011
                     9  6.760045004159579E-007
                    10 -1.014341024875253E-004
                    11 -4.940162972842553E-012
                    12  1.281156904391279E-005
                    13 -4.647782376014754E-004
                    14  7.704389882614480E-013
                    15  4.032833780406099E-005
                    16  1.377515075302482E-013
                    17  1.526584908797007E-013
                    18 -5.644430692162244E-005
                    19  1.521255518671578E-005
                    20 -1.159987739487393E-004
                    21 -9.396684799734847E-013
                    22  8.027450219280016E-013
                    23  2.498468040209736E-004
                    24 -1.090407307707424E-004
                    25  2.006379284841399E-012
                    26 -9.614862959584811E-006
                    27  1.140426187276604E-004
                    28 -1.223381476251411E-012
                    29 -1.263200972035769E-013
                    30 -5.277271377108325E-005
                    31  1.404391142767102E-004
                    32   1.00090131640745     
                    33  9.308967058335831E-003
                    34  2.692089232679234E-003
                    35 -7.639936063396363E-003
                    36 -5.466444744019890E-005
                    37 -3.757062314884454E-003
                    38  7.483225554453111E-012
                    39 -1.953727806434672E-004
                    40  3.746478221029890E-004
                    41 -5.689227490864157E-013
                    42 -1.124858991946956E-004
                    43  4.230885767415308E-003
                    44 -2.814503761514762E-012
                    45 -5.908278354198507E-004
                    46  3.822535256793676E-012
                    47 -7.941037991177619E-013
                    48 -2.995739285927350E-004
                    49  4.690674885631350E-005
                    50  4.767338826958030E-004
                    51 -7.136103814622251E-012
                    52  8.958722523260896E-013
                    53 -2.527436403358564E-004
                    54 -3.650136344189191E-004
                    55 -1.088938182567851E-012
                    56  1.352916163495843E-005
                    57  1.055531018205313E-004
                    58  1.037982758277185E-012
                    59  1.347244677549999E-012
                    60 -3.527021418157883E-005
                    61  4.485052229009836E-004
                    62  9.832415400306826E-003
                    63 -2.182658123143605E-003
                    64 -1.530645070433545E-004
                    65  2.463807788903918E-003
                    66 -9.649642022119884E-006
                    67 -5.954466140367364E-006
                    68  4.703891604930293E-012
                    69  5.430047539802797E-004
                    70  2.408847895942108E-004
                    71 -6.939755879856700E-012
                    72 -1.973677642630497E-003
                    73  5.436900157115499E-004
                    74 -4.053953163706464E-012
                    75  4.890320291831285E-005
                    76  1.964586648893359E-012
                    77  1.228512092012970E-012
                    78 -8.012426292136128E-006
                    79  2.537496406604910E-006
                    80 -3.880808407694239E-004
                    81 -4.730019261865773E-012
                    82 -5.981383675003136E-012
                    83 -4.715111097961728E-004
                    84 -2.845371959219169E-005
                    85  6.015789490252881E-013
                    86  2.385433506863917E-005
                    87 -6.105426358444694E-005
                    88  3.992639902612772E-012
                    89  1.608379974257199E-012
                    90 -1.227626543324287E-006
                    91  1.579822257394644E-004
                    92  1.134243760629840E-002
                    93 -2.231276681551503E-003
                    94 -2.244233687181820E-004
                    95  2.941853136770437E-003
                    96  8.998814152087132E-005
                    97  3.770099332798307E-006
                    98  3.697823500693624E-012
                    99 -9.295216245136455E-004
                   100  6.791807986913342E-005
                   101 -2.227469404600426E-012
                   102  1.647770458953488E-003
                   103  2.616136564240453E-004
                   104  3.929151290155051E-012
                   105  3.658924215056541E-005
                   106 -1.286641497961111E-012
                   107 -2.823518291347223E-012
                   108 -3.339152870555818E-006
                   109  1.163273203715397E-005
                   110 -3.988867738344598E-004
                   111 -2.071707705128076E-012
                   112 -3.447947181156907E-013
                   113 -2.326847044077428E-004
                   114  9.111955821043995E-005
                   115 -9.101015000878041E-013
                   116 -2.273785655171587E-005
                   117 -6.981463895323215E-005
                   118  3.460569290081772E-012
                   119  1.238702309508267E-012
                   120  3.749683685353990E-005
                   121  1.372558163812098E-004
                   122 -2.454054104356839E-004
                   123 -7.703911378016071E-004
                   124  2.281181169925183E-004
                   125  7.436389638692549E-005
                   126  3.124188270313200E-005
                   127 -3.649449513550722E-004
                   128  8.123299085966942E-012
                   129 -1.508059392891990E-004
                   130  5.273567961180718E-004
                   131 -2.098487141619353E-013
                   132  3.048868211212993E-004
                   133  9.772252129710850E-004
                   134  2.239203789719697E-012
                   135  1.247548473502419E-005
                   136 -1.324846523842827E-012
                   137 -5.651515196509837E-013
                   138  3.519441629707088E-006
                   139  1.960631354508773E-005
                   140  1.337489340701092E-004
                   141  4.574384320179660E-012
                   142 -4.558301807682691E-012
                   143  2.179106081013128E-004
                   144  1.617450368057528E-005
                   145 -2.569104261424303E-013
                   146  1.417087011154449E-005
                   147 -4.434882538359977E-005
                   148 -5.034660126757650E-012
                   149 -4.629889955350913E-013
                   150 -4.461807435247380E-005
                   151  3.396982001451390E-005
                   152 -1.792174020795177E-004
                   153 -7.488549296765303E-004
                   154  2.251394703089519E-004
                   155  1.450746406752258E-004
                   156 -4.231019985054141E-005
                   157 -3.654062680442135E-004
                   158  8.734939563224519E-012
                   159  1.808579550245934E-004
                   160  4.415602383225613E-004