[Molden Format]
[Atoms] AU
  N     1    7    -0.0524017100   -4.4524212400    0.0000000000        
  C     2    6     0.0571032200   -1.9578645300    0.0000000000        
  C     3    6    -2.2257831100   -0.4935507600    0.0000000000        
  C     4    6     2.3071241400   -0.4422126900    0.0000000000        
  C     5    6    -2.2059870800    2.2006065600    0.0000000000        
  C     6    6     2.2332450100    2.2625334200    0.0000000000        
  C     7    6     0.0040547000    3.5988115600    0.0000000000        
  H     8    1    -2.3967884200   -5.6768230200    0.0000000000        
  H     9    1     1.6328397800   -5.4101784700    0.0000000000        
  H    10    1    -3.9947448700   -1.4678928600    0.0000000000        
  H    11    1     4.1148676700   -1.3530833100    0.0000000000        
  H    12    1    -4.0029365500    3.1442407900    0.0000000000        
  H    13    1     4.0085840600    3.2454412900    0.0000000000        
  H    14    1    -0.0230569200    5.6209451700    0.0000000000        
[5D]
[7F]
[GTO]
  1  0
   s    12 1.00
  0.114200D+05  0.172695D-04
  0.171200D+04  0.134411D-03
  0.389300D+03  0.694561D-03
  0.110000D+03  0.278531D-02
  0.355700D+02  0.863457D-02
  0.125400D+02  0.199805D-01
  0.464400D+01  0.262908D-01
  0.129300D+01 -0.243845D-01
  0.511800D+00 -0.924934D-01
  0.178700D+00 -0.339683D+00
  0.246240D-01  0.345111D+00
  0.112530D-01  0.752750D+00
   s    10 1.00
  0.114200D+05  0.523000D-03
  0.171200D+04  0.404500D-02
  0.389300D+03  0.207750D-01
  0.110000D+03  0.807269D-01
  0.355700D+02  0.233074D+00
  0.125400D+02  0.433501D+00
  0.464400D+01  0.347472D+00
  0.129300D+01  0.412620D-01
  0.511800D+00 -0.850799D-02
  0.178700D+00  0.238400D-02
   s    10 1.00
  0.114200D+05 -0.115000D-03
  0.171200D+04 -0.895000D-03
  0.389300D+03 -0.462400D-02
  0.110000D+03 -0.185280D-01
  0.355700D+02 -0.573390D-01
  0.125400D+02 -0.132076D+00
  0.464400D+01 -0.172510D+00
  0.129300D+01  0.151814D+00
  0.511800D+00  0.599944D+00
  0.178700D+00  0.387462D+00
   s     1 1.00
  0.129300D+01  0.100000D+01
   s     1 1.00
  0.178700D+00  0.100000D+01
   p     5 1.00
  0.266300D+02  0.146700D-01
  0.594800D+01  0.917640D-01
  0.174200D+01  0.298683D+00
  0.555000D+00  0.498487D+00
  0.172500D+00  0.337023D+00
   p     1 1.00
  0.174200D+01  0.100000D+01
   p     1 1.00
  0.555000D+00  0.100000D+01
   d     1 1.00
  0.165400D+01  0.100000D+01
   d     1 1.00
  0.469000D+00  0.100000D+01
   f     1 1.00
  0.109300D+01  0.100000D+01
  
  2  0
   s    10 1.00
  0.823600D+04  0.531000D-03
  0.123500D+04  0.410800D-02
  0.280800D+03  0.210870D-01
  0.792700D+02  0.818530D-01
  0.255900D+02  0.234817D+00
  0.899700D+01  0.434401D+00
  0.331900D+01  0.346129D+00
  0.905900D+00  0.393780D-01
  0.364300D+00 -0.898300D-02
  0.128500D+00  0.238500D-02
   s    10 1.00
  0.823600D+04 -0.113000D-03
  0.123500D+04 -0.878000D-03
  0.280800D+03 -0.454000D-02
  0.792700D+02 -0.181330D-01
  0.255900D+02 -0.557600D-01
  0.899700D+01 -0.126895D+00
  0.331900D+01 -0.170352D+00
  0.905900D+00  0.140382D+00
  0.364300D+00  0.598684D+00
  0.128500D+00  0.395389D+00
   s     1 1.00
  0.905900D+00  0.100000D+01
   s     1 1.00
  0.364300D+00  0.100000D+01
   p     5 1.00
  0.187100D+02  0.140310D-01
  0.413300D+01  0.868660D-01
  0.120000D+01  0.290216D+00
  0.382700D+00  0.501008D+00
  0.120900D+00  0.343406D+00
   p     1 1.00
  0.382700D+00  0.100000D+01
   p     1 1.00
  0.120900D+00  0.100000D+01
   d     1 1.00
  0.109700D+01  0.100000D+01
   d     1 1.00
  0.318000D+00  0.100000D+01
   f     1 1.00
  0.761000D+00  0.100000D+01
  
  3  0
   s    10 1.00
  0.823600D+04  0.531000D-03
  0.123500D+04  0.410800D-02
  0.280800D+03  0.210870D-01
  0.792700D+02  0.818530D-01
  0.255900D+02  0.234817D+00
  0.899700D+01  0.434401D+00
  0.331900D+01  0.346129D+00
  0.905900D+00  0.393780D-01
  0.364300D+00 -0.898300D-02
  0.128500D+00  0.238500D-02
   s    10 1.00
  0.823600D+04 -0.113000D-03
  0.123500D+04 -0.878000D-03
  0.280800D+03 -0.454000D-02
  0.792700D+02 -0.181330D-01
  0.255900D+02 -0.557600D-01
  0.899700D+01 -0.126895D+00
  0.331900D+01 -0.170352D+00
  0.905900D+00  0.140382D+00
  0.364300D+00  0.598684D+00
  0.128500D+00  0.395389D+00
   s     1 1.00
  0.905900D+00  0.100000D+01
   s     1 1.00
  0.364300D+00  0.100000D+01
   p     5 1.00
  0.187100D+02  0.140310D-01
  0.413300D+01  0.868660D-01
  0.120000D+01  0.290216D+00
  0.382700D+00  0.501008D+00
  0.120900D+00  0.343406D+00
   p     1 1.00
  0.382700D+00  0.100000D+01
   p     1 1.00
  0.120900D+00  0.100000D+01
   d     1 1.00
  0.109700D+01  0.100000D+01
   d     1 1.00
  0.318000D+00  0.100000D+01
   f     1 1.00
  0.761000D+00  0.100000D+01
  
  4  0
   s    10 1.00
  0.823600D+04  0.531000D-03
  0.123500D+04  0.410800D-02
  0.280800D+03  0.210870D-01
  0.792700D+02  0.818530D-01
  0.255900D+02  0.234817D+00
  0.899700D+01  0.434401D+00
  0.331900D+01  0.346129D+00
  0.905900D+00  0.393780D-01
  0.364300D+00 -0.898300D-02
  0.128500D+00  0.238500D-02
   s    10 1.00
  0.823600D+04 -0.113000D-03
  0.123500D+04 -0.878000D-03
  0.280800D+03 -0.454000D-02
  0.792700D+02 -0.181330D-01
  0.255900D+02 -0.557600D-01
  0.899700D+01 -0.126895D+00
  0.331900D+01 -0.170352D+00
  0.905900D+00  0.140382D+00
  0.364300D+00  0.598684D+00
  0.128500D+00  0.395389D+00
   s     1 1.00
  0.905900D+00  0.100000D+01
   s     1 1.00
  0.364300D+00  0.100000D+01
   p     5 1.00
  0.187100D+02  0.140310D-01
  0.413300D+01  0.868660D-01
  0.120000D+01  0.290216D+00
  0.382700D+00  0.501008D+00
  0.120900D+00  0.343406D+00
   p     1 1.00
  0.382700D+00  0.100000D+01
   p     1 1.00
  0.120900D+00  0.100000D+01
   d     1 1.00
  0.109700D+01  0.100000D+01
   d     1 1.00
  0.318000D+00  0.100000D+01
   f     1 1.00
  0.761000D+00  0.100000D+01
  
  5  0
   s    10 1.00
  0.823600D+04  0.531000D-03
  0.123500D+04  0.410800D-02
  0.280800D+03  0.210870D-01
  0.792700D+02  0.818530D-01
  0.255900D+02  0.234817D+00
  0.899700D+01  0.434401D+00
  0.331900D+01  0.346129D+00
  0.905900D+00  0.393780D-01
  0.364300D+00 -0.898300D-02
  0.128500D+00  0.238500D-02
   s    10 1.00
  0.823600D+04 -0.113000D-03
  0.123500D+04 -0.878000D-03
  0.280800D+03 -0.454000D-02
  0.792700D+02 -0.181330D-01
  0.255900D+02 -0.557600D-01
  0.899700D+01 -0.126895D+00
  0.331900D+01 -0.170352D+00
  0.905900D+00  0.140382D+00
  0.364300D+00  0.598684D+00
  0.128500D+00  0.395389D+00
   s     1 1.00
  0.905900D+00  0.100000D+01
   s     1 1.00
  0.364300D+00  0.100000D+01
   p     5 1.00
  0.187100D+02  0.140310D-01
  0.413300D+01  0.868660D-01
  0.120000D+01  0.290216D+00
  0.382700D+00  0.501008D+00
  0.120900D+00  0.343406D+00
   p     1 1.00
  0.382700D+00  0.100000D+01
   p     1 1.00
  0.120900D+00  0.100000D+01
   d     1 1.00
  0.109700D+01  0.100000D+01
   d     1 1.00
  0.318000D+00  0.100000D+01
   f     1 1.00
  0.761000D+00  0.100000D+01
  
  6  0
   s    10 1.00
  0.823600D+04  0.531000D-03
  0.123500D+04  0.410800D-02
  0.280800D+03  0.210870D-01
  0.792700D+02  0.818530D-01
  0.255900D+02  0.234817D+00
  0.899700D+01  0.434401D+00
  0.331900D+01  0.346129D+00
  0.905900D+00  0.393780D-01
  0.364300D+00 -0.898300D-02
  0.128500D+00  0.238500D-02
   s    10 1.00
  0.823600D+04 -0.113000D-03
  0.123500D+04 -0.878000D-03
  0.280800D+03 -0.454000D-02
  0.792700D+02 -0.181330D-01
  0.255900D+02 -0.557600D-01
  0.899700D+01 -0.126895D+00
  0.331900D+01 -0.170352D+00
  0.905900D+00  0.140382D+00
  0.364300D+00  0.598684D+00
  0.128500D+00  0.395389D+00
   s     1 1.00
  0.905900D+00  0.100000D+01
   s     1 1.00
  0.364300D+00  0.100000D+01
   p     5 1.00
  0.187100D+02  0.140310D-01
  0.413300D+01  0.868660D-01
  0.120000D+01  0.290216D+00
  0.382700D+00  0.501008D+00
  0.120900D+00  0.343406D+00
   p     1 1.00
  0.382700D+00  0.100000D+01
   p     1 1.00
  0.120900D+00  0.100000D+01
   d     1 1.00
  0.109700D+01  0.100000D+01
   d     1 1.00
  0.318000D+00  0.100000D+01
   f     1 1.00
  0.761000D+00  0.100000D+01
  
  7  0
   s    10 1.00
  0.823600D+04  0.531000D-03
  0.123500D+04  0.410800D-02
  0.280800D+03  0.210870D-01
  0.792700D+02  0.818530D-01
  0.255900D+02  0.234817D+00
  0.899700D+01  0.434401D+00
  0.331900D+01  0.346129D+00
  0.905900D+00  0.393780D-01
  0.364300D+00 -0.898300D-02
  0.128500D+00  0.238500D-02
   s    10 1.00
  0.823600D+04 -0.113000D-03
  0.123500D+04 -0.878000D-03
  0.280800D+03 -0.454000D-02
  0.792700D+02 -0.181330D-01
  0.255900D+02 -0.557600D-01
  0.899700D+01 -0.126895D+00
  0.331900D+01 -0.170352D+00
  0.905900D+00  0.140382D+00
  0.364300D+00  0.598684D+00
  0.128500D+00  0.395389D+00
   s     1 1.00
  0.905900D+00  0.100000D+01
   s     1 1.00
  0.364300D+00  0.100000D+01
   p     5 1.00
  0.187100D+02  0.140310D-01
  0.413300D+01  0.868660D-01
  0.120000D+01  0.290216D+00
  0.382700D+00  0.501008D+00
  0.120900D+00  0.343406D+00
   p     1 1.00
  0.382700D+00  0.100000D+01
   p     1 1.00
  0.120900D+00  0.100000D+01
   d     1 1.00
  0.109700D+01  0.100000D+01
   d     1 1.00
  0.318000D+00  0.100000D+01
   f     1 1.00
  0.761000D+00  0.100000D+01
  
  8  0
   s     4 1.00
  0.130100D+02  0.196850D-01
  0.196200D+01  0.137977D+00
  0.444600D+00  0.478148D+00
  0.122000D+00  0.501240D+00
   s     1 1.00
  0.122000D+00  0.100000D+01
   p     1 1.00
  0.727000D+00  0.100000D+01
  
  9  0
   s     4 1.00
  0.130100D+02  0.196850D-01
  0.196200D+01  0.137977D+00
  0.444600D+00  0.478148D+00
  0.122000D+00  0.501240D+00
   s     1 1.00
  0.122000D+00  0.100000D+01
   p     1 1.00
  0.727000D+00  0.100000D+01
  
 10  0
   s     4 1.00
  0.130100D+02  0.196850D-01
  0.196200D+01  0.137977D+00
  0.444600D+00  0.478148D+00
  0.122000D+00  0.501240D+00
   s     1 1.00
  0.122000D+00  0.100000D+01
   p     1 1.00
  0.727000D+00  0.100000D+01
  
 11  0
   s     4 1.00
  0.130100D+02  0.196850D-01
  0.196200D+01  0.137977D+00
  0.444600D+00  0.478148D+00
  0.122000D+00  0.501240D+00
   s     1 1.00
  0.122000D+00  0.100000D+01
   p     1 1.00
  0.727000D+00  0.100000D+01
  
 12  0
   s     4 1.00
  0.130100D+02  0.196850D-01
  0.196200D+01  0.137977D+00
  0.444600D+00  0.478148D+00
  0.122000D+00  0.501240D+00
   s     1 1.00
  0.122000D+00  0.100000D+01
   p     1 1.00
  0.727000D+00  0.100000D+01
  
 13  0
   s     4 1.00
  0.130100D+02  0.196850D-01
  0.196200D+01  0.137977D+00
  0.444600D+00  0.478148D+00
  0.122000D+00  0.501240D+00
   s     1 1.00
  0.122000D+00  0.100000D+01
   p     1 1.00
  0.727000D+00  0.100000D+01
  
 14  0
   s     4 1.00
  0.130100D+02  0.196850D-01
  0.196200D+01  0.137977D+00
  0.444600D+00  0.478148D+00
  0.122000D+00  0.501240D+00
   s     1 1.00
  0.122000D+00  0.100000D+01
   p     1 1.00
  0.727000D+00  0.100000D+01
  
[MO]
 Sym= __1_A__
 Ene=   1.00000000000000     
 Spin= Alpha
 Occup=    1.00000000000000     
                     1  3.774045344494160E-005
                     2  0.998395416337409     
                     3  2.726590931194281E-003
                     4  1.755137603581391E-003
                     5  4.225546042341812E-003
                     6  3.154626765633588E-003
                     7  6.308871569913626E-003
                     8 -3.142055635406758E-012
                     9 -5.106574948877291E-004
                    10 -5.268619829971419E-004
                    11 -3.666014191539472E-013
                    12 -1.845152430445410E-003
                    13 -1.305427026395415E-003
                    14 -7.686073981496988E-012
                    15 -1.430507633957450E-004
                    16  1.244546407761979E-012
                    17  6.310147541672156E-013
                    18 -1.912429709064639E-004
                    19 -5.328900311256833E-005
                    20  2.181813990125729E-004
                    21 -7.590772692936926E-012
                    22  2.097661373799189E-012
                    23 -3.997245351618348E-004
                    24  3.622815089977576E-004
                    25 -3.698930298600822E-013
                    26 -2.131961176470153E-005
                    27 -7.560300701779558E-005
                    28  3.679112536916008E-013
                    29  1.442002097699434E-012
                    30  2.533276192146372E-005
                    31 -1.407115228583720E-004
                    32 -3.501733564393216E-004
                    33  1.809834826991219E-003
                    34  3.201594568765971E-004
                    35 -5.409823004173733E-004
                    36 -2.632598984076194E-004
                    37 -5.175785247975597E-003
                    38 -5.614945000788682E-012
                    39  3.314152028715371E-004
                    40  4.836900492763168E-004
                    41 -3.652281826320158E-013
                    42 -1.484982371630079E-003
                    43  5.212425441195830E-003
                    44 -4.868358275236392E-013
                    45 -8.803336304006443E-006
                    46 -1.262125164598801E-013
                    47  1.360008902013852E-012
                    48 -2.184072768149532E-004
                    49 -1.759598522502641E-005
                    50 -2.639239658524202E-004
                    51  3.926651994063942E-012
                    52 -5.821454133964264E-012
                    53 -2.963311613677198E-005
                    54  5.482926541484741E-004
                    55  1.308183278435330E-012
                    56 -1.103296016538169E-005
                    57 -5.358148576892454E-005
                    58 -3.010743643848800E-012
                    59 -1.571029040944041E-012
                    60  5.509439554468899E-005
                    61 -1.425792887140130E-004
                    62 -4.188795197029854E-004
                    63 -1.982619913614482E-003
                    64 -5.123357617618123E-005
                    65  1.599830379608616E-003
                    66 -6.145939889924862E-004
                    67  4.745374441374146E-004
                    68 -3.816644906998600E-012
                    69  2.855149306918825E-004
                    70  5.872577654095711E-004
                    71  9.687988155764624E-013
                    72 -1.666113594318024E-003
                    73  7.707399895958301E-004
                    74 -4.727109262155834E-013
                    75 -2.882454931872615E-005
                    76 -3.924665147851772E-012
                    77  1.410302357507759E-012
                    78 -5.793877443533154E-005
                    79 -2.076068598845331E-005
                    80 -1.041279876424291E-004
                    81  4.161579957442184E-012
                    82 -3.270244584955637E-012
                    83 -1.602613832263804E-006
                    84 -1.433866831427235E-007
                    85 -1.035458039249422E-012
                    86  1.680737450544859E-005
                    87 -4.308442865221292E-005
                    88 -1.831769926044551E-012
                    89 -3.210145462916867E-012
                    90 -1.209746309465722E-005
                    91 -1.386772463948756E-004
                    92 -2.214983958772325E-004
                    93 -1.444635491908439E-003
                    94  1.579018499481630E-004
                    95  1.028466712881366E-004
                    96  6.124797170525887E-004
                    97  7.312190308131616E-004
                    98 -1.928044683479626E-011
                    99  2.671894151598338E-004
                   100  3.471646437739990E-004
                   101  1.015678851671883E-011
                   102  6.627451269538377E-004
                   103 -1.219258753202652E-003
                   104  1.145551236387863E-012
                   105 -6.407148755897284E-008
                   106  2.306472811027645E-012
                   107  5.663905211262272E-013
                   108 -7.646358909322800E-005
                   109 -1.738152879555075E-005
                   110  4.846768974725808E-005
                   111 -5.186255389307082E-013
                   112  9.624436086457927E-013
                   113 -1.294867161050972E-004
                   114 -1.355544313548623E-005
                   115  1.661105955991569E-012
                   116 -2.698326638134295E-005
                   117 -2.504430052121975E-005
                   118 -3.667488897365026E-013
                   119  1.143834016817742E-012
                   120 -3.233524363561663E-005
                   121 -4.284354922934506E-005
                   122 -2.364630910704768E-004
                   123 -4.805777508353742E-004
                   124  1.309529345763301E-004
                   125  4.088941026023916E-004
                   126 -1.824983826523252E-005
                   127 -5.523183820704176E-004
                   128 -4.230513047175127E-012
                   129  1.765093268920777E-004
                   130  4.608461271969529E-004
                   131  1.247870036911609E-012
                   132  4.705508530844323E-004
                   133  1.667843095427253E-003
                   134  1.075032825173157E-011
                   135  7.012937496944022E-006
                   136  1.793120100007778E-012
                   137  2.034222138187214E-013
                   138  2.165011184302410E-005
                   139  2.738574636884758E-006
                   140  1.420313239981121E-004
                   141 -2.632272139593755E-012
                   142  7.776659919044991E-013
                   143  2.885849703085466E-004
                   144  1.470938797117077E-004
                   145  5.879941522350039E-013
                   146 -7.631693937183371E-006
                   147 -5.041582731268715E-005
                   148 -2.606555092851682E-013
                   149 -1.609064706589796E-012
                   150 -6.035686944084828E-006
                   151 -3.689060697524810E-005
                   152 -1.730890929774977E-004
                   153 -2.492099963506593E-004
                   154  6.479684275618888E-005
                   155  2.740778925493105E-004
                   156 -9.277210732264212E-006
                   157 -5.275747351838697E-004
                   158  1.805062708757871E-012
                   159  1.886572296307392E-005
                   160  6.619845601451306E-005
                   161 -2.131127105227729E-012
                   162  5.207050299448334E-004
                   163 -1.393386555299775E-004
                   164  1.158083166666269E-011
                   165  7.102808905626148E-007
                   166  3.022875365144201E-012
                   167  1.717617342295603E-012
                   168 -4.153309174973694E-006
                   169 -7.301378148580600E-007
                   170  8.502359469904144E-005
                   171 -3.365934166649505E-012
                   172  1.597940870388781E-012
                   173  4.639654026792114E-005
                   174 -7.397730820491481E-006
                   175 -1.802606299456118E-013
                   176 -1.048825332360814E-007
                   177 -1.394628457086516E-005
                   178  1.094582233341004E-012
                   179 -4.335408869188873E-013
                   180 -6.362073668952291E-006
                   181 -2.076186206282231E-005
                   182 -1.685919869565381E-004
                   183 -5.409735107050257E-004
                   184  3.588010512288510E-005
                   185  2.697373506782749E-004
                   186 -3.852263847570108E-005
                   187 -5.458325723003044E-006
                   188 -8.214551520154208E-012
                   189  1.899071287471019E-004
                   190  8.364528717194284E-005
                   191  4.551239385948357E-012
                   192  1.001454955787857E-003
                   193 -2.075609088668470E-004
                   194 -1.337193461932290E-011
                   195  3.254919551237734E-006
                   196 -3.923219167825272E-013
                   197  3.425212763786801E-012
                   198 -1.108753342876688E-005
                   199  5.593681018066693E-008
                   200 -2.457604696911845E-005
                   201 -1.576858662636755E-012
                   202 -7.427585371113277E-013
                   203 -7.960991200104180E-005
                   204 -1.533185959072051E-004
                   205  1.773802297166139E-013
                   206 -8.498352495592696E-006
                   207 -4.458959087477753E-006
                   208 -2.810168693800542E-012
                   209  1.063282630575806E-012
                   210  5.414373756558696E-006
                   211 -8.366027613489180E-006
                   212  1.082952456450345E-004
                   213 -1.290210334549800E-004
                   214  2.242747347071944E-004
                   215  1.832224125076813E-004
                   216 -3.115190458148198E-012
                   217  1.762018241194632E-003
                   218 -1.537884622678447E-003
                   219 -3.830400302004708E-004
                   220  2.590545660055976E-004
                   221  7.747570762115718E-012
                   222 -3.870826445952938E-004
                   223 -6.544521976655550E-004
                   224 -1.185855350380561E-005
                   225 -6.190170633057683E-005
                   226  7.812502424054196E-013
                   227 -3.216872555407749E-004
                   228 -4.569919048278688E-004
                   229 -6.681268314275442E-006
                   230 -3.194088099984026E-005
                   231  1.056931091442881E-013
                   232 -1.111529805722900E-004
                   233 -3.474734996383056E-004
                   234 -3.750832328627005E-006
                   235 -2.186090438283305E-006
                   236 -1.443810934397693E-012
                   237 -1.606669656127750E-004
                   238 -3.401761602089374E-004
                   239  5.178818199176503E-006
                   240 -3.362509233390821E-006
                   241 -6.972080338439347E-013
                   242  2.067947430922722E-005
                   243  3.560207177178385E-005
                   244  1.527419278560188E-006
                   245  2.810371411579115E-005
                   246 -4.373874590245716E-013
 Sym= __2_A__
 Ene=   2.00000000000000     
 Spin= Alpha
 Occup=    1.00000000000000     
                     1 -5.441197093191912E-005
                     2 -2.577868641543176E-004
                     3  2.800064993414471E-003
                     4  1.244872687926587E-004
                     5  1.327923952507725E-003
                     6 -2.390616115776423E-004
                     7  3.246423567116919E-003
                     8  1.144111050938452E-011
                     9  6.760044960100734E-007
                    10 -1.014341025013600E-004
                    11 -4.940162972467991E-012
                    12  1.281156904015714E-005
                    13 -4.647782375870376E-004
                    14  7.704389875547834E-013
                    15  4.032833781062710E-005
                    16  1.377515074306228E-013
                    17  1.526584909454806E-013
                    18 -5.644430692030980E-005
                    19  1.521255522968723E-005
                    20 -1.159987739779931E-004
                    21 -9.396684816633444E-013
                    22  8.027450223773800E-013
                    23  2.498468040535496E-004
                    24 -1.090407306099242E-004
                    25  2.006379284721069E-012
                    26 -9.614862967637096E-006
                    27  1.140426187198496E-004
                    28 -1.223381476337483E-012
                    29 -1.263200970640385E-013
                    30 -5.277271374432938E-005
                    31  1.404391142907185E-004
                    32   1.00090131641083     
                    33  9.308967058220484E-003
                    34  2.692089232811379E-003
                    35 -7.639936064202019E-003
                    36 -5.466444180932645E-005
                    37 -3.757062315255975E-003
                    38  7.483225555781709E-012
                    39 -1.953727809761271E-004
                    40  3.746478219689683E-004
                    41 -5.689227510793665E-013
                    42 -1.124859006194868E-004
                    43  4.230885767574543E-003
                    44 -2.814503761015265E-012
                    45 -5.908278354192990E-004
                    46  3.822535256363732E-012
                    47 -7.941037985544196E-013
                    48 -2.995739286161108E-004
                    49  4.690674901680926E-005
                    50  4.767338828464145E-004
                    51 -7.136103813359912E-012
                    52  8.958722513756436E-013
                    53 -2.527436405582012E-004
                    54 -3.650136341085814E-004
                    55 -1.088938182188562E-012
                    56  1.352916158110099E-005
                    57  1.055531018149568E-004
                    58  1.037982757662005E-012
                    59  1.347244677526820E-012
                    60 -3.527021416750347E-005
                    61  4.485052229231282E-004
                    62  9.832415283804113E-003
                    63 -2.182658126622473E-003
                    64 -1.530645073893844E-004
                    65  2.463807790127349E-003
                    66 -9.649644785301603E-006
                    67 -5.954463083815608E-006
                    68  4.703891606776583E-012
                    69  5.430047543174834E-004
                    70  2.408847893725081E-004
                    71 -6.939755880342574E-012
                    72 -1.973677642364635E-003
                    73  5.436900149622645E-004
                    74 -4.053953163761158E-012
                    75  4.890320299563072E-005
                    76  1.964586648380021E-012
                    77  1.228512092293018E-012
                    78 -8.012426328056700E-006
                    79  2.537496524749475E-006
                    80 -3.880808407942701E-004
                    81 -4.730019258548923E-012
                    82 -5.981383675403847E-012
                    83 -4.715111098636598E-004
                    84 -2.845371959362527E-005
                    85  6.015789488025651E-013
                    86  2.385433508173033E-005
                    87 -6.105426361690629E-005
                    88  3.992639902466520E-012
                    89  1.608379974235133E-012
                    90 -1.227626572640075E-006
                    91  1.579822258068558E-004
                    92  1.134243744099095E-002
                    93 -2.231276680451654E-003
                    94 -2.244233692677856E-004
                    95  2.941853138026712E-003
                    96  8.998813877626045E-005
                    97  3.770097822082848E-006
                    98  3.697823499452848E-012
                    99 -9.295216244883611E-004
                   100  6.791807993486450E-005
                   101 -2.227469403381068E-012
                   102  1.647770459268160E-003
                   103  2.616136565371889E-004
                   104  3.929151288616521E-012
                   105  3.658924217093851E-005
                   106 -1.286641497303209E-012
                   107 -2.823518290867447E-012
                   108 -3.339152867409774E-006
                   109  1.163273213520694E-005
                   110 -3.988867739969553E-004
                   111 -2.071707704800406E-012
                   112 -3.447947181020511E-013
                   113 -2.326847045865520E-004
                   114  9.111955850295214E-005
                   115 -9.101014999657683E-013
                   116 -2.273785650930387E-005
                   117 -6.981463894121487E-005
                   118  3.460569289729366E-012
                   119  1.238702309845468E-012
                   120  3.749683683357354E-005
                   121  1.372558163820615E-004
                   122 -2.454054124689539E-004
                   123 -7.703911362781057E-004
                   124  2.281181170006865E-004
                   125  7.436389594551865E-005
                   126  3.124188290935736E-005
                   127 -3.649449523810565E-004
                   128  8.123299086146389E-012
                   129 -1.508059393227895E-004
                   130  5.273567962266046E-004
                   131 -2.098487153132380E-013
                   132  3.048868213204202E-004
                   133  9.772252128791277E-004
                   134  2.239203788872479E-012
                   135  1.247548471199954E-005
                   136 -1.324846523250167E-012
                   137 -5.651515197913749E-013
                   138  3.519441600314460E-006
                   139  1.960631358553189E-005
                   140  1.337489340938146E-004
                   141  4.574384316396689E-012
                   142 -4.558301809276491E-012
                   143  2.179106080800772E-004
                   144  1.617450367631472E-005
                   145 -2.569104269390861E-013
                   146  1.417087011194942E-005
                   147 -4.434882536318015E-005
                   148 -5.034660126410264E-012
                   149 -4.629889949319748E-013
                   150 -4.461807435824472E-005
                   151  3.396982004945973E-005
                   152 -1.792174070864366E-004
                   153 -7.488549295875180E-004
                   154  2.251394703767905E-004
                   155  1.450746400989779E-004
                   156 -4.231019963492659E-005
                   157 -3.654062679598087E-004
                   158  8.734939564440536E-012
                   159  1.808579550107707E-004
                   160  4.415602384699106E-004