[Molden Format]
[Atoms] AU
  N     1    7    -0.0524017100   -4.4524212400    0.0000000000        
  C     2    6     0.0571032200   -1.9578645300    0.0000000000        
  C     3    6    -2.2257831100   -0.4935507600    0.0000000000        
  C     4    6     2.3071241400   -0.4422126900    0.0000000000        
  C     5    6    -2.2059870800    2.2006065600    0.0000000000        
  C     6    6     2.2332450100    2.2625334200    0.0000000000        
  C     7    6     0.0040547000    3.5988115600    0.0000000000        
  H     8    1    -2.3967884200   -5.6768230200    0.0000000000        
  H     9    1     1.6328397800   -5.4101784700    0.0000000000        
  H    10    1    -3.9947448700   -1.4678928600    0.0000000000        
  H    11    1     4.1148676700   -1.3530833100    0.0000000000        
  H    12    1    -4.0029365500    3.1442407900    0.0000000000        
  H    13    1     4.0085840600    3.2454412900    0.0000000000        
  H    14    1    -0.0230569200    5.6209451700    0.0000000000        
[5D]
[7F]
[GTO]
  1  0
   s    12 1.00
  0.114200D+05  0.172695D-04
  0.171200D+04  0.134411D-03
  0.389300D+03  0.694561D-03
  0.110000D+03  0.278531D-02
  0.355700D+02  0.863457D-02
  0.125400D+02  0.199805D-01
  0.464400D+01  0.262908D-01
  0.129300D+01 -0.243845D-01
  0.511800D+00 -0.924934D-01
  0.178700D+00 -0.339683D+00
  0.246240D-01  0.345111D+00
  0.112530D-01  0.752750D+00
   s    10 1.00
  0.114200D+05  0.523000D-03
  0.171200D+04  0.404500D-02
  0.389300D+03  0.207750D-01
  0.110000D+03  0.807269D-01
  0.355700D+02  0.233074D+00
  0.125400D+02  0.433501D+00
  0.464400D+01  0.347472D+00
  0.129300D+01  0.412620D-01
  0.511800D+00 -0.850799D-02
  0.178700D+00  0.238400D-02
   s    10 1.00
  0.114200D+05 -0.115000D-03
  0.171200D+04 -0.895000D-03
  0.389300D+03 -0.462400D-02
  0.110000D+03 -0.185280D-01
  0.355700D+02 -0.573390D-01
  0.125400D+02 -0.132076D+00
  0.464400D+01 -0.172510D+00
  0.129300D+01  0.151814D+00
  0.511800D+00  0.599944D+00
  0.178700D+00  0.387462D+00
   s     1 1.00
  0.129300D+01  0.100000D+01
   s     1 1.00
  0.178700D+00  0.100000D+01
   p     5 1.00
  0.266300D+02  0.146700D-01
  0.594800D+01  0.917640D-01
  0.174200D+01  0.298683D+00
  0.555000D+00  0.498487D+00
  0.172500D+00  0.337023D+00
   p     1 1.00
  0.174200D+01  0.100000D+01
   p     1 1.00
  0.555000D+00  0.100000D+01
   d     1 1.00
  0.165400D+01  0.100000D+01
   d     1 1.00
  0.469000D+00  0.100000D+01
   f     1 1.00
  0.109300D+01  0.100000D+01
  
  2  0
   s    10 1.00
  0.823600D+04  0.531000D-03
  0.123500D+04  0.410800D-02
  0.280800D+03  0.210870D-01
  0.792700D+02  0.818530D-01
  0.255900D+02  0.234817D+00
  0.899700D+01  0.434401D+00
  0.331900D+01  0.346129D+00
  0.905900D+00  0.393780D-01
  0.364300D+00 -0.898300D-02
  0.128500D+00  0.238500D-02
   s    10 1.00
  0.823600D+04 -0.113000D-03
  0.123500D+04 -0.878000D-03
  0.280800D+03 -0.454000D-02
  0.792700D+02 -0.181330D-01
  0.255900D+02 -0.557600D-01
  0.899700D+01 -0.126895D+00
  0.331900D+01 -0.170352D+00
  0.905900D+00  0.140382D+00
  0.364300D+00  0.598684D+00
  0.128500D+00  0.395389D+00
   s     1 1.00
  0.905900D+00  0.100000D+01
   s     1 1.00
  0.364300D+00  0.100000D+01
   p     5 1.00
  0.187100D+02  0.140310D-01
  0.413300D+01  0.868660D-01
  0.120000D+01  0.290216D+00
  0.382700D+00  0.501008D+00
  0.120900D+00  0.343406D+00
   p     1 1.00
  0.382700D+00  0.100000D+01
   p     1 1.00
  0.120900D+00  0.100000D+01
   d     1 1.00
  0.109700D+01  0.100000D+01
   d     1 1.00
  0.318000D+00  0.100000D+01
   f     1 1.00
  0.761000D+00  0.100000D+01
  
  3  0
   s    10 1.00
  0.823600D+04  0.531000D-03
  0.123500D+04  0.410800D-02
  0.280800D+03  0.210870D-01
  0.792700D+02  0.818530D-01
  0.255900D+02  0.234817D+00
  0.899700D+01  0.434401D+00
  0.331900D+01  0.346129D+00
  0.905900D+00  0.393780D-01
  0.364300D+00 -0.898300D-02
  0.128500D+00  0.238500D-02
   s    10 1.00
  0.823600D+04 -0.113000D-03
  0.123500D+04 -0.878000D-03
  0.280800D+03 -0.454000D-02
  0.792700D+02 -0.181330D-01
  0.255900D+02 -0.557600D-01
  0.899700D+01 -0.126895D+00
  0.331900D+01 -0.170352D+00
  0.905900D+00  0.140382D+00
  0.364300D+00  0.598684D+00
  0.128500D+00  0.395389D+00
   s     1 1.00
  0.905900D+00  0.100000D+01
   s     1 1.00
  0.364300D+00  0.100000D+01
   p     5 1.00
  0.187100D+02  0.140310D-01
  0.413300D+01  0.868660D-01
  0.120000D+01  0.290216D+00
  0.382700D+00  0.501008D+00
  0.120900D+00  0.343406D+00
   p     1 1.00
  0.382700D+00  0.100000D+01
   p     1 1.00
  0.120900D+00  0.100000D+01
   d     1 1.00
  0.109700D+01  0.100000D+01
   d     1 1.00
  0.318000D+00  0.100000D+01
   f     1 1.00
  0.761000D+00  0.100000D+01
  
  4  0
   s    10 1.00
  0.823600D+04  0.531000D-03
  0.123500D+04  0.410800D-02
  0.280800D+03  0.210870D-01
  0.792700D+02  0.818530D-01
  0.255900D+02  0.234817D+00
  0.899700D+01  0.434401D+00
  0.331900D+01  0.346129D+00
  0.905900D+00  0.393780D-01
  0.364300D+00 -0.898300D-02
  0.128500D+00  0.238500D-02
   s    10 1.00
  0.823600D+04 -0.113000D-03
  0.123500D+04 -0.878000D-03
  0.280800D+03 -0.454000D-02
  0.792700D+02 -0.181330D-01
  0.255900D+02 -0.557600D-01
  0.899700D+01 -0.126895D+00
  0.331900D+01 -0.170352D+00
  0.905900D+00  0.140382D+00
  0.364300D+00  0.598684D+00
  0.128500D+00  0.395389D+00
   s     1 1.00
  0.905900D+00  0.100000D+01
   s     1 1.00
  0.364300D+00  0.100000D+01
   p     5 1.00
  0.187100D+02  0.140310D-01
  0.413300D+01  0.868660D-01
  0.120000D+01  0.290216D+00
  0.382700D+00  0.501008D+00
  0.120900D+00  0.343406D+00
   p     1 1.00
  0.382700D+00  0.100000D+01
   p     1 1.00
  0.120900D+00  0.100000D+01
   d     1 1.00
  0.109700D+01  0.100000D+01
   d     1 1.00
  0.318000D+00  0.100000D+01
   f     1 1.00
  0.761000D+00  0.100000D+01
  
  5  0
   s    10 1.00
  0.823600D+04  0.531000D-03
  0.123500D+04  0.410800D-02
  0.280800D+03  0.210870D-01
  0.792700D+02  0.818530D-01
  0.255900D+02  0.234817D+00
  0.899700D+01  0.434401D+00
  0.331900D+01  0.346129D+00
  0.905900D+00  0.393780D-01
  0.364300D+00 -0.898300D-02
  0.128500D+00  0.238500D-02
   s    10 1.00
  0.823600D+04 -0.113000D-03
  0.123500D+04 -0.878000D-03
  0.280800D+03 -0.454000D-02
  0.792700D+02 -0.181330D-01
  0.255900D+02 -0.557600D-01
  0.899700D+01 -0.126895D+00
  0.331900D+01 -0.170352D+00
  0.905900D+00  0.140382D+00
  0.364300D+00  0.598684D+00
  0.128500D+00  0.395389D+00
   s     1 1.00
  0.905900D+00  0.100000D+01
   s     1 1.00
  0.364300D+00  0.100000D+01
   p     5 1.00
  0.187100D+02  0.140310D-01
  0.413300D+01  0.868660D-01
  0.120000D+01  0.290216D+00
  0.382700D+00  0.501008D+00
  0.120900D+00  0.343406D+00
   p     1 1.00
  0.382700D+00  0.100000D+01
   p     1 1.00
  0.120900D+00  0.100000D+01
   d     1 1.00
  0.109700D+01  0.100000D+01
   d     1 1.00
  0.318000D+00  0.100000D+01
   f     1 1.00
  0.761000D+00  0.100000D+01
  
  6  0
   s    10 1.00
  0.823600D+04  0.531000D-03
  0.123500D+04  0.410800D-02
  0.280800D+03  0.210870D-01
  0.792700D+02  0.818530D-01
  0.255900D+02  0.234817D+00
  0.899700D+01  0.434401D+00
  0.331900D+01  0.346129D+00
  0.905900D+00  0.393780D-01
  0.364300D+00 -0.898300D-02
  0.128500D+00  0.238500D-02
   s    10 1.00
  0.823600D+04 -0.113000D-03
  0.123500D+04 -0.878000D-03
  0.280800D+03 -0.454000D-02
  0.792700D+02 -0.181330D-01
  0.255900D+02 -0.557600D-01
  0.899700D+01 -0.126895D+00
  0.331900D+01 -0.170352D+00
  0.905900D+00  0.140382D+00
  0.364300D+00  0.598684D+00
  0.128500D+00  0.395389D+00
   s     1 1.00
  0.905900D+00  0.100000D+01
   s     1 1.00
  0.364300D+00  0.100000D+01
   p     5 1.00
  0.187100D+02  0.140310D-01
  0.413300D+01  0.868660D-01
  0.120000D+01  0.290216D+00
  0.382700D+00  0.501008D+00
  0.120900D+00  0.343406D+00
   p     1 1.00
  0.382700D+00  0.100000D+01
   p     1 1.00
  0.120900D+00  0.100000D+01
   d     1 1.00
  0.109700D+01  0.100000D+01
   d     1 1.00
  0.318000D+00  0.100000D+01
   f     1 1.00
  0.761000D+00  0.100000D+01
  
  7  0
   s    10 1.00
  0.823600D+04  0.531000D-03
  0.123500D+04  0.410800D-02
  0.280800D+03  0.210870D-01
  0.792700D+02  0.818530D-01
  0.255900D+02  0.234817D+00
  0.899700D+01  0.434401D+00
  0.331900D+01  0.346129D+00
  0.905900D+00  0.393780D-01
  0.364300D+00 -0.898300D-02
  0.128500D+00  0.238500D-02
   s    10 1.00
  0.823600D+04 -0.113000D-03
  0.123500D+04 -0.878000D-03
  0.280800D+03 -0.454000D-02
  0.792700D+02 -0.181330D-01
  0.255900D+02 -0.557600D-01
  0.899700D+01 -0.126895D+00
  0.331900D+01 -0.170352D+00
  0.905900D+00  0.140382D+00
  0.364300D+00  0.598684D+00
  0.128500D+00  0.395389D+00
   s     1 1.00
  0.905900D+00  0.100000D+01
   s     1 1.00
  0.364300D+00  0.100000D+01
   p     5 1.00
  0.187100D+02  0.140310D-01
  0.413300D+01  0.868660D-01
  0.120000D+01  0.290216D+00
  0.382700D+00  0.501008D+00
  0.120900D+00  0.343406D+00
   p     1 1.00
  0.382700D+00  0.100000D+01
   p     1 1.00
  0.120900D+00  0.100000D+01
   d     1 1.00
  0.109700D+01  0.100000D+01
   d     1 1.00
  0.318000D+00  0.100000D+01
   f     1 1.00
  0.761000D+00  0.100000D+01
  
  8  0
   s     4 1.00
  0.130100D+02  0.196850D-01
  0.196200D+01  0.137977D+00
  0.444600D+00  0.478148D+00
  0.122000D+00  0.501240D+00
   s     1 1.00
  0.122000D+00  0.100000D+01
   p     1 1.00
  0.727000D+00  0.100000D+01
  
  9  0
   s     4 1.00
  0.130100D+02  0.196850D-01
  0.196200D+01  0.137977D+00
  0.444600D+00  0.478148D+00
  0.122000D+00  0.501240D+00
   s     1 1.00
  0.122000D+00  0.100000D+01
   p     1 1.00
  0.727000D+00  0.100000D+01
  
 10  0
   s     4 1.00
  0.130100D+02  0.196850D-01
  0.196200D+01  0.137977D+00
  0.444600D+00  0.478148D+00
  0.122000D+00  0.501240D+00
   s     1 1.00
  0.122000D+00  0.100000D+01
   p     1 1.00
  0.727000D+00  0.100000D+01
  
 11  0
   s     4 1.00
  0.130100D+02  0.196850D-01
  0.196200D+01  0.137977D+00
  0.444600D+00  0.478148D+00
  0.122000D+00  0.501240D+00
   s     1 1.00
  0.122000D+00  0.100000D+01
   p     1 1.00
  0.727000D+00  0.100000D+01
  
 12  0
   s     4 1.00
  0.130100D+02  0.196850D-01
  0.196200D+01  0.137977D+00
  0.444600D+00  0.478148D+00
  0.122000D+00  0.501240D+00
   s     1 1.00
  0.122000D+00  0.100000D+01
   p     1 1.00
  0.727000D+00  0.100000D+01
  
 13  0
   s     4 1.00
  0.130100D+02  0.196850D-01
  0.196200D+01  0.137977D+00
  0.444600D+00  0.478148D+00
  0.122000D+00  0.501240D+00
   s     1 1.00
  0.122000D+00  0.100000D+01
   p     1 1.00
  0.727000D+00  0.100000D+01
  
 14  0
   s     4 1.00
  0.130100D+02  0.196850D-01
  0.196200D+01  0.137977D+00
  0.444600D+00  0.478148D+00
  0.122000D+00  0.501240D+00
   s     1 1.00
  0.122000D+00  0.100000D+01
   p     1 1.00
  0.727000D+00  0.100000D+01
  
[MO]
 Sym= __1_A__
 Ene=  0.000000000000000E+000
 Spin= Alpha
 Occup=    2.00000000000000     
                     1  3.774045343911463E-005
                     2  0.998395416337447     
                     3  2.726590931010296E-003
                     4  1.755137603587416E-003
                     5  4.225546042395099E-003
                     6  3.154626764960742E-003
                     7  6.308871569626478E-003
                     8 -3.142055636723214E-012
                     9 -5.106574948848565E-004
                    10 -5.268619830205029E-004
                    11 -3.666014188933789E-013
                    12 -1.845152430427500E-003
                    13 -1.305427026433069E-003
                    14 -7.686073981206205E-012
                    15 -1.430507633927160E-004
                    16  1.244546407672328E-012
                    17  6.310147541670031E-013
                    18 -1.912429709080668E-004
                    19 -5.328900319466571E-005
                    20  2.181813990265415E-004
                    21 -7.590772692637488E-012
                    22  2.097661374674953E-012
                    23 -3.997245351235500E-004
                    24  3.622815086944517E-004
                    25 -3.698930298095431E-013
                    26 -2.131961175153556E-005
                    27 -7.560300700792630E-005
                    28  3.679112537114108E-013
                    29  1.442002097581820E-012
                    30  2.533276187131634E-005
                    31 -1.407115228679117E-004
                    32 -3.501733581871006E-004
                    33  1.809834823343941E-003
                    34  3.201594569153564E-004
                    35 -5.409823003071976E-004
                    36 -2.632599088015092E-004
                    37 -5.175785249125553E-003
                    38 -5.614945000233153E-012
                    39  3.314152033758367E-004
                    40  4.836900492576225E-004
                    41 -3.652281818437450E-013
                    42 -1.484982368902814E-003
                    43  5.212425441310686E-003
                    44 -4.868358275266865E-013
                    45 -8.803336247337427E-006
                    46 -1.262125163639759E-013
                    47  1.360008901848059E-012
                    48 -2.184072768275526E-004
                    49 -1.759598552410120E-005
                    50 -2.639239657379710E-004
                    51  3.926651994423347E-012
                    52 -5.821454132417745E-012
                    53 -2.963311617903970E-005
                    54  5.482926535576392E-004
                    55  1.308183278494542E-012
                    56 -1.103296007312215E-005
                    57 -5.358148575426500E-005
                    58 -3.010743643871574E-012
                    59 -1.571029040902921E-012
                    60  5.509439552103156E-005
                    61 -1.425792887771563E-004
                    62 -4.188795197312418E-004
                    63 -1.982619910025126E-003
                    64 -5.123357624188237E-005
                    65  1.599830379252418E-003
                    66 -6.145939855145418E-004
                    67  4.745374403551095E-004
                    68 -3.816644909483394E-012
                    69  2.855149304465098E-004
                    70  5.872577655566417E-004
                    71  9.687988165270571E-013
                    72 -1.666113594117411E-003
                    73  7.707399901463425E-004
                    74 -4.727109259712225E-013
                    75 -2.882454936301157E-005
                    76 -3.924665147828666E-012
                    77  1.410302357529844E-012
                    78 -5.793877441186720E-005
                    79 -2.076068613883626E-005
                    80 -1.041279876883958E-004
                    81  4.161579956674406E-012
                    82 -3.270244584536667E-012
                    83 -1.602613906888260E-006
                    84 -1.433869074579500E-007
                    85 -1.035458039282102E-012
                    86  1.680737446965518E-005
                    87 -4.308442860969716E-005
                    88 -1.831769926215167E-012
                    89 -3.210145462741909E-012
                    90 -1.209746304618777E-005
                    91 -1.386772464350699E-004
                    92 -2.214983958356792E-004
                    93 -1.444635497044358E-003
                    94  1.579018500094174E-004
                    95  1.028466716384689E-004
                    96  6.124797239253579E-004
                    97  7.312190355513719E-004
                    98 -1.928044683465432E-011
                    99  2.671894146340125E-004
                   100  3.471646433982213E-004
                   101  1.015678851730869E-011
                   102  6.627451258395875E-004
                   103 -1.219258754202767E-003
                   104  1.145551236310767E-012
                   105 -6.407140537164715E-008
                   106  2.306472810946103E-012
                   107  5.663905210572294E-013
                   108 -7.646358914122694E-005
                   109 -1.738152905950044E-005
                   110  4.846768990861402E-005
                   111 -5.186255377446657E-013
                   112  9.624436096793496E-013
                   113 -1.294867160231317E-004
                   114 -1.355544335518288E-005
                   115  1.661105956126205E-012
                   116 -2.698326643950423E-005
                   117 -2.504430056598010E-005
                   118 -3.667488899463958E-013
                   119  1.143834016598348E-012
                   120 -3.233524358761401E-005
                   121 -4.284354914149723E-005
                   122 -2.364630910193633E-004
                   123 -4.805777523685912E-004
                   124  1.309529345962283E-004
                   125  4.088941025010059E-004
                   126 -1.824983857909341E-005
                   127 -5.523183810542890E-004
                   128 -4.230513048181161E-012
                   129  1.765093268967606E-004
                   130  4.608461271396265E-004
                   131  1.247870037660551E-012
                   132  4.705508528497946E-004
                   133  1.667843095048735E-003
                   134  1.075032825106330E-011
                   135  7.012937524051880E-006
                   136  1.793120099883493E-012
                   137  2.034222139083046E-013
                   138  2.165011187786468E-005
                   139  2.738574587099896E-006
                   140  1.420313240303255E-004
                   141 -2.632272138276715E-012
                   142  7.776659926327170E-013
                   143  2.885849703165168E-004
                   144  1.470938795922762E-004
                   145  5.879941522175041E-013
                   146 -7.631693933503057E-006
                   147 -5.041582731786529E-005
                   148 -2.606555091472168E-013
                   149 -1.609064706528937E-012
                   150 -6.035686938333431E-006
                   151 -3.689060700717780E-005
                   152 -1.730890928929319E-004
                   153 -2.492099952310478E-004
                   154  6.479684268873430E-005
                   155  2.740778925545195E-004
                   156 -9.277211370287304E-006
                   157 -5.275747364097543E-004
                   158  1.805062707554352E-012
                   159  1.886572308155217E-005
                   160  6.619845596900643E-005
                   161 -2.131127104880004E-012
                   162  5.207050296602028E-004
                   163 -1.393386556623235E-004
                   164  1.158083166656405E-011
                   165  7.102808744985667E-007
                   166  3.022875365088328E-012
                   167  1.717617342220266E-012
                   168 -4.153309217939988E-006
                   169 -7.301379198133035E-007
                   170  8.502359465470298E-005
                   171 -3.365934166933120E-012
                   172  1.597940870222007E-012
                   173  4.639654026023910E-005
                   174 -7.397730932926539E-006
                   175 -1.802606300875533E-013
                   176 -1.048825325885792E-007
                   177 -1.394628455790318E-005
                   178  1.094582233277858E-012
                   179 -4.335408868426052E-013
                   180 -6.362073639264340E-006
                   181 -2.076186204066167E-005
                   182 -1.685919869011517E-004
                   183 -5.409735102283309E-004
                   184  3.588010510241283E-005
                   185  2.697373505885139E-004
                   186 -3.852263770004774E-005
                   187 -5.458325521718756E-006
                   188 -8.214551520890129E-012
                   189  1.899071286645723E-004
                   190  8.364528715721317E-005
                   191  4.551239385004840E-012
                   192  1.001454955646402E-003
                   193 -2.075609089503382E-004
                   194 -1.337193461827148E-011
                   195  3.254919547905786E-006
                   196 -3.923219170264470E-013
                   197  3.425212763788820E-012
                   198 -1.108753343913285E-005
                   199  5.593677694532437E-008
                   200 -2.457604695313855E-005
                   201 -1.576858662045750E-012
                   202 -7.427585368930592E-013
                   203 -7.960991192756635E-005
                   204 -1.533185959572510E-004
                   205  1.773802296297959E-013
                   206 -8.498352500136896E-006
                   207 -4.458959089538863E-006
                   208 -2.810168693764804E-012
                   209  1.063282630510722E-012
                   210  5.414373760359648E-006
                   211 -8.366027615114315E-006
                   212  1.082952451207001E-004
                   213 -1.290210338258028E-004
                   214  2.242747347151652E-004
                   215  1.832224125116271E-004
                   216 -3.115190458432855E-012
                   217  1.762018241488621E-003
                   218 -1.537884622335652E-003
                   219 -3.830400301641380E-004
                   220  2.590545659657135E-004
                   221  7.747570762295406E-012
                   222 -3.870826449342632E-004
                   223 -6.544521976797360E-004
                   224 -1.185855343644632E-005
                   225 -6.190170638092600E-005
                   226  7.812502423938753E-013
                   227 -3.216872533205562E-004
                   228 -4.569919048326883E-004
                   229 -6.681268328985170E-006
                   230 -3.194088088437122E-005
                   231  1.056931087441197E-013
                   232 -1.111529802509412E-004
                   233 -3.474734993479906E-004
                   234 -3.750832321431242E-006
                   235 -2.186090420525273E-006
                   236 -1.443810934455043E-012
                   237 -1.606669669508378E-004
                   238 -3.401761598735586E-004
                   239  5.178818247530690E-006
                   240 -3.362509233532505E-006
                   241 -6.972080335145755E-013
                   242  2.067947468832749E-005
                   243  3.560207176310390E-005
                   244  1.527419285640057E-006
                   245  2.810371408993527E-005
                   246 -4.373874593200766E-013
 Sym= __2_A__
 Ene=  0.000000000000000E+000
 Spin= Alpha
 Occup=    2.00000000000000     
                     1 -5.441197095428242E-005
                     2 -2.577868622608560E-004
                     3  2.800064993551704E-003
                     4  1.244872687889246E-004
                     5  1.327923952194278E-003
                     6 -2.390616119078702E-004
                     7  3.246423567029131E-003
                     8  1.144111050908308E-011
                     9  6.760045004143093E-007
                    10 -1.014341024875184E-004
                    11 -4.940162972842873E-012
                    12  1.281156904392035E-005
                    13 -4.647782376014731E-004
                    14  7.704389882617692E-013
                    15  4.032833780405978E-005
                    16  1.377515075302660E-013
                    17  1.526584908796923E-013
                    18 -5.644430692162208E-005
                    19  1.521255518671702E-005
                    20 -1.159987739487325E-004
                    21 -9.396684799730429E-013
                    22  8.027450219278078E-013
                    23  2.498468040209656E-004
                    24 -1.090407307707314E-004
                    25  2.006379284841419E-012
                    26 -9.614862959584665E-006
                    27  1.140426187276620E-004
                    28 -1.223381476251392E-012
                    29 -1.263200972036189E-013
                    30 -5.277271377108098E-005
                    31  1.404391142767083E-004
                    32   1.00090131640745     
                    33  9.308967058336037E-003
                    34  2.692089232679192E-003
                    35 -7.639936063396114E-003
                    36 -5.466444744007880E-005
                    37 -3.757062314884313E-003
                    38  7.483225554452728E-012
                    39 -1.953727806434834E-004
                    40  3.746478221030344E-004
                    41 -5.689227490859979E-013
                    42 -1.124858991947136E-004
                    43  4.230885767415234E-003
                    44 -2.814503761514735E-012
                    45 -5.908278354198542E-004
                    46  3.822535256793828E-012
                    47 -7.941037991179975E-013
                    48 -2.995739285927330E-004
                    49  4.690674885631564E-005
                    50  4.767338826957511E-004
                    51 -7.136103814622607E-012
                    52  8.958722523263969E-013
                    53 -2.527436403357856E-004
                    54 -3.650136344188979E-004
                    55 -1.088938182567911E-012
                    56  1.352916163495722E-005
                    57  1.055531018205322E-004
                    58  1.037982758277395E-012
                    59  1.347244677550075E-012
                    60 -3.527021418157949E-005
                    61  4.485052229009799E-004
                    62  9.832415400356403E-003
                    63 -2.182658123143123E-003
                    64 -1.530645070431930E-004
                    65  2.463807788903465E-003
                    66 -9.649642022070732E-006
                    67 -5.954466140417668E-006
                    68  4.703891604930734E-012
                    69  5.430047539802245E-004
                    70  2.408847895942025E-004
                    71 -6.939755879857261E-012
                    72 -1.973677642630505E-003
                    73  5.436900157116156E-004
                    74 -4.053953163706906E-012
                    75  4.890320291829349E-005
                    76  1.964586648893460E-012
                    77  1.228512092012890E-012
                    78 -8.012426292136065E-006
                    79  2.537496406600115E-006
                    80 -3.880808407693917E-004
                    81 -4.730019261866615E-012
                    82 -5.981383675003383E-012
                    83 -4.715111097961276E-004
                    84 -2.845371959212848E-005
                    85  6.015789490252872E-013
                    86  2.385433506864467E-005
                    87 -6.105426358444525E-005
                    88  3.992639902612818E-012
                    89  1.608379974257177E-012
                    90 -1.227626543324106E-006
                    91  1.579822257394487E-004
                    92  1.134243760633392E-002
                    93 -2.231276681551170E-003
                    94 -2.244233687180662E-004
                    95  2.941853136770128E-003
                    96  8.998814152064012E-005
                    97  3.770099332623760E-006
                    98  3.697823500694140E-012
                    99 -9.295216245135751E-004
                   100  6.791807986916350E-005
                   101 -2.227469404601039E-012
                   102  1.647770458953540E-003
                   103  2.616136564241239E-004
                   104  3.929151290155631E-012
                   105  3.658924215055310E-005
                   106 -1.286641497961311E-012
                   107 -2.823518291347379E-012
                   108 -3.339152870554904E-006
                   109  1.163273203716251E-005
                   110 -3.988867738344422E-004
                   111 -2.071707705128135E-012
                   112 -3.447947181156933E-013
                   113 -2.326847044077114E-004
                   114  9.111955821039491E-005
                   115 -9.101015000877922E-013
                   116 -2.273785655171803E-005
                   117 -6.981463895322874E-005
                   118  3.460569290081966E-012
                   119  1.238702309508192E-012
                   120  3.749683685353746E-005
                   121  1.372558163812005E-004
                   122 -2.454054104448255E-004
                   123 -7.703911378019303E-004
                   124  2.281181169924703E-004
                   125  7.436389638723173E-005
                   126  3.124188270311968E-005
                   127 -3.649449513551350E-004
                   128  8.123299085967217E-012
                   129 -1.508059392891822E-004
                   130  5.273567961180360E-004
                   131 -2.098487141618780E-013
                   132  3.048868211212441E-004
                   133  9.772252129711737E-004
                   134  2.239203789720079E-012
                   135  1.247548473503186E-005
                   136 -1.324846523843019E-012
                   137 -5.651515196508580E-013
                   138  3.519441629704996E-006
                   139  1.960631354508341E-005
                   140  1.337489340700783E-004
                   141  4.574384320180454E-012
                   142 -4.558301807682776E-012
                   143  2.179106081012976E-004
                   144  1.617450368061489E-005
                   145 -2.569104261422447E-013
                   146  1.417087011154380E-005
                   147 -4.434882538360230E-005
                   148 -5.034660126757944E-012
                   149 -4.629889955352970E-013
                   150 -4.461807435247563E-005
                   151  3.396982001450268E-005
                   152 -1.792174020710996E-004
                   153 -7.488549296766254E-004
                   154  2.251394703089565E-004
                   155  1.450746406753520E-004
                   156 -4.231019985066215E-005
                   157 -3.654062680441213E-004
                   158  8.734939563224335E-012
                   159  1.808579550245861E-004
                   160  4.415602383225454E-004