[Molden Format]
[Atoms] AU
  N     1    7     0.0000000000    0.0000000000   -4.4280467900        
  C     2    6     0.0000000000    0.0000000000   -1.7891830900        
  C     3    6     0.0000000000   -2.3703581000   -0.3847578500        
  C     4    6     0.0000000000    2.3703581000   -0.3847578500        
  C     5    6     0.0000000000   -2.3735847000    2.1611527400        
  C     6    6     0.0000000000    2.3735847000    2.1611527400        
  C     7    6     0.0000000000    0.0000000000    3.5585384600        
  H     8    1     0.0000000000   -1.6348332500   -5.4012999600        
  H     9    1     0.0000000000    1.6348332500   -5.4012999600        
  H    10    1     0.0000000000   -4.1214780800   -1.4110991700        
  H    11    1     0.0000000000    4.1214780800   -1.4110991700        
  H    12    1     0.0000000000   -4.1230330200    3.1851409900        
  H    13    1     0.0000000000    4.1230330200    3.1851409900        
  H    14    1     0.0000000000    0.0000000000    5.5811969900        
[5D]
[7F]
[GTO]
  1  0
   s    12 1.00
  0.114200D+05  0.172695D-04
  0.171200D+04  0.134411D-03
  0.389300D+03  0.694561D-03
  0.110000D+03  0.278531D-02
  0.355700D+02  0.863457D-02
  0.125400D+02  0.199805D-01
  0.464400D+01  0.262908D-01
  0.129300D+01 -0.243845D-01
  0.511800D+00 -0.924934D-01
  0.178700D+00 -0.339683D+00
  0.246240D-01  0.345111D+00
  0.112530D-01  0.752750D+00
   s    10 1.00
  0.114200D+05  0.523000D-03
  0.171200D+04  0.404500D-02
  0.389300D+03  0.207750D-01
  0.110000D+03  0.807269D-01
  0.355700D+02  0.233074D+00
  0.125400D+02  0.433501D+00
  0.464400D+01  0.347472D+00
  0.129300D+01  0.412620D-01
  0.511800D+00 -0.850799D-02
  0.178700D+00  0.238400D-02
   s    10 1.00
  0.114200D+05 -0.115000D-03
  0.171200D+04 -0.895000D-03
  0.389300D+03 -0.462400D-02
  0.110000D+03 -0.185280D-01
  0.355700D+02 -0.573390D-01
  0.125400D+02 -0.132076D+00
  0.464400D+01 -0.172510D+00
  0.129300D+01  0.151814D+00
  0.511800D+00  0.599944D+00
  0.178700D+00  0.387462D+00
   s     1 1.00
  0.129300D+01  0.100000D+01
   s     1 1.00
  0.178700D+00  0.100000D+01
   p     5 1.00
  0.266300D+02  0.146700D-01
  0.594800D+01  0.917640D-01
  0.174200D+01  0.298683D+00
  0.555000D+00  0.498487D+00
  0.172500D+00  0.337023D+00
   p     1 1.00
  0.174200D+01  0.100000D+01
   p     1 1.00
  0.555000D+00  0.100000D+01
   d     1 1.00
  0.165400D+01  0.100000D+01
   d     1 1.00
  0.469000D+00  0.100000D+01
   f     1 1.00
  0.109300D+01  0.100000D+01
  
  2  0
   s    10 1.00
  0.823600D+04  0.531000D-03
  0.123500D+04  0.410800D-02
  0.280800D+03  0.210870D-01
  0.792700D+02  0.818530D-01
  0.255900D+02  0.234817D+00
  0.899700D+01  0.434401D+00
  0.331900D+01  0.346129D+00
  0.905900D+00  0.393780D-01
  0.364300D+00 -0.898300D-02
  0.128500D+00  0.238500D-02
   s    10 1.00
  0.823600D+04 -0.113000D-03
  0.123500D+04 -0.878000D-03
  0.280800D+03 -0.454000D-02
  0.792700D+02 -0.181330D-01
  0.255900D+02 -0.557600D-01
  0.899700D+01 -0.126895D+00
  0.331900D+01 -0.170352D+00
  0.905900D+00  0.140382D+00
  0.364300D+00  0.598684D+00
  0.128500D+00  0.395389D+00
   s     1 1.00
  0.905900D+00  0.100000D+01
   s     1 1.00
  0.364300D+00  0.100000D+01
   p     5 1.00
  0.187100D+02  0.140310D-01
  0.413300D+01  0.868660D-01
  0.120000D+01  0.290216D+00
  0.382700D+00  0.501008D+00
  0.120900D+00  0.343406D+00
   p     1 1.00
  0.382700D+00  0.100000D+01
   p     1 1.00
  0.120900D+00  0.100000D+01
   d     1 1.00
  0.109700D+01  0.100000D+01
   d     1 1.00
  0.318000D+00  0.100000D+01
   f     1 1.00
  0.761000D+00  0.100000D+01
  
  3  0
   s    10 1.00
  0.823600D+04  0.531000D-03
  0.123500D+04  0.410800D-02
  0.280800D+03  0.210870D-01
  0.792700D+02  0.818530D-01
  0.255900D+02  0.234817D+00
  0.899700D+01  0.434401D+00
  0.331900D+01  0.346129D+00
  0.905900D+00  0.393780D-01
  0.364300D+00 -0.898300D-02
  0.128500D+00  0.238500D-02
   s    10 1.00
  0.823600D+04 -0.113000D-03
  0.123500D+04 -0.878000D-03
  0.280800D+03 -0.454000D-02
  0.792700D+02 -0.181330D-01
  0.255900D+02 -0.557600D-01
  0.899700D+01 -0.126895D+00
  0.331900D+01 -0.170352D+00
  0.905900D+00  0.140382D+00
  0.364300D+00  0.598684D+00
  0.128500D+00  0.395389D+00
   s     1 1.00
  0.905900D+00  0.100000D+01
   s     1 1.00
  0.364300D+00  0.100000D+01
   p     5 1.00
  0.187100D+02  0.140310D-01
  0.413300D+01  0.868660D-01
  0.120000D+01  0.290216D+00
  0.382700D+00  0.501008D+00
  0.120900D+00  0.343406D+00
   p     1 1.00
  0.382700D+00  0.100000D+01
   p     1 1.00
  0.120900D+00  0.100000D+01
   d     1 1.00
  0.109700D+01  0.100000D+01
   d     1 1.00
  0.318000D+00  0.100000D+01
   f     1 1.00
  0.761000D+00  0.100000D+01
  
  4  0
   s    10 1.00
  0.823600D+04  0.531000D-03
  0.123500D+04  0.410800D-02
  0.280800D+03  0.210870D-01
  0.792700D+02  0.818530D-01
  0.255900D+02  0.234817D+00
  0.899700D+01  0.434401D+00
  0.331900D+01  0.346129D+00
  0.905900D+00  0.393780D-01
  0.364300D+00 -0.898300D-02
  0.128500D+00  0.238500D-02
   s    10 1.00
  0.823600D+04 -0.113000D-03
  0.123500D+04 -0.878000D-03
  0.280800D+03 -0.454000D-02
  0.792700D+02 -0.181330D-01
  0.255900D+02 -0.557600D-01
  0.899700D+01 -0.126895D+00
  0.331900D+01 -0.170352D+00
  0.905900D+00  0.140382D+00
  0.364300D+00  0.598684D+00
  0.128500D+00  0.395389D+00
   s     1 1.00
  0.905900D+00  0.100000D+01
   s     1 1.00
  0.364300D+00  0.100000D+01
   p     5 1.00
  0.187100D+02  0.140310D-01
  0.413300D+01  0.868660D-01
  0.120000D+01  0.290216D+00
  0.382700D+00  0.501008D+00
  0.120900D+00  0.343406D+00
   p     1 1.00
  0.382700D+00  0.100000D+01
   p     1 1.00
  0.120900D+00  0.100000D+01
   d     1 1.00
  0.109700D+01  0.100000D+01
   d     1 1.00
  0.318000D+00  0.100000D+01
   f     1 1.00
  0.761000D+00  0.100000D+01
  
  5  0
   s    10 1.00
  0.823600D+04  0.531000D-03
  0.123500D+04  0.410800D-02
  0.280800D+03  0.210870D-01
  0.792700D+02  0.818530D-01
  0.255900D+02  0.234817D+00
  0.899700D+01  0.434401D+00
  0.331900D+01  0.346129D+00
  0.905900D+00  0.393780D-01
  0.364300D+00 -0.898300D-02
  0.128500D+00  0.238500D-02
   s    10 1.00
  0.823600D+04 -0.113000D-03
  0.123500D+04 -0.878000D-03
  0.280800D+03 -0.454000D-02
  0.792700D+02 -0.181330D-01
  0.255900D+02 -0.557600D-01
  0.899700D+01 -0.126895D+00
  0.331900D+01 -0.170352D+00
  0.905900D+00  0.140382D+00
  0.364300D+00  0.598684D+00
  0.128500D+00  0.395389D+00
   s     1 1.00
  0.905900D+00  0.100000D+01
   s     1 1.00
  0.364300D+00  0.100000D+01
   p     5 1.00
  0.187100D+02  0.140310D-01
  0.413300D+01  0.868660D-01
  0.120000D+01  0.290216D+00
  0.382700D+00  0.501008D+00
  0.120900D+00  0.343406D+00
   p     1 1.00
  0.382700D+00  0.100000D+01
   p     1 1.00
  0.120900D+00  0.100000D+01
   d     1 1.00
  0.109700D+01  0.100000D+01
   d     1 1.00
  0.318000D+00  0.100000D+01
   f     1 1.00
  0.761000D+00  0.100000D+01
  
  6  0
   s    10 1.00
  0.823600D+04  0.531000D-03
  0.123500D+04  0.410800D-02
  0.280800D+03  0.210870D-01
  0.792700D+02  0.818530D-01
  0.255900D+02  0.234817D+00
  0.899700D+01  0.434401D+00
  0.331900D+01  0.346129D+00
  0.905900D+00  0.393780D-01
  0.364300D+00 -0.898300D-02
  0.128500D+00  0.238500D-02
   s    10 1.00
  0.823600D+04 -0.113000D-03
  0.123500D+04 -0.878000D-03
  0.280800D+03 -0.454000D-02
  0.792700D+02 -0.181330D-01
  0.255900D+02 -0.557600D-01
  0.899700D+01 -0.126895D+00
  0.331900D+01 -0.170352D+00
  0.905900D+00  0.140382D+00
  0.364300D+00  0.598684D+00
  0.128500D+00  0.395389D+00
   s     1 1.00
  0.905900D+00  0.100000D+01
   s     1 1.00
  0.364300D+00  0.100000D+01
   p     5 1.00
  0.187100D+02  0.140310D-01
  0.413300D+01  0.868660D-01
  0.120000D+01  0.290216D+00
  0.382700D+00  0.501008D+00
  0.120900D+00  0.343406D+00
   p     1 1.00
  0.382700D+00  0.100000D+01
   p     1 1.00
  0.120900D+00  0.100000D+01
   d     1 1.00
  0.109700D+01  0.100000D+01
   d     1 1.00
  0.318000D+00  0.100000D+01
   f     1 1.00
  0.761000D+00  0.100000D+01
  
  7  0
   s    10 1.00
  0.823600D+04  0.531000D-03
  0.123500D+04  0.410800D-02
  0.280800D+03  0.210870D-01
  0.792700D+02  0.818530D-01
  0.255900D+02  0.234817D+00
  0.899700D+01  0.434401D+00
  0.331900D+01  0.346129D+00
  0.905900D+00  0.393780D-01
  0.364300D+00 -0.898300D-02
  0.128500D+00  0.238500D-02
   s    10 1.00
  0.823600D+04 -0.113000D-03
  0.123500D+04 -0.878000D-03
  0.280800D+03 -0.454000D-02
  0.792700D+02 -0.181330D-01
  0.255900D+02 -0.557600D-01
  0.899700D+01 -0.126895D+00
  0.331900D+01 -0.170352D+00
  0.905900D+00  0.140382D+00
  0.364300D+00  0.598684D+00
  0.128500D+00  0.395389D+00
   s     1 1.00
  0.905900D+00  0.100000D+01
   s     1 1.00
  0.364300D+00  0.100000D+01
   p     5 1.00
  0.187100D+02  0.140310D-01
  0.413300D+01  0.868660D-01
  0.120000D+01  0.290216D+00
  0.382700D+00  0.501008D+00
  0.120900D+00  0.343406D+00
   p     1 1.00
  0.382700D+00  0.100000D+01
   p     1 1.00
  0.120900D+00  0.100000D+01
   d     1 1.00
  0.109700D+01  0.100000D+01
   d     1 1.00
  0.318000D+00  0.100000D+01
   f     1 1.00
  0.761000D+00  0.100000D+01
  
  8  0
   s     4 1.00
  0.130100D+02  0.196850D-01
  0.196200D+01  0.137977D+00
  0.444600D+00  0.478148D+00
  0.122000D+00  0.501240D+00
   s     1 1.00
  0.122000D+00  0.100000D+01
   p     1 1.00
  0.727000D+00  0.100000D+01
  
  9  0
   s     4 1.00
  0.130100D+02  0.196850D-01
  0.196200D+01  0.137977D+00
  0.444600D+00  0.478148D+00
  0.122000D+00  0.501240D+00
   s     1 1.00
  0.122000D+00  0.100000D+01
   p     1 1.00
  0.727000D+00  0.100000D+01
  
 10  0
   s     4 1.00
  0.130100D+02  0.196850D-01
  0.196200D+01  0.137977D+00
  0.444600D+00  0.478148D+00
  0.122000D+00  0.501240D+00
   s     1 1.00
  0.122000D+00  0.100000D+01
   p     1 1.00
  0.727000D+00  0.100000D+01
  
 11  0
   s     4 1.00
  0.130100D+02  0.196850D-01
  0.196200D+01  0.137977D+00
  0.444600D+00  0.478148D+00
  0.122000D+00  0.501240D+00
   s     1 1.00
  0.122000D+00  0.100000D+01
   p     1 1.00
  0.727000D+00  0.100000D+01
  
 12  0
   s     4 1.00
  0.130100D+02  0.196850D-01
  0.196200D+01  0.137977D+00
  0.444600D+00  0.478148D+00
  0.122000D+00  0.501240D+00
   s     1 1.00
  0.122000D+00  0.100000D+01
   p     1 1.00
  0.727000D+00  0.100000D+01
  
 13  0
   s     4 1.00
  0.130100D+02  0.196850D-01
  0.196200D+01  0.137977D+00
  0.444600D+00  0.478148D+00
  0.122000D+00  0.501240D+00
   s     1 1.00
  0.122000D+00  0.100000D+01
   p     1 1.00
  0.727000D+00  0.100000D+01
  
 14  0
   s     4 1.00
  0.130100D+02  0.196850D-01
  0.196200D+01  0.137977D+00
  0.444600D+00  0.478148D+00
  0.122000D+00  0.501240D+00
   s     1 1.00
  0.122000D+00  0.100000D+01
   p     1 1.00
  0.727000D+00  0.100000D+01
  
[MO]
 Sym= __1_A__
 Ene=   1.00000000000000     
 Spin= Alpha
 Occup=    1.00000000000000     
                     1  5.458680744040714E-005
                     2  0.998038980593011     
                     3  7.443101314013816E-003
                     4  2.081189300753834E-003
                     5  1.812720288763245E-003
                     6 -3.321704165427188E-012
                     7 -3.069013322352454E-010
                     8  3.700718134049530E-003
                     9 -1.847485122211268E-012
                    10  7.833574320441085E-009
                    11 -2.713680604113672E-004
                    12 -1.441976001173225E-012
                    13 -3.472834577281960E-008
                    14 -5.221572054977159E-004
                    15  1.372554435722393E-004
                    16  1.471633172604977E-012
                    17  5.945150482343455E-010
                    18 -1.299720997810125E-004
                    19  4.498221049795134E-013
                    20  3.566272390480994E-006
                    21 -3.712403266193348E-013
                    22 -1.059625640762056E-008
                    23  4.962152069331126E-004
                    24 -9.241612783666571E-013
                    25 -1.399765026203629E-004
                    26  7.015813308309341E-013
                    27 -2.658514732429480E-009
                    28  1.004833558613596E-004
                    29 -1.126398339585123E-013
                    30  2.177604098499548E-013
                    31 -1.240127586690137E-010
                    32 -2.251062323732960E-004
                    33  2.126536231360466E-003
                    34  1.663021956213524E-005
                    35 -7.015054788655051E-005
                    36  1.431616432574861E-012
                    37  1.670746527108796E-008
                    38 -5.378142192447344E-003
                    39 -2.549097406480371E-012
                    40 -6.501942278558557E-008
                    41 -3.098754488238086E-004
                    42 -6.701713403247091E-013
                    43 -6.332637624838482E-008
                    44  3.768438840181364E-003
                    45  3.332714488946433E-004
                    46  7.117008790013803E-013
                    47  5.301164940447949E-009
                    48  1.080622303969396E-004
                    49  4.316490506770278E-013
                    50  3.979927249320601E-004
                    51  9.299967073394235E-013
                    52 -1.047908141665032E-007
                    53 -2.159978392007220E-004
                    54 -1.283939590873669E-013
                    55 -3.642932481617922E-005
                    56 -2.640565037239033E-013
                    57  1.239474197935919E-009
                    58  7.439323578979640E-005
                    59  5.042670069982119E-015
                    60  9.515022466448359E-013
                    61  1.485802626340928E-009
                    62 -2.035338640811862E-004
                    63 -1.453046021725276E-003
                    64  2.088382473306269E-005
                    65  7.044755924404135E-004
                    66 -3.268579615001373E-012
                    67 -6.812777395115700E-004
                    68  8.448095134301868E-004
                    69  2.250094495270331E-012
                    70  2.098003799064862E-005
                    71  4.123183337125121E-004
                    72 -1.255616496755642E-012
                    73 -5.362626283262701E-004
                    74 -2.839210354067969E-004
                    75  8.461154417595777E-005
                    76 -5.799473604817677E-013
                    77 -7.966826883503212E-006
                    78  2.583627767426580E-005
                    79 -5.969620101823593E-013
                    80  1.320746889747635E-005
                    81 -1.771358588562034E-012
                    82  5.282343566714979E-005
                    83 -6.835713236150834E-006
                    84  5.175237618530555E-013
                    85 -8.643304117327175E-005
                    86 -7.247275378873500E-013
                    87 -2.648653151413182E-005
                    88  1.567463400596101E-005
                    89  7.833158197951418E-013
                    90 -1.900063400316921E-013
                    91  1.019861315633425E-005
                    92 -2.035216277286242E-004
                    93 -1.452988367561669E-003
                    94  2.100178550070445E-005
                    95  7.040530100287396E-004
                    96 -1.779915646821892E-012
                    97  6.813015723179666E-004
                    98  8.448920282253883E-004
                    99 -6.350248948453994E-013
                   100 -2.110782687282877E-005
                   101  4.117978257955822E-004
                   102  8.665277480914522E-013
                   103  5.358965899624418E-004
                   104 -2.839914266590693E-004
                   105  8.458609091196459E-005
                   106  2.956599918994266E-013
                   107  7.975456372648906E-006
                   108  2.583904178762168E-005
                   109 -1.535378480000322E-013
                   110  1.289373035268933E-005
                   111  4.784222372011822E-013
                   112 -5.287244336780858E-005
                   113 -6.915445781758140E-006
                   114  3.842187224491988E-013
                   115 -8.638906021915337E-005
                   116 -1.131415650235504E-012
                   117  2.647422143870262E-005
                   118  1.567544267391335E-005
                   119 -7.009704969482337E-013
                   120  1.180786939338418E-013
                   121 -1.019736780183893E-005
                   122 -1.349977584669310E-004
                   123 -3.760696045995075E-005
                   124  9.125020719052821E-005
                   125  1.613053161704124E-004
                   126 -1.374143787942662E-012
                   127  4.335212262119766E-005
                   128 -6.415264250952922E-004
                   129 -9.716991450237906E-013
                   130  6.818706908916999E-005
                   131  3.141340456177501E-004
                   132  3.052466523157516E-012
                   133 -1.880654803786826E-004
                   134  6.062058308038960E-004
                   135 -1.694017551629911E-005
                   136  1.560262419805935E-013
                   137 -2.129052603275264E-007
                   138 -4.096457158185816E-006
                   139 -4.298145067031987E-013
                   140 -1.628550251998995E-004
                   141 -1.232148546601495E-012
                   142  1.338016289481650E-004
                   143  3.363047385798842E-005
                   144  1.367264075923401E-012
                   145 -3.719488164971485E-005
                   146  9.899879010971542E-013
                   147  2.873548061111424E-006
                   148 -1.081330299243935E-005
                   149  6.889772497559784E-013
                   150  2.649460328150640E-013
                   151 -2.777476399975367E-006
                   152 -1.352644872789758E-004
                   153 -3.855279054489251E-005
                   154  9.098750364767011E-005
                   155  1.629647054139084E-004
                   156  3.964299602022805E-012
                   157 -4.337828444701862E-005
                   158 -6.414735620199375E-004
                   159 -1.568183367794607E-012
                   160 -6.815713977192794E-005
                   161  3.137118400097006E-004
                   162 -1.631015074558252E-012
                   163  1.884548227606545E-004
                   164  6.061317019966742E-004
                   165 -1.690355750498852E-005
                   166 -1.542685495851448E-013
                   167  2.178657226589793E-007
                   168 -4.117291403912424E-006
                   169  3.360835216031786E-013
                   170 -1.626823477253683E-004
                   171 -4.844176273196607E-013
                   172 -1.338616215357188E-004
                   173  3.366060195300336E-005
                   174 -7.310806809435149E-013
                   175 -3.714124754552644E-005
                   176  3.506090284964694E-013
                   177 -2.857807543325258E-006
                   178 -1.083316584614961E-005
                   179 -9.362184277423415E-013
                   180  1.649792446446674E-013
                   181  2.772630018552155E-006
                   182 -8.799927387435875E-005
                   183 -2.212190693872113E-004
                   184  3.414782399229612E-005
                   185  1.120458368585989E-004
                   186 -2.060804545201069E-012
                   187  1.104771148160549E-008
                   188 -4.181735185810570E-005
                   189  2.641510736135226E-012
                   190 -5.619165668670385E-008
                   191  2.306449464440423E-005
                   192 -2.220008087055474E-012
                   193  8.626693513000920E-008
                   194 -3.082456806029911E-005
                   195  1.451655032892564E-005
                   196  3.204549852478353E-013
                   197  4.970775455440344E-009
                   198  4.605684365299730E-006
                   199  3.843990862190277E-013
                   200  5.478285587168512E-005
                   201  3.045388910036044E-013
                   202  3.016805039162421E-008
                   203  7.069334150524602E-005
                   204 -5.659135072363413E-013
                   205 -1.816513775703955E-006
                   206 -5.247647000029257E-013
                   207 -5.305994306030255E-009
                   208 -6.344113545189216E-006
                   209  1.680552255348431E-013
                   210 -7.763403366608539E-013
                   211  6.593648906556425E-009
                   212  3.870439938155628E-003
                   213 -2.360941042012489E-003
                   214 -4.259332605727685E-013
                   215  4.409856243638916E-004
                   216  3.273033400567310E-004
                   217  3.870461731922871E-003
                   218 -2.360946050945512E-003
                   219 -6.523211230725227E-013
                   220 -4.409982360832155E-004
                   221  3.273102444191424E-004
                   222 -4.741185415186764E-004
                   223 -1.809529145813170E-004
                   224 -4.616075305038697E-013
                   225 -1.070866953241431E-005
                   226 -3.910784104442903E-005
                   227 -4.741748298765697E-004
                   228 -1.807669329302457E-004
                   229 -5.976663899431167E-013
                   230  1.069433837658694E-005
                   231 -3.912649567469731E-005
                   232 -1.677824027251675E-004
                   233 -3.587576633330357E-004
                   234  5.955297713261403E-013
                   235 -3.415047561872774E-006
                   236 -1.290775510987270E-006
                   237 -1.678563719379736E-004
                   238 -3.588083201749718E-004
                   239  1.255456813344012E-012
                   240  3.458834766959482E-006
                   241 -1.269216767239237E-006
                   242  4.896994784861334E-005
                   243 -5.986559705156124E-005
                   244 -3.401753384519096E-013
                   245 -2.727994822202115E-009
                   246  1.011456595168669E-005
 Sym= __2_A__
 Ene=   2.00000000000000     
 Spin= Alpha
 Occup=    1.00000000000000     
                     1 -4.805422183245353E-005
                     2 -6.378860184822083E-005
                     3  1.957847587543675E-003
                     4 -5.216814218498164E-006
                     5  1.075205046462020E-003
                     6  1.114633364618674E-011
                     7  7.678637095988759E-009
                     8  2.523416195671809E-003
                     9  1.869396565353298E-012
                    10 -4.666818948399865E-009
                    11 -9.764616320915450E-005
                    12  1.403083865382411E-013
                    13  3.858471673976268E-009
                    14 -2.027901593808892E-004
                    15  7.135723971163420E-005
                    16 -1.483705121141722E-012
                    17  1.018636627284884E-010
                    18  5.990419203712566E-005
                    19 -1.564280064685761E-013
                    20 -1.621517584105663E-004
                    21 -3.316224408050963E-013
                    22  2.209727706239884E-009
                    23 -2.857590333364794E-004
                    24 -8.991256970278227E-015
                    25  1.806935523088162E-004
                    26 -3.482225944080333E-014
                    27 -8.250639762884086E-010
                    28 -2.798505170481548E-006
                    29 -1.777111051852661E-013
                    30  1.656484044904036E-013
                    31  6.497201485552192E-010
                    32   1.00124348047715     
                    33  8.749132041244674E-003
                    34  2.240324164704036E-003
                    35 -7.640971473473423E-003
                    36  4.046447501447523E-012
                    37 -5.393215838159647E-009
                    38 -3.426077783400079E-003
                    39  4.185050989712583E-012
                    40  7.164167108337544E-009
                    41  1.087185332634677E-003
                    42  1.124588309344914E-012
                    43 -7.074886480806406E-008
                    44  3.779922504904742E-003
                    45  3.042117857630433E-004
                    46 -1.156157366486645E-012
                    47 -2.469127688757138E-009
                    48 -3.711788657369442E-004
                    49 -2.433748243932640E-013
                    50  3.952074466375739E-004
                    51 -2.971604471924007E-012
                    52  1.376635765394617E-008
                    53  8.066158335439088E-004
                    54  9.284710564332332E-013
                    55  2.518395395340829E-004
                    56  8.946562793528188E-014
                    57 -1.012366612068475E-009
                    58 -1.598137522387504E-004
                    59  1.577571544035843E-013
                    60 -5.957847035482143E-013
                    61  1.031592538829615E-009
                    62  5.754734919097945E-003
                    63 -1.793966400768009E-003
                    64 -2.920868276507914E-004
                    65  2.819579423527755E-003
                    66  8.933602019469402E-012
                    67  1.549103164539518E-004
                    68 -8.939296676920771E-005
                    69 -2.619318035361937E-012
                    70  5.524290851539578E-004
                    71  8.045924945012432E-005
                    72 -1.655683890842884E-013
                    73 -1.918701349993395E-003
                    74  1.452425854642840E-004
                    75 -2.174094315189531E-005
                    76  3.301821008475073E-013
                    77  1.418310615508038E-006
                    78  1.321968291755404E-005
                    79 -2.190738258027755E-014
                    80  7.069125211962260E-004
                    81  3.799673297452980E-012
                    82 -4.621558633551850E-004
                    83 -5.205631550978006E-005
                    84  1.894411774791195E-012
                    85  5.188507421444374E-005
                    86  2.589771050083980E-013
                    87  2.873249085255121E-005
                    88 -1.120002813572554E-004
                    89 -3.191545984890703E-013
                    90  1.377326118605299E-013
                    91  4.501214239482940E-005
                    92  5.754713414335614E-003
                    93 -1.794038887241696E-003
                    94 -2.921293566481392E-004
                    95  2.819776765443810E-003
                    96  7.497113899694261E-012
                    97 -1.549133284082990E-004
                    98 -8.941695680323792E-005
                    99 -3.080861335019792E-012
                   100 -5.524160123416152E-004
                   101  8.060606819662935E-005
                   102 -2.192806705179502E-012
                   103  1.918797247582707E-003
                   104  1.450916396254912E-004
                   105 -2.172677178861526E-005
                   106 -6.942339612765150E-013
                   107 -1.423097262246617E-006
                   108  1.321829438984029E-005
                   109  4.494722272190518E-014
                   110  7.069809586586937E-004
                   111  2.029728422922450E-012
                   112  4.621978524957229E-004
                   113 -5.203646801891014E-005
                   114 -2.347345758335026E-012
                   115  5.187178813556167E-005
                   116  8.496029561937032E-013
                   117 -2.872759460880937E-005
                   118 -1.119987078708387E-004
                   119  5.920982188771133E-013
                   120  6.970373015656865E-014
                   121 -4.501101910087973E-005
                   122 -2.410946529087251E-004
                   123 -7.410635632517854E-004
                   124  2.243477388154145E-004
                   125 -1.517402809651613E-004
                   126  1.706743169053257E-012
                   127 -1.370661188479053E-005
                   128 -2.009291690204287E-004
                   129 -2.710230266166411E-012
                   130 -6.937628298071270E-007
                   131  5.499139089802179E-004
                   132 -2.890437134098283E-012
                   133  3.551680259280850E-004
                   134  6.215688774810442E-004
                   135 -1.761352054728743E-005
                   136 -9.540021306804637E-013
                   137  4.524837207691205E-005
                   138  1.238972661799260E-005
                   139 -6.999458374183354E-014
                   140 -2.719993108492343E-004
                   141  2.035222785580715E-012
                   142 -2.352928604929934E-004
                   143 -2.510016416828566E-007
                   144 -3.418856250486852E-012
                   145 -1.094308731681644E-006
                   146 -1.077351883706041E-012
                   147 -2.880517772882390E-005
                   148 -4.210571740963020E-005
                   149 -8.634604567105343E-013
                   150  3.015254513643232E-014
                   151 -1.440609716472867E-006
                   152 -2.408586573500133E-004
                   153 -7.402770543379597E-004
                   154  2.244136362691468E-004
                   155 -1.526111887291742E-004
                   156 -9.674207764148383E-013
                   157  1.370209746351200E-005
                   158 -2.009378151197484E-004
                   159  2.196772358506700E-013
                   160  7.109939891613837E-007