[Molden Format]
[Atoms] AU
  N     1    7     0.0009524000   -0.0008007200   -4.3120643900        
  C     2    6    -0.0001239600   -0.0018025400   -1.7694720700        
  C     3    6     0.0574307700   -2.3362445600   -0.4130063200        
  C     4    6    -0.0588278900    2.3315698400   -0.4112163500        
  C     5    6     0.0910638800   -2.2998980300    2.1668969000        
  C     6    6    -0.0946452000    2.2931902600    2.1686280300        
  C     7    6    -0.0023433700   -0.0038683400    3.4734492300        
  H     8    1    -0.8619814400   -1.4203541800   -5.3269868000        
  H     9    1     0.8647447900    1.4195517700   -5.3251368500        
  H    10    1     0.1387953900   -4.0671879100   -1.4509631200        
  H    11    1    -0.1393143100    4.0633306300   -1.4478772800        
  H    12    1     0.1917366800   -4.0390771700    3.1995103900        
  H    13    1    -0.1961928000    4.0315551700    3.2025261200        
  H    14    1    -0.0032015400   -0.0046671000    5.5006768700        
[5D]
[7F]
[GTO]
  1  0
   s    12 1.00
  0.114200D+05  0.172695D-04
  0.171200D+04  0.134411D-03
  0.389300D+03  0.694561D-03
  0.110000D+03  0.278531D-02
  0.355700D+02  0.863457D-02
  0.125400D+02  0.199805D-01
  0.464400D+01  0.262908D-01
  0.129300D+01 -0.243845D-01
  0.511800D+00 -0.924934D-01
  0.178700D+00 -0.339683D+00
  0.246240D-01  0.345111D+00
  0.112530D-01  0.752750D+00
   s    10 1.00
  0.114200D+05  0.523000D-03
  0.171200D+04  0.404500D-02
  0.389300D+03  0.207750D-01
  0.110000D+03  0.807269D-01
  0.355700D+02  0.233074D+00
  0.125400D+02  0.433501D+00
  0.464400D+01  0.347472D+00
  0.129300D+01  0.412620D-01
  0.511800D+00 -0.850799D-02
  0.178700D+00  0.238400D-02
   s    10 1.00
  0.114200D+05 -0.115000D-03
  0.171200D+04 -0.895000D-03
  0.389300D+03 -0.462400D-02
  0.110000D+03 -0.185280D-01
  0.355700D+02 -0.573390D-01
  0.125400D+02 -0.132076D+00
  0.464400D+01 -0.172510D+00
  0.129300D+01  0.151814D+00
  0.511800D+00  0.599944D+00
  0.178700D+00  0.387462D+00
   s     1 1.00
  0.129300D+01  0.100000D+01
   s     1 1.00
  0.178700D+00  0.100000D+01
   p     5 1.00
  0.266300D+02  0.146700D-01
  0.594800D+01  0.917640D-01
  0.174200D+01  0.298683D+00
  0.555000D+00  0.498487D+00
  0.172500D+00  0.337023D+00
   p     1 1.00
  0.174200D+01  0.100000D+01
   p     1 1.00
  0.555000D+00  0.100000D+01
   d     1 1.00
  0.165400D+01  0.100000D+01
   d     1 1.00
  0.469000D+00  0.100000D+01
   f     1 1.00
  0.109300D+01  0.100000D+01
  
  2  0
   s    10 1.00
  0.823600D+04  0.531000D-03
  0.123500D+04  0.410800D-02
  0.280800D+03  0.210870D-01
  0.792700D+02  0.818530D-01
  0.255900D+02  0.234817D+00
  0.899700D+01  0.434401D+00
  0.331900D+01  0.346129D+00
  0.905900D+00  0.393780D-01
  0.364300D+00 -0.898300D-02
  0.128500D+00  0.238500D-02
   s    10 1.00
  0.823600D+04 -0.113000D-03
  0.123500D+04 -0.878000D-03
  0.280800D+03 -0.454000D-02
  0.792700D+02 -0.181330D-01
  0.255900D+02 -0.557600D-01
  0.899700D+01 -0.126895D+00
  0.331900D+01 -0.170352D+00
  0.905900D+00  0.140382D+00
  0.364300D+00  0.598684D+00
  0.128500D+00  0.395389D+00
   s     1 1.00
  0.905900D+00  0.100000D+01
   s     1 1.00
  0.364300D+00  0.100000D+01
   p     5 1.00
  0.187100D+02  0.140310D-01
  0.413300D+01  0.868660D-01
  0.120000D+01  0.290216D+00
  0.382700D+00  0.501008D+00
  0.120900D+00  0.343406D+00
   p     1 1.00
  0.382700D+00  0.100000D+01
   p     1 1.00
  0.120900D+00  0.100000D+01
   d     1 1.00
  0.109700D+01  0.100000D+01
   d     1 1.00
  0.318000D+00  0.100000D+01
   f     1 1.00
  0.761000D+00  0.100000D+01
  
  3  0
   s    10 1.00
  0.823600D+04  0.531000D-03
  0.123500D+04  0.410800D-02
  0.280800D+03  0.210870D-01
  0.792700D+02  0.818530D-01
  0.255900D+02  0.234817D+00
  0.899700D+01  0.434401D+00
  0.331900D+01  0.346129D+00
  0.905900D+00  0.393780D-01
  0.364300D+00 -0.898300D-02
  0.128500D+00  0.238500D-02
   s    10 1.00
  0.823600D+04 -0.113000D-03
  0.123500D+04 -0.878000D-03
  0.280800D+03 -0.454000D-02
  0.792700D+02 -0.181330D-01
  0.255900D+02 -0.557600D-01
  0.899700D+01 -0.126895D+00
  0.331900D+01 -0.170352D+00
  0.905900D+00  0.140382D+00
  0.364300D+00  0.598684D+00
  0.128500D+00  0.395389D+00
   s     1 1.00
  0.905900D+00  0.100000D+01
   s     1 1.00
  0.364300D+00  0.100000D+01
   p     5 1.00
  0.187100D+02  0.140310D-01
  0.413300D+01  0.868660D-01
  0.120000D+01  0.290216D+00
  0.382700D+00  0.501008D+00
  0.120900D+00  0.343406D+00
   p     1 1.00
  0.382700D+00  0.100000D+01
   p     1 1.00
  0.120900D+00  0.100000D+01
   d     1 1.00
  0.109700D+01  0.100000D+01
   d     1 1.00
  0.318000D+00  0.100000D+01
   f     1 1.00
  0.761000D+00  0.100000D+01
  
  4  0
   s    10 1.00
  0.823600D+04  0.531000D-03
  0.123500D+04  0.410800D-02
  0.280800D+03  0.210870D-01
  0.792700D+02  0.818530D-01
  0.255900D+02  0.234817D+00
  0.899700D+01  0.434401D+00
  0.331900D+01  0.346129D+00
  0.905900D+00  0.393780D-01
  0.364300D+00 -0.898300D-02
  0.128500D+00  0.238500D-02
   s    10 1.00
  0.823600D+04 -0.113000D-03
  0.123500D+04 -0.878000D-03
  0.280800D+03 -0.454000D-02
  0.792700D+02 -0.181330D-01
  0.255900D+02 -0.557600D-01
  0.899700D+01 -0.126895D+00
  0.331900D+01 -0.170352D+00
  0.905900D+00  0.140382D+00
  0.364300D+00  0.598684D+00
  0.128500D+00  0.395389D+00
   s     1 1.00
  0.905900D+00  0.100000D+01
   s     1 1.00
  0.364300D+00  0.100000D+01
   p     5 1.00
  0.187100D+02  0.140310D-01
  0.413300D+01  0.868660D-01
  0.120000D+01  0.290216D+00
  0.382700D+00  0.501008D+00
  0.120900D+00  0.343406D+00
   p     1 1.00
  0.382700D+00  0.100000D+01
   p     1 1.00
  0.120900D+00  0.100000D+01
   d     1 1.00
  0.109700D+01  0.100000D+01
   d     1 1.00
  0.318000D+00  0.100000D+01
   f     1 1.00
  0.761000D+00  0.100000D+01
  
  5  0
   s    10 1.00
  0.823600D+04  0.531000D-03
  0.123500D+04  0.410800D-02
  0.280800D+03  0.210870D-01
  0.792700D+02  0.818530D-01
  0.255900D+02  0.234817D+00
  0.899700D+01  0.434401D+00
  0.331900D+01  0.346129D+00
  0.905900D+00  0.393780D-01
  0.364300D+00 -0.898300D-02
  0.128500D+00  0.238500D-02
   s    10 1.00
  0.823600D+04 -0.113000D-03
  0.123500D+04 -0.878000D-03
  0.280800D+03 -0.454000D-02
  0.792700D+02 -0.181330D-01
  0.255900D+02 -0.557600D-01
  0.899700D+01 -0.126895D+00
  0.331900D+01 -0.170352D+00
  0.905900D+00  0.140382D+00
  0.364300D+00  0.598684D+00
  0.128500D+00  0.395389D+00
   s     1 1.00
  0.905900D+00  0.100000D+01
   s     1 1.00
  0.364300D+00  0.100000D+01
   p     5 1.00
  0.187100D+02  0.140310D-01
  0.413300D+01  0.868660D-01
  0.120000D+01  0.290216D+00
  0.382700D+00  0.501008D+00
  0.120900D+00  0.343406D+00
   p     1 1.00
  0.382700D+00  0.100000D+01
   p     1 1.00
  0.120900D+00  0.100000D+01
   d     1 1.00
  0.109700D+01  0.100000D+01
   d     1 1.00
  0.318000D+00  0.100000D+01
   f     1 1.00
  0.761000D+00  0.100000D+01
  
  6  0
   s    10 1.00
  0.823600D+04  0.531000D-03
  0.123500D+04  0.410800D-02
  0.280800D+03  0.210870D-01
  0.792700D+02  0.818530D-01
  0.255900D+02  0.234817D+00
  0.899700D+01  0.434401D+00
  0.331900D+01  0.346129D+00
  0.905900D+00  0.393780D-01
  0.364300D+00 -0.898300D-02
  0.128500D+00  0.238500D-02
   s    10 1.00
  0.823600D+04 -0.113000D-03
  0.123500D+04 -0.878000D-03
  0.280800D+03 -0.454000D-02
  0.792700D+02 -0.181330D-01
  0.255900D+02 -0.557600D-01
  0.899700D+01 -0.126895D+00
  0.331900D+01 -0.170352D+00
  0.905900D+00  0.140382D+00
  0.364300D+00  0.598684D+00
  0.128500D+00  0.395389D+00
   s     1 1.00
  0.905900D+00  0.100000D+01
   s     1 1.00
  0.364300D+00  0.100000D+01
   p     5 1.00
  0.187100D+02  0.140310D-01
  0.413300D+01  0.868660D-01
  0.120000D+01  0.290216D+00
  0.382700D+00  0.501008D+00
  0.120900D+00  0.343406D+00
   p     1 1.00
  0.382700D+00  0.100000D+01
   p     1 1.00
  0.120900D+00  0.100000D+01
   d     1 1.00
  0.109700D+01  0.100000D+01
   d     1 1.00
  0.318000D+00  0.100000D+01
   f     1 1.00
  0.761000D+00  0.100000D+01
  
  7  0
   s    10 1.00
  0.823600D+04  0.531000D-03
  0.123500D+04  0.410800D-02
  0.280800D+03  0.210870D-01
  0.792700D+02  0.818530D-01
  0.255900D+02  0.234817D+00
  0.899700D+01  0.434401D+00
  0.331900D+01  0.346129D+00
  0.905900D+00  0.393780D-01
  0.364300D+00 -0.898300D-02
  0.128500D+00  0.238500D-02
   s    10 1.00
  0.823600D+04 -0.113000D-03
  0.123500D+04 -0.878000D-03
  0.280800D+03 -0.454000D-02
  0.792700D+02 -0.181330D-01
  0.255900D+02 -0.557600D-01
  0.899700D+01 -0.126895D+00
  0.331900D+01 -0.170352D+00
  0.905900D+00  0.140382D+00
  0.364300D+00  0.598684D+00
  0.128500D+00  0.395389D+00
   s     1 1.00
  0.905900D+00  0.100000D+01
   s     1 1.00
  0.364300D+00  0.100000D+01
   p     5 1.00
  0.187100D+02  0.140310D-01
  0.413300D+01  0.868660D-01
  0.120000D+01  0.290216D+00
  0.382700D+00  0.501008D+00
  0.120900D+00  0.343406D+00
   p     1 1.00
  0.382700D+00  0.100000D+01
   p     1 1.00
  0.120900D+00  0.100000D+01
   d     1 1.00
  0.109700D+01  0.100000D+01
   d     1 1.00
  0.318000D+00  0.100000D+01
   f     1 1.00
  0.761000D+00  0.100000D+01
  
  8  0
   s     4 1.00
  0.130100D+02  0.196850D-01
  0.196200D+01  0.137977D+00
  0.444600D+00  0.478148D+00
  0.122000D+00  0.501240D+00
   s     1 1.00
  0.122000D+00  0.100000D+01
   p     1 1.00
  0.727000D+00  0.100000D+01
  
  9  0
   s     4 1.00
  0.130100D+02  0.196850D-01
  0.196200D+01  0.137977D+00
  0.444600D+00  0.478148D+00
  0.122000D+00  0.501240D+00
   s     1 1.00
  0.122000D+00  0.100000D+01
   p     1 1.00
  0.727000D+00  0.100000D+01
  
 10  0
   s     4 1.00
  0.130100D+02  0.196850D-01
  0.196200D+01  0.137977D+00
  0.444600D+00  0.478148D+00
  0.122000D+00  0.501240D+00
   s     1 1.00
  0.122000D+00  0.100000D+01
   p     1 1.00
  0.727000D+00  0.100000D+01
  
 11  0
   s     4 1.00
  0.130100D+02  0.196850D-01
  0.196200D+01  0.137977D+00
  0.444600D+00  0.478148D+00
  0.122000D+00  0.501240D+00
   s     1 1.00
  0.122000D+00  0.100000D+01
   p     1 1.00
  0.727000D+00  0.100000D+01
  
 12  0
   s     4 1.00
  0.130100D+02  0.196850D-01
  0.196200D+01  0.137977D+00
  0.444600D+00  0.478148D+00
  0.122000D+00  0.501240D+00
   s     1 1.00
  0.122000D+00  0.100000D+01
   p     1 1.00
  0.727000D+00  0.100000D+01
  
 13  0
   s     4 1.00
  0.130100D+02  0.196850D-01
  0.196200D+01  0.137977D+00
  0.444600D+00  0.478148D+00
  0.122000D+00  0.501240D+00
   s     1 1.00
  0.122000D+00  0.100000D+01
   p     1 1.00
  0.727000D+00  0.100000D+01
  
 14  0
   s     4 1.00
  0.130100D+02  0.196850D-01
  0.196200D+01  0.137977D+00
  0.444600D+00  0.478148D+00
  0.122000D+00  0.501240D+00
   s     1 1.00
  0.122000D+00  0.100000D+01
   p     1 1.00
  0.727000D+00  0.100000D+01
  
[MO]
 Sym= __1_A__
 Ene=  0.000000000000000E+000
 Spin= Alpha
 Occup=    2.00000000000000     
                     1  4.502649020122790E-005
                     2  0.998015464001828     
                     3  9.132826389141698E-003
                     4  2.085298191271785E-003
                     5  1.631609971376237E-003
                     6 -1.845457274537333E-006
                     7 -1.733403864141243E-006
                     8  4.375005818652024E-003
                     9  6.622855796770576E-008
                    10  7.463353144618260E-008
                    11 -1.642735633959662E-004
                    12  1.147849681082926E-007
                    13  7.901875247455267E-008
                    14 -2.776212866802011E-004
                    15  2.351138930766476E-004
                    16 -1.682658084568618E-007
                    17 -1.031495843184020E-007
                    18 -6.262858958007461E-005
                    19  7.612015683525921E-005
                    20  1.271941862464628E-004
                    21 -1.499052043315691E-007
                    22 -4.092989058280721E-007
                    23  2.843779344533998E-004
                    24 -4.385413030280742E-004
                    25 -1.837211309413659E-004
                    26 -1.814449748804204E-007
                    27 -2.475620496937342E-007
                    28  5.982686029321814E-005
                    29 -4.953370381068493E-005
                    30  5.553553788430227E-008
                    31 -4.276844465161863E-009
                    32 -2.971495343378462E-004
                    33  2.748042971843689E-003
                    34  1.433576046191187E-004
                    35 -3.709769856756014E-004
                    36  2.886188133135826E-006
                    37  2.708892124626357E-006
                    38 -6.829029837750090E-003
                    39 -7.859494773594044E-008
                    40 -1.295718181274107E-007
                    41  2.004417320846222E-004
                    42 -1.826606242094177E-006
                    43 -1.650994219777956E-006
                    44  4.299285528113023E-003
                    45  3.467906291225404E-004
                    46 -2.078423108563188E-007
                    47 -2.804136871556966E-007
                    48  1.214110251232529E-004
                    49 -1.297994491500447E-005
                    50  2.549611804941072E-004
                    51 -2.560978125578384E-007
                    52 -1.656097440540327E-007
                    53 -2.625035677661048E-004
                    54  1.073773476115988E-004
                    55 -9.862677628633971E-005
                    56 -7.115187140989197E-008
                    57 -1.518641064080421E-007
                    58  6.470050208008484E-005
                    59 -2.066383978683395E-005
                    60  4.337128072961002E-008
                    61 -2.424162074739575E-008
                    62 -2.065487867976067E-004
                    63 -1.653699732658599E-003
                    64  3.365372423934640E-005
                    65  6.639705524793363E-004
                    66 -2.190694093623488E-005
                    67 -8.396563706808878E-004
                    68  1.016243686010020E-003
                    69  5.321860555650344E-005
                    70  1.629800750404718E-005
                    71  4.686089620583760E-004
                    72  3.490984320107613E-005
                    73 -6.472992095030600E-004
                    74 -1.917998145209590E-004
                    75  8.904765347736790E-005
                    76  2.635311333617981E-006
                    77 -1.085328954951082E-005
                    78  3.583666208905114E-005
                    79 -2.687845045651276E-007
                    80  1.759638874090308E-005
                    81 -3.326544586909837E-005
                    82  1.302618355476448E-004
                    83 -9.534518287260380E-006
                    84  3.156640633418988E-005
                    85 -8.798924560450992E-005
                    86  4.417442580235493E-006
                    87 -2.008837514378031E-005
                    88  2.160703577594156E-005
                    89 -7.087107941106289E-006
                    90  2.030505603005053E-006
                    91  1.664016860616384E-005
                    92 -2.065126257230145E-004
                    93 -1.653554549510394E-003
                    94  3.381822548702540E-005
                    95  6.634318201085209E-004
                    96  2.104404047037632E-005
                    97  8.388743901551095E-004
                    98  1.017031433101605E-003
                    99 -5.360538242726892E-005
                   100 -1.680627558789938E-005
                   101  4.679268831498523E-004
                   102 -3.472087152629604E-005
                   103  6.468788049618185E-004
                   104 -1.911573129265191E-004
                   105  8.902604798887952E-005
                   106 -2.735321882136666E-006
                   107  1.072017389398304E-005
                   108  3.584939201580614E-005
                   109 -2.759465024023123E-007
                   110  1.702880951621218E-005
                   111  3.326553517189149E-005
                   112 -1.303584716720762E-004
                   113 -9.753831458669338E-006
                   114  3.164723756086943E-005
                   115 -8.795121154044796E-005
                   116 -4.578633960166312E-006
                   117  1.988421202821654E-005
                   118  2.161962444177920E-005
                   119 -7.128062572308049E-006
                   120 -2.001581122254025E-006
                   121 -1.665281085131588E-005
                   122 -1.524726371207971E-004
                   123 -1.829545807182360E-005
                   124  1.026923408428006E-004
                   125  1.634461527978528E-004
                   126 -3.362520162002922E-005
                   127  4.148204666978810E-005
                   128 -7.762236584438539E-004
                   129  4.856525415318755E-008
                   130  2.500020879087586E-005
                   131  3.108833226124172E-004
                   132  1.840874955965303E-005
                   133 -1.195662624701443E-004
                   134  6.760286833175998E-004
                   135 -1.354822150999874E-005
                   136  2.056361192941493E-006
                   137  2.700455999912957E-006
                   138  2.064753606259136E-007
                   139  1.654776535945867E-006
                   140 -1.746821672109369E-004
                   141 -1.789396033240241E-005
                   142  1.443052923061902E-004
                   143  1.942615619219307E-005
                   144 -9.100192024688921E-006
                   145 -3.522521223811939E-005
                   146  2.288064255047348E-007
                   147 -6.513715799433572E-007
                   148 -8.643578870853245E-006
                   149 -1.519258894917600E-006
                   150 -7.930033654502183E-007
                   151 -3.035198420105944E-006
                   152 -1.529464646798811E-004
                   153 -1.997058788103782E-005
                   154  1.022122549093976E-004
                   155  1.664657732500217E-004
                   156  3.427360290025982E-005
                   157 -4.081324280708837E-005
                   158 -7.761970041889415E-004
                   159 -2.806057491385202E-007
                   160 -2.560648490993623E-005
                   161  3.105137708955702E-004
                   162 -1.900996111408317E-005
                   163  1.195765054780871E-004
                   164  6.762794841241592E-004
                   165 -1.350111192235687E-005
                   166 -2.036581652328929E-006
                   167 -2.688817189029418E-006
                   168  1.542276980256448E-007
                   169  1.653583767759439E-006
                   170 -1.747213541265160E-004
                   171  1.816224938896342E-005
                   172 -1.443478174034017E-004
                   173  1.925035444700803E-005
                   174 -8.992407775259461E-006
                   175 -3.513867644797583E-005
                   176 -3.125155948503169E-007
                   177  5.993928450648749E-007
                   178 -8.691776803339227E-006
                   179 -1.520193412625094E-006
                   180  7.857335391036682E-007
                   181  3.054754572466882E-006
                   182 -1.280506460173836E-004
                   183 -3.447146635422807E-004
                   184  3.035428637981088E-005
                   185  1.830345823048231E-004
                   186  1.182151735000539E-008
                   187  1.049046581787410E-007
                   188 -4.473740509141202E-005
                   189  1.606197690054482E-008
                   190 -4.441817439790307E-007
                   191  1.655814301218780E-005
                   192  8.135731587610931E-010
                   193 -4.468377255102817E-008
                   194  7.918209394103845E-006
                   195  1.849427839792059E-005
                   196 -1.106988491918749E-008
                   197  8.756077061244493E-009
                   198  8.040702884584728E-006
                   199  8.624637853185818E-007
                   200  5.217757418128035E-005
                   201 -3.149197146066714E-008
                   202  1.590085389691116E-007
                   203  4.008743034026466E-005
                   204 -5.780779286002810E-006
                   205 -1.161769766701704E-005
                   206 -8.077216420146637E-009
                   207 -1.970683600656314E-008
                   208  3.278385980794822E-006
                   209  1.992558116977772E-006
                   210  4.035276642858967E-009
                   211  2.474766151081661E-008
                   212  3.933395591158045E-003
                   213 -2.352673907265975E-003
                   214  2.607020779863743E-004
                   215  3.957248897134884E-004
                   216  3.672697560764314E-004
                   217  3.933368905346978E-003
                   218 -2.352663055618816E-003
                   219 -2.610115742099388E-004
                   220 -3.960127341221267E-004
                   221  3.667376917866776E-004
                   222 -6.281892306501633E-004
                   223 -1.997436998086012E-004
                   224  2.609582229400944E-006
                   225 -2.325758702259014E-005
                   226 -4.238316371446560E-005
                   227 -6.282574021968206E-004
                   228 -1.993718772955697E-004
                   229 -2.573564699841983E-006
                   230  2.327296562606218E-005
                   231 -4.239344576185856E-005
                   232 -2.309856867643335E-004
                   233 -3.646755259577958E-004
                   234 -2.535122181162582E-006
                   235 -7.677765895224565E-006
                   236  3.739524420198987E-006
                   237 -2.310254210404474E-004
                   238 -3.648349784045640E-004
                   239  2.528983434173635E-006
                   240  7.720729193770396E-006
                   241  3.795074376892426E-006
                   242  7.020535186691769E-005
                   243 -9.535394974512911E-005
                   244 -6.199921765571379E-009
                   245 -2.732467916159508E-008
                   246  1.506950730681679E-005
 Sym= __2_A__
 Ene=  0.000000000000000E+000
 Spin= Alpha
 Occup=    2.00000000000000     
                     1 -3.579826992129543E-005
                     2 -1.724536658064347E-004
                     3  2.173904975518093E-003
                     4  8.636667451050503E-005
                     5  1.253338217512639E-003
                     6 -1.160375557928593E-006
                     7 -1.073472066963042E-006
                     8  2.731531948287530E-003
                     9  3.103047835360615E-008
                    10  2.438701350152086E-008
                    11 -6.915938751839118E-005
                    12  1.576804736420961E-007
                    13  1.492503460135746E-007
                    14 -3.641804752340249E-004
                    15  4.531852778700386E-005
                    16 -2.573371294415065E-008
                    17 -5.993520122120153E-008
                    18  4.456826894345920E-005
                    19 -2.805510616677060E-005
                    20 -2.229771742362365E-004
                    21  1.357974804978169E-007
                    22  2.942594913748661E-007
                    23 -2.038390387814818E-004
                    24  1.458431912780146E-004
                    25  1.897983081369314E-004
                    26  1.628625858831800E-007
                    27  1.758234834199378E-007
                    28 -2.240556422779706E-005
                    29 -3.175312973871212E-005
                    30  3.766820785547044E-009
                    31  2.803306055565913E-008
                    32   1.00105535157753     
                    33  9.132178073521711E-003
                    34  2.613715615465200E-003
                    35 -7.786155616404425E-003
                    36  1.633821362856681E-006
                    37  1.515292987330014E-006
                    38 -3.859476142977743E-003
                    39 -4.721034090640540E-007
                    40 -4.367558918642169E-007
                    41  1.114008342657735E-003
                    42 -1.783362917289977E-006
                    43 -1.733425739208272E-006
                    44  4.224000387883907E-003
                    45  4.211906467247340E-004
                    46 -4.772961552830808E-007
                    47 -1.199651590105023E-007
                    48 -4.138109661375280E-004
                    49  1.693449084622845E-005
                    50  4.720142103706392E-004
                    51  1.337935531462394E-008
                    52 -6.591366014122287E-007
                    53  8.637058946247984E-004
                    54 -1.814379006936044E-005
                    55  3.590674649862133E-004
                    56  2.496945966680212E-007
                    57  4.759031797988504E-007
                    58 -1.946070781135439E-004
                    59  1.312757510744552E-005
                    60 -1.070833088539695E-007
                    61  8.881288603835083E-008
                    62  8.273003248276253E-003
                    63 -1.980893143318667E-003
                    64 -2.714130971844998E-004
                    65  2.973178710889361E-003
                    66  6.642179671877642E-006
                    67  1.340298859760439E-004
                    68 -4.856867797019255E-005
                    69 -3.840789723733152E-005
                    70  5.625819272979289E-004
                    71  6.903878315816618E-005
                    72  7.644320009325471E-005
                    73 -1.999122109665516E-003
                    74  9.955248616458904E-005
                    75 -1.752539122427804E-005
                    76  1.713467641800480E-006
                    77  1.640942769250509E-005
                    78  2.907430194460108E-005
                    79  2.422993647667443E-006
                    80  7.576543349276329E-004
                    81  2.957330842692799E-005
                    82 -4.180717811324206E-004
                    83 -1.856041198693230E-005
                    84 -1.872315846019845E-005
                    85  6.659673196689600E-005
                    86 -9.984125442713174E-007
                    87  3.897309533710858E-005
                    88 -1.222249740885117E-004
                    89  7.122098106396191E-007
                    90  2.828394811129312E-006
                    91  4.960630018516930E-005
                    92  8.272977150428020E-003
                    93 -1.980976339492515E-003
                    94 -2.714570055061420E-004
                    95  2.973379953301943E-003
                    96 -6.600265509131620E-006
                    97 -1.339926141416349E-004
                    98 -4.870410602913790E-005
                    99  3.834773050411331E-005
                   100 -5.626337885174476E-004
                   101  6.876376220131944E-005
                   102 -7.653561069802882E-005
                   103  1.999174453707293E-003
                   104  1.009061361932495E-004
                   105 -1.753624133786447E-005
                   106 -1.661471828645270E-006
                   107 -1.641251091477492E-005
                   108  2.906126381441788E-005
                   109  2.438306031502894E-006
                   110  7.582467633196997E-004
                   111 -3.071782174336533E-005
                   112  4.170838980677560E-004
                   113 -1.818597249976920E-005
                   114 -1.905203532639050E-005
                   115  6.665554915798073E-005
                   116  9.732231409966041E-007
                   117 -3.868871830003275E-005
                   118 -1.223172194073952E-004
                   119  7.089175641300332E-007
                   120 -2.955537343174884E-006
                   121 -4.948767526545126E-005
                   122 -2.163294235337103E-004
                   123 -7.488635580530054E-004
                   124  2.255227211850625E-004
                   125 -1.341474224546598E-004
                   126 -6.022621517851756E-006
                   127 -2.493218941726852E-005
                   128 -2.361670412879912E-004
                   129  1.274737342989128E-005
                   130  4.148340518667591E-006
                   131  5.471225684610625E-004
                   132 -1.279848622688345E-005
                   133  3.093809278110962E-004
                   134  7.225103852458940E-004
                   135 -1.675711550374880E-005
                   136 -3.051345192100522E-006
                   137  5.040007849240130E-005
                   138  1.448762669093514E-005
                   139  2.255507017124703E-006
                   140 -2.976323492846448E-004
                   141  2.741641160815807E-006
                   142 -2.269777411286257E-004
                   143 -1.843695976342560E-005
                   144 -9.951659376484818E-006
                   145 -1.885947352870974E-006
                   146  3.597565390590473E-006
                   147 -3.603821397280540E-005
                   148 -3.692462038940350E-005
                   149 -3.340548813502926E-006
                   150  8.669485527958522E-007
                   151 -6.417984872647942E-006
                   152 -2.160409181945674E-004
                   153 -7.479054186893283E-004
                   154  2.255914740794595E-004
                   155 -1.351799823059174E-004
                   156  6.223501763588449E-006
                   157  2.510813553160663E-005
                   158 -2.361460028055791E-004
                   159 -1.321483513214081E-005
                   160 -4.529753075241711E-006