[Molden Format]
[Atoms] AU
  N     1    7    -0.0985792400   -4.3469516800    0.0000000000        
  C     2    6     0.0280702500   -1.8274634900    0.0000000000        
  C     3    6    -2.2973407900   -0.4276905900    0.0000000000        
  C     4    6     2.3344894000   -0.4028246200    0.0000000000        
  C     5    6    -2.2791324200    2.1563700800    0.0000000000        
  C     6    6     2.2977552300    2.1828850300    0.0000000000        
  C     7    6     0.0027151000    3.4908729500    0.0000000000        
  H     8    1    -3.0886924000   -6.3346054500    0.0000000000        
  H     9    1     1.6912467200   -5.0973417900    0.0000000000        
  H    10    1    -4.0320508300   -1.4696175800    0.0000000000        
  H    11    1     4.0978721300   -1.4069504400    0.0000000000        
  H    12    1    -4.0321647400    3.1785048600    0.0000000000        
  H    13    1     4.0416765000    3.2204118800    0.0000000000        
  H    14    1    -0.0075636900    5.5185342100    0.0000000000        
[5D]
[7F]
[GTO]
  1  0
   s    12 1.00
  0.114200D+05  0.172695D-04
  0.171200D+04  0.134411D-03
  0.389300D+03  0.694561D-03
  0.110000D+03  0.278531D-02
  0.355700D+02  0.863457D-02
  0.125400D+02  0.199805D-01
  0.464400D+01  0.262908D-01
  0.129300D+01 -0.243845D-01
  0.511800D+00 -0.924934D-01
  0.178700D+00 -0.339683D+00
  0.246240D-01  0.345111D+00
  0.112530D-01  0.752750D+00
   s    10 1.00
  0.114200D+05  0.523000D-03
  0.171200D+04  0.404500D-02
  0.389300D+03  0.207750D-01
  0.110000D+03  0.807269D-01
  0.355700D+02  0.233074D+00
  0.125400D+02  0.433501D+00
  0.464400D+01  0.347472D+00
  0.129300D+01  0.412620D-01
  0.511800D+00 -0.850799D-02
  0.178700D+00  0.238400D-02
   s    10 1.00
  0.114200D+05 -0.115000D-03
  0.171200D+04 -0.895000D-03
  0.389300D+03 -0.462400D-02
  0.110000D+03 -0.185280D-01
  0.355700D+02 -0.573390D-01
  0.125400D+02 -0.132076D+00
  0.464400D+01 -0.172510D+00
  0.129300D+01  0.151814D+00
  0.511800D+00  0.599944D+00
  0.178700D+00  0.387462D+00
   s     1 1.00
  0.129300D+01  0.100000D+01
   s     1 1.00
  0.178700D+00  0.100000D+01
   p     5 1.00
  0.266300D+02  0.146700D-01
  0.594800D+01  0.917640D-01
  0.174200D+01  0.298683D+00
  0.555000D+00  0.498487D+00
  0.172500D+00  0.337023D+00
   p     1 1.00
  0.174200D+01  0.100000D+01
   p     1 1.00
  0.555000D+00  0.100000D+01
   d     1 1.00
  0.165400D+01  0.100000D+01
   d     1 1.00
  0.469000D+00  0.100000D+01
   f     1 1.00
  0.109300D+01  0.100000D+01
  
  2  0
   s    10 1.00
  0.823600D+04  0.531000D-03
  0.123500D+04  0.410800D-02
  0.280800D+03  0.210870D-01
  0.792700D+02  0.818530D-01
  0.255900D+02  0.234817D+00
  0.899700D+01  0.434401D+00
  0.331900D+01  0.346129D+00
  0.905900D+00  0.393780D-01
  0.364300D+00 -0.898300D-02
  0.128500D+00  0.238500D-02
   s    10 1.00
  0.823600D+04 -0.113000D-03
  0.123500D+04 -0.878000D-03
  0.280800D+03 -0.454000D-02
  0.792700D+02 -0.181330D-01
  0.255900D+02 -0.557600D-01
  0.899700D+01 -0.126895D+00
  0.331900D+01 -0.170352D+00
  0.905900D+00  0.140382D+00
  0.364300D+00  0.598684D+00
  0.128500D+00  0.395389D+00
   s     1 1.00
  0.905900D+00  0.100000D+01
   s     1 1.00
  0.364300D+00  0.100000D+01
   p     5 1.00
  0.187100D+02  0.140310D-01
  0.413300D+01  0.868660D-01
  0.120000D+01  0.290216D+00
  0.382700D+00  0.501008D+00
  0.120900D+00  0.343406D+00
   p     1 1.00
  0.382700D+00  0.100000D+01
   p     1 1.00
  0.120900D+00  0.100000D+01
   d     1 1.00
  0.109700D+01  0.100000D+01
   d     1 1.00
  0.318000D+00  0.100000D+01
   f     1 1.00
  0.761000D+00  0.100000D+01
  
  3  0
   s    10 1.00
  0.823600D+04  0.531000D-03
  0.123500D+04  0.410800D-02
  0.280800D+03  0.210870D-01
  0.792700D+02  0.818530D-01
  0.255900D+02  0.234817D+00
  0.899700D+01  0.434401D+00
  0.331900D+01  0.346129D+00
  0.905900D+00  0.393780D-01
  0.364300D+00 -0.898300D-02
  0.128500D+00  0.238500D-02
   s    10 1.00
  0.823600D+04 -0.113000D-03
  0.123500D+04 -0.878000D-03
  0.280800D+03 -0.454000D-02
  0.792700D+02 -0.181330D-01
  0.255900D+02 -0.557600D-01
  0.899700D+01 -0.126895D+00
  0.331900D+01 -0.170352D+00
  0.905900D+00  0.140382D+00
  0.364300D+00  0.598684D+00
  0.128500D+00  0.395389D+00
   s     1 1.00
  0.905900D+00  0.100000D+01
   s     1 1.00
  0.364300D+00  0.100000D+01
   p     5 1.00
  0.187100D+02  0.140310D-01
  0.413300D+01  0.868660D-01
  0.120000D+01  0.290216D+00
  0.382700D+00  0.501008D+00
  0.120900D+00  0.343406D+00
   p     1 1.00
  0.382700D+00  0.100000D+01
   p     1 1.00
  0.120900D+00  0.100000D+01
   d     1 1.00
  0.109700D+01  0.100000D+01
   d     1 1.00
  0.318000D+00  0.100000D+01
   f     1 1.00
  0.761000D+00  0.100000D+01
  
  4  0
   s    10 1.00
  0.823600D+04  0.531000D-03
  0.123500D+04  0.410800D-02
  0.280800D+03  0.210870D-01
  0.792700D+02  0.818530D-01
  0.255900D+02  0.234817D+00
  0.899700D+01  0.434401D+00
  0.331900D+01  0.346129D+00
  0.905900D+00  0.393780D-01
  0.364300D+00 -0.898300D-02
  0.128500D+00  0.238500D-02
   s    10 1.00
  0.823600D+04 -0.113000D-03
  0.123500D+04 -0.878000D-03
  0.280800D+03 -0.454000D-02
  0.792700D+02 -0.181330D-01
  0.255900D+02 -0.557600D-01
  0.899700D+01 -0.126895D+00
  0.331900D+01 -0.170352D+00
  0.905900D+00  0.140382D+00
  0.364300D+00  0.598684D+00
  0.128500D+00  0.395389D+00
   s     1 1.00
  0.905900D+00  0.100000D+01
   s     1 1.00
  0.364300D+00  0.100000D+01
   p     5 1.00
  0.187100D+02  0.140310D-01
  0.413300D+01  0.868660D-01
  0.120000D+01  0.290216D+00
  0.382700D+00  0.501008D+00
  0.120900D+00  0.343406D+00
   p     1 1.00
  0.382700D+00  0.100000D+01
   p     1 1.00
  0.120900D+00  0.100000D+01
   d     1 1.00
  0.109700D+01  0.100000D+01
   d     1 1.00
  0.318000D+00  0.100000D+01
   f     1 1.00
  0.761000D+00  0.100000D+01
  
  5  0
   s    10 1.00
  0.823600D+04  0.531000D-03
  0.123500D+04  0.410800D-02
  0.280800D+03  0.210870D-01
  0.792700D+02  0.818530D-01
  0.255900D+02  0.234817D+00
  0.899700D+01  0.434401D+00
  0.331900D+01  0.346129D+00
  0.905900D+00  0.393780D-01
  0.364300D+00 -0.898300D-02
  0.128500D+00  0.238500D-02
   s    10 1.00
  0.823600D+04 -0.113000D-03
  0.123500D+04 -0.878000D-03
  0.280800D+03 -0.454000D-02
  0.792700D+02 -0.181330D-01
  0.255900D+02 -0.557600D-01
  0.899700D+01 -0.126895D+00
  0.331900D+01 -0.170352D+00
  0.905900D+00  0.140382D+00
  0.364300D+00  0.598684D+00
  0.128500D+00  0.395389D+00
   s     1 1.00
  0.905900D+00  0.100000D+01
   s     1 1.00
  0.364300D+00  0.100000D+01
   p     5 1.00
  0.187100D+02  0.140310D-01
  0.413300D+01  0.868660D-01
  0.120000D+01  0.290216D+00
  0.382700D+00  0.501008D+00
  0.120900D+00  0.343406D+00
   p     1 1.00
  0.382700D+00  0.100000D+01
   p     1 1.00
  0.120900D+00  0.100000D+01
   d     1 1.00
  0.109700D+01  0.100000D+01
   d     1 1.00
  0.318000D+00  0.100000D+01
   f     1 1.00
  0.761000D+00  0.100000D+01
  
  6  0
   s    10 1.00
  0.823600D+04  0.531000D-03
  0.123500D+04  0.410800D-02
  0.280800D+03  0.210870D-01
  0.792700D+02  0.818530D-01
  0.255900D+02  0.234817D+00
  0.899700D+01  0.434401D+00
  0.331900D+01  0.346129D+00
  0.905900D+00  0.393780D-01
  0.364300D+00 -0.898300D-02
  0.128500D+00  0.238500D-02
   s    10 1.00
  0.823600D+04 -0.113000D-03
  0.123500D+04 -0.878000D-03
  0.280800D+03 -0.454000D-02
  0.792700D+02 -0.181330D-01
  0.255900D+02 -0.557600D-01
  0.899700D+01 -0.126895D+00
  0.331900D+01 -0.170352D+00
  0.905900D+00  0.140382D+00
  0.364300D+00  0.598684D+00
  0.128500D+00  0.395389D+00
   s     1 1.00
  0.905900D+00  0.100000D+01
   s     1 1.00
  0.364300D+00  0.100000D+01
   p     5 1.00
  0.187100D+02  0.140310D-01
  0.413300D+01  0.868660D-01
  0.120000D+01  0.290216D+00
  0.382700D+00  0.501008D+00
  0.120900D+00  0.343406D+00
   p     1 1.00
  0.382700D+00  0.100000D+01
   p     1 1.00
  0.120900D+00  0.100000D+01
   d     1 1.00
  0.109700D+01  0.100000D+01
   d     1 1.00
  0.318000D+00  0.100000D+01
   f     1 1.00
  0.761000D+00  0.100000D+01
  
  7  0
   s    10 1.00
  0.823600D+04  0.531000D-03
  0.123500D+04  0.410800D-02
  0.280800D+03  0.210870D-01
  0.792700D+02  0.818530D-01
  0.255900D+02  0.234817D+00
  0.899700D+01  0.434401D+00
  0.331900D+01  0.346129D+00
  0.905900D+00  0.393780D-01
  0.364300D+00 -0.898300D-02
  0.128500D+00  0.238500D-02
   s    10 1.00
  0.823600D+04 -0.113000D-03
  0.123500D+04 -0.878000D-03
  0.280800D+03 -0.454000D-02
  0.792700D+02 -0.181330D-01
  0.255900D+02 -0.557600D-01
  0.899700D+01 -0.126895D+00
  0.331900D+01 -0.170352D+00
  0.905900D+00  0.140382D+00
  0.364300D+00  0.598684D+00
  0.128500D+00  0.395389D+00
   s     1 1.00
  0.905900D+00  0.100000D+01
   s     1 1.00
  0.364300D+00  0.100000D+01
   p     5 1.00
  0.187100D+02  0.140310D-01
  0.413300D+01  0.868660D-01
  0.120000D+01  0.290216D+00
  0.382700D+00  0.501008D+00
  0.120900D+00  0.343406D+00
   p     1 1.00
  0.382700D+00  0.100000D+01
   p     1 1.00
  0.120900D+00  0.100000D+01
   d     1 1.00
  0.109700D+01  0.100000D+01
   d     1 1.00
  0.318000D+00  0.100000D+01
   f     1 1.00
  0.761000D+00  0.100000D+01
  
  8  0
   s     4 1.00
  0.130100D+02  0.196850D-01
  0.196200D+01  0.137977D+00
  0.444600D+00  0.478148D+00
  0.122000D+00  0.501240D+00
   s     1 1.00
  0.122000D+00  0.100000D+01
   p     1 1.00
  0.727000D+00  0.100000D+01
  
  9  0
   s     4 1.00
  0.130100D+02  0.196850D-01
  0.196200D+01  0.137977D+00
  0.444600D+00  0.478148D+00
  0.122000D+00  0.501240D+00
   s     1 1.00
  0.122000D+00  0.100000D+01
   p     1 1.00
  0.727000D+00  0.100000D+01
  
 10  0
   s     4 1.00
  0.130100D+02  0.196850D-01
  0.196200D+01  0.137977D+00
  0.444600D+00  0.478148D+00
  0.122000D+00  0.501240D+00
   s     1 1.00
  0.122000D+00  0.100000D+01
   p     1 1.00
  0.727000D+00  0.100000D+01
  
 11  0
   s     4 1.00
  0.130100D+02  0.196850D-01
  0.196200D+01  0.137977D+00
  0.444600D+00  0.478148D+00
  0.122000D+00  0.501240D+00
   s     1 1.00
  0.122000D+00  0.100000D+01
   p     1 1.00
  0.727000D+00  0.100000D+01
  
 12  0
   s     4 1.00
  0.130100D+02  0.196850D-01
  0.196200D+01  0.137977D+00
  0.444600D+00  0.478148D+00
  0.122000D+00  0.501240D+00
   s     1 1.00
  0.122000D+00  0.100000D+01
   p     1 1.00
  0.727000D+00  0.100000D+01
  
 13  0
   s     4 1.00
  0.130100D+02  0.196850D-01
  0.196200D+01  0.137977D+00
  0.444600D+00  0.478148D+00
  0.122000D+00  0.501240D+00
   s     1 1.00
  0.122000D+00  0.100000D+01
   p     1 1.00
  0.727000D+00  0.100000D+01
  
 14  0
   s     4 1.00
  0.130100D+02  0.196850D-01
  0.196200D+01  0.137977D+00
  0.444600D+00  0.478148D+00
  0.122000D+00  0.501240D+00
   s     1 1.00
  0.122000D+00  0.100000D+01
   p     1 1.00
  0.727000D+00  0.100000D+01
  
[MO]
 Sym= __1_A'_
 Ene=   1.00000000000000     
 Spin= Alpha
 Occup=    1.00000000000000     
                     1  8.123787907551877E-005
                     2  0.998324257808037     
                     3  2.761492196168227E-003
                     4  1.710633782966735E-003
                     5  5.404904178631402E-003
                     6  3.527207792117371E-003
                     7  6.229254100682203E-003
                     8  0.000000000000000E+000
                     9 -6.085655193227870E-004
                    10 -6.081674315325724E-004
                    11  0.000000000000000E+000
                    12 -2.433480144655704E-003
                    13 -1.632334784671704E-003
                    14  0.000000000000000E+000
                    15 -1.078532411268961E-004
                    16  0.000000000000000E+000
                    17  0.000000000000000E+000
                    18 -1.797542570537859E-004
                    19 -8.734269519057513E-005
                    20  7.663586082129532E-005
                    21  0.000000000000000E+000
                    22  0.000000000000000E+000
                    23 -3.171008059873742E-004
                    24  5.854061113094467E-004
                    25  0.000000000000000E+000
                    26 -1.524531529204458E-005
                    27 -6.292090832361028E-005
                    28  0.000000000000000E+000
                    29  0.000000000000000E+000
                    30  3.703714243290979E-005
                    31 -1.541237440908609E-004
                    32 -4.054239418862646E-004
                    33  1.147154336160695E-003
                    34  3.330694194970948E-004
                    35 -3.794708346228776E-004
                    36 -3.461290479669160E-004
                    37 -4.987256883932078E-003
                    38  0.000000000000000E+000
                    39  4.766599963010083E-004
                    40  5.290208857051213E-004
                    41  0.000000000000000E+000
                    42 -2.195201603774040E-003
                    43  5.517579061100590E-003
                    44  0.000000000000000E+000
                    45 -1.595032073274407E-005
                    46  0.000000000000000E+000
                    47  0.000000000000000E+000
                    48 -2.281771264788992E-004
                    49 -7.938652232376827E-006
                    50 -2.485524092495725E-004
                    51  0.000000000000000E+000
                    52  0.000000000000000E+000
                    53  4.874779032539228E-005
                    54  8.730728755850342E-004
                    55  0.000000000000000E+000
                    56 -9.453482430502824E-006
                    57 -5.831232153821858E-005
                    58  0.000000000000000E+000
                    59  0.000000000000000E+000
                    60  2.996804252393459E-005
                    61 -1.204303318833382E-004
                    62 -5.033509403463884E-004
                    63 -2.363455125449711E-003
                    64 -8.829952012596951E-005
                    65  2.170010464491250E-003
                    66 -6.854502000240315E-004
                    67  5.572050730164694E-004
                    68  0.000000000000000E+000
                    69  4.414844634036235E-004
                    70  8.495209579625498E-004
                    71  0.000000000000000E+000
                    72 -1.918448260848787E-003
                    73  8.950379131630090E-004
                    74  0.000000000000000E+000
                    75 -4.116781767794319E-005
                    76  0.000000000000000E+000
                    77  0.000000000000000E+000
                    78 -8.624490906043437E-005
                    79 -2.741377609167330E-005
                    80 -1.249957384600890E-004
                    81  0.000000000000000E+000
                    82  0.000000000000000E+000
                    83  5.575108611565404E-005
                    84  8.434758622949787E-005
                    85  0.000000000000000E+000
                    86  1.355469046892337E-005
                    87 -5.048083365020466E-005
                    88  0.000000000000000E+000
                    89  0.000000000000000E+000
                    90 -1.786023757761919E-005
                    91 -1.525459348778129E-004
                    92 -1.772022401168568E-004
                    93 -1.257230108616426E-003
                    94  2.110465481664538E-004
                    95 -2.158591235619480E-004
                    96  6.163518223820494E-004
                    97  7.986550494073404E-004
                    98  0.000000000000000E+000
                    99  4.335704197925236E-004
                   100  3.627404188748859E-004
                   101  0.000000000000000E+000
                   102  4.561743322107246E-004
                   103 -1.844034413931235E-003
                   104  0.000000000000000E+000
                   105  2.499934513467164E-006
                   106  0.000000000000000E+000
                   107  0.000000000000000E+000
                   108 -8.164183906771573E-005
                   109 -2.431816717623550E-005
                   110  1.013569351909101E-004
                   111  0.000000000000000E+000
                   112  0.000000000000000E+000
                   113 -1.910546939522187E-004
                   114 -1.971403306979359E-005
                   115  0.000000000000000E+000
                   116 -2.684962477700289E-005
                   117 -2.614468164125337E-005
                   118  0.000000000000000E+000
                   119  0.000000000000000E+000
                   120 -1.806661610601602E-005
                   121 -2.278867313599615E-005
                   122 -2.548789260081832E-004
                   123 -4.728521662404813E-004
                   124  1.731005472556029E-004
                   125  3.320674014793055E-004
                   126 -1.713502365881494E-005
                   127 -6.110873674923175E-004
                   128  0.000000000000000E+000
                   129  1.922171471344095E-004
                   130  6.450527362662424E-004
                   131  0.000000000000000E+000
                   132  5.859354952976514E-004
                   133  2.171976828691333E-003
                   134  0.000000000000000E+000
                   135  1.317725086611892E-005
                   136  0.000000000000000E+000
                   137  0.000000000000000E+000
                   138  3.871991913320118E-005
                   139  2.077693444515710E-006
                   140  1.938373736747473E-004
                   141  0.000000000000000E+000
                   142  0.000000000000000E+000
                   143  3.926564626074750E-004
                   144  2.490222613782453E-004
                   145  0.000000000000000E+000
                   146 -9.473895921843723E-006
                   147 -6.270583412285963E-005
                   148  0.000000000000000E+000
                   149  0.000000000000000E+000
                   150 -2.035215142104087E-005
                   151 -4.783583391474693E-005
                   152 -1.518684746321675E-004
                   153 -1.398720484103274E-004
                   154  5.372584580047177E-005
                   155  2.254187707156156E-004
                   156 -3.350120126308141E-005
                   157 -5.527871076796066E-004
                   158  0.000000000000000E+000
                   159  4.702327790516756E-005
                   160  5.978370775478647E-005
                   161  0.000000000000000E+000
                   162  8.116652837997242E-004
                   163 -4.261411489648560E-004
                   164  0.000000000000000E+000
                   165 -2.140608089180190E-006
                   166  0.000000000000000E+000
                   167  0.000000000000000E+000
                   168 -1.015060101147235E-005
                   169  1.150000454788417E-006
                   170  8.715276294024694E-005
                   171  0.000000000000000E+000
                   172  0.000000000000000E+000
                   173  2.128308237514386E-005
                   174 -3.489026930447989E-006
                   175  0.000000000000000E+000
                   176  1.233612363401400E-006
                   177 -8.768261436795023E-006
                   178  0.000000000000000E+000
                   179  0.000000000000000E+000
                   180 -1.621126496867239E-005
                   181 -1.823038039772507E-005
                   182 -1.604504493533111E-004
                   183 -4.746671005257929E-004
                   184  3.762179888188486E-005
                   185  2.295877263800261E-004
                   186 -4.663778087866262E-005
                   187 -4.239975884557053E-005
                   188  0.000000000000000E+000
                   189  2.588610384723200E-004
                   190  9.062441719923758E-005
                   191  0.000000000000000E+000
                   192  1.487995920117311E-003
                   193 -2.589089870075672E-004
                   194  0.000000000000000E+000
                   195  1.390146524301590E-006
                   196  0.000000000000000E+000
                   197  0.000000000000000E+000
                   198 -1.197047473105805E-005
                   199  3.939577531865686E-006
                   200 -1.214884761195205E-005
                   201  0.000000000000000E+000
                   202  0.000000000000000E+000
                   203 -8.341313978992713E-005
                   204 -2.074396988748946E-004
                   205  0.000000000000000E+000
                   206 -8.995169360201652E-006
                   207 -4.198525045531751E-006
                   208  0.000000000000000E+000
                   209  0.000000000000000E+000
                   210  9.761531136285246E-006
                   211 -7.823341486761790E-006
                   212 -6.019479305524318E-005
                   213  1.051712380433661E-004
                   214  5.367450304122748E-005
                   215  7.090219346564523E-005
                   216  0.000000000000000E+000
                   217  1.752081289347864E-003
                   218 -1.793115031400512E-003
                   219 -4.552093632507313E-004
                   220  1.675471859906487E-004
                   221  0.000000000000000E+000
                   222 -4.988389561597015E-004
                   223 -6.368451251957721E-004
                   224  3.408919417770588E-006
                   225 -7.061441804256443E-005
                   226  0.000000000000000E+000
                   227 -3.019741626753384E-004
                   228 -4.712197510143868E-004
                   229 -1.688053289951672E-005
                   230 -1.577008194663810E-005
                   231  0.000000000000000E+000
                   232 -9.617473691823245E-005
                   233 -4.789875590861198E-004
                   234  1.771203994451437E-006
                   235 -1.366689690521035E-006
                   236  0.000000000000000E+000
                   237 -1.851904112997117E-004
                   238 -3.804509170610440E-004
                   239  4.685402632679753E-006
                   240 -2.632826911958705E-007
                   241  0.000000000000000E+000
                   242  1.043022625853081E-005
                   243  4.588162083912856E-005
                   244 -6.412169605443819E-007
                   245  2.861702124429517E-005
                   246  0.000000000000000E+000
 Sym= __2_A'_
 Ene=   2.00000000000000     
 Spin= Alpha
 Occup=    1.00000000000000     
                     1 -5.020611373175130E-005
                     2 -2.805149423633752E-004
                     3  2.696712158136687E-003
                     4  1.293474568008867E-004
                     5  1.361414495771632E-003
                     6 -3.726897180331017E-004
                     7  2.976629981928213E-003
                     8  0.000000000000000E+000
                     9 -4.167348597129977E-005
                    10 -1.158198143670457E-004
                    11  0.000000000000000E+000
                    12 -4.062349045130540E-005
                    13 -3.636098401074373E-004
                    14  0.000000000000000E+000
                    15  3.168253884860376E-005
                    16  0.000000000000000E+000
                    17  0.000000000000000E+000
                    18 -4.428887874427144E-005
                    19  2.338268729750954E-005
                    20 -1.115504200711769E-004
                    21  0.000000000000000E+000
                    22  0.000000000000000E+000
                    23  1.234534097450440E-004
                    24 -1.444712444688425E-004
                    25  0.000000000000000E+000
                    26 -1.720305393779677E-005
                    27  9.322218313476625E-005
                    28  0.000000000000000E+000
                    29  0.000000000000000E+000
                    30 -6.573521174529572E-005
                    31  1.424678201419473E-004
                    32   1.00101865373759     
                    33  9.275238940901901E-003
                    34  2.685543813358512E-003
                    35 -8.050670197749412E-003
                    36 -2.134123132393035E-005
                    37 -3.277630591807468E-003
                    38  0.000000000000000E+000
                    39 -1.973105659878030E-004
                    40  1.906662437451698E-004
                    41  0.000000000000000E+000
                    42 -1.452421991880144E-004
                    43  4.103385578742628E-003
                    44  0.000000000000000E+000
                    45 -5.575823678538263E-004
                    46  0.000000000000000E+000
                    47  0.000000000000000E+000
                    48 -2.128190809929286E-004
                    49  4.393561092753518E-005
                    50  5.278592305958867E-004
                    51  0.000000000000000E+000
                    52  0.000000000000000E+000
                    53 -6.685240108236800E-004
                    54 -3.876436178413296E-004
                    55  0.000000000000000E+000
                    56  1.226204001665579E-005
                    57  9.842301241766403E-005
                    58  0.000000000000000E+000
                    59  0.000000000000000E+000
                    60 -3.446240949046055E-005
                    61  3.940222828062025E-004
                    62  8.931522869359037E-003
                    63 -2.076125574307665E-003
                    64 -2.419194702723857E-004
                    65  2.700034536360354E-003
                    66  7.904009650607005E-006
                    67  8.177996548906945E-005
                    68  0.000000000000000E+000
                    69  5.279078236310165E-004
                    70  1.506381205281447E-004
                    71  0.000000000000000E+000
                    72 -2.119796881552108E-003
                    73  2.983973557623871E-004
                    74  0.000000000000000E+000
                    75  3.645910968890874E-005
                    76  0.000000000000000E+000
                    77  0.000000000000000E+000
                    78 -4.192098504366566E-006
                    79  3.820385432136462E-006
                    80 -4.214269328258440E-004
                    81  0.000000000000000E+000
                    82  0.000000000000000E+000
                    83 -6.480643803279242E-004
                    84 -2.408851788839012E-004
                    85  0.000000000000000E+000
                    86  2.737966667604193E-005
                    87 -5.851632570100858E-005
                    88  0.000000000000000E+000
                    89  0.000000000000000E+000
                    90  3.914716212445246E-005
                    91  1.506368056602743E-004
                    92  1.083494789029015E-002
                    93 -2.070661989996114E-003
                    94 -3.136126470800898E-004
                    95  3.209235861386617E-003
                    96  6.394118626253680E-005
                    97  4.242056707396190E-005
                    98  0.000000000000000E+000
                    99 -9.375893452174454E-004
                   100  1.804283675762193E-005
                   101  0.000000000000000E+000
                   102  1.757331841659442E-003
                   103  2.275472372994146E-005
                   104  0.000000000000000E+000
                   105  2.339769432329724E-005
                   106  0.000000000000000E+000
                   107  0.000000000000000E+000
                   108 -2.940106092313136E-006
                   109  1.000512613904084E-005
                   110 -4.230471109173124E-004
                   111  0.000000000000000E+000
                   112  0.000000000000000E+000
                   113 -3.789535976984418E-004
                   114  2.633459216790429E-004
                   115  0.000000000000000E+000
                   116 -2.823832963166433E-005
                   117 -6.992273968126563E-005
                   118  0.000000000000000E+000
                   119  0.000000000000000E+000
                   120 -9.003228862267221E-006
                   121  1.335577186561703E-004
                   122 -1.771698065298481E-004
                   123 -6.920315662132610E-004
                   124  2.283947391852431E-004
                   125 -1.123715118180541E-004
                   126  4.399369882126562E-006
                   127 -3.564213444849538E-004
                   128  0.000000000000000E+000
                   129 -7.917141143107365E-005
                   130  6.094084647198764E-004
                   131  0.000000000000000E+000
                   132  3.737318796518255E-004
                   133  9.124458411430402E-004
                   134  0.000000000000000E+000
                   135  1.792472554673906E-005
                   136  0.000000000000000E+000
                   137  0.000000000000000E+000
                   138  4.655708270791980E-006
                   139  4.324850979329456E-005
                   140  1.309260747282929E-004
                   141  0.000000000000000E+000
                   142  0.000000000000000E+000
                   143  2.500660383542764E-004
                   144 -1.046628595832990E-004
                   145  0.000000000000000E+000
                   146  9.388494638671277E-006
                   147 -3.727251145989516E-005
                   148  0.000000000000000E+000
                   149  0.000000000000000E+000
                   150 -4.496952397852497E-005
                   151  3.696914081003445E-005
                   152 -1.072203705474630E-004
                   153 -6.840993482317907E-004
                   154  2.309114988188842E-004
                   155 -3.698466592468742E-005
                   156 -3.028026775106524E-005
                   157 -3.467234320459463E-004
                   158  0.000000000000000E+000
                   159  1.366064533433797E-004
                   160  5.340568123354515E-004