[Molden Format]
[Atoms] AU
  N     1    7    -0.0985792400   -4.3469516800    0.0000000000        
  C     2    6     0.0280702500   -1.8274634900    0.0000000000        
  C     3    6    -2.2973407900   -0.4276905900    0.0000000000        
  C     4    6     2.3344894000   -0.4028246200    0.0000000000        
  C     5    6    -2.2791324200    2.1563700800    0.0000000000        
  C     6    6     2.2977552300    2.1828850300    0.0000000000        
  C     7    6     0.0027151000    3.4908729500    0.0000000000        
  H     8    1    -3.0886924000   -6.3346054500    0.0000000000        
  H     9    1     1.6912467200   -5.0973417900    0.0000000000        
  H    10    1    -4.0320508300   -1.4696175800    0.0000000000        
  H    11    1     4.0978721300   -1.4069504400    0.0000000000        
  H    12    1    -4.0321647400    3.1785048600    0.0000000000        
  H    13    1     4.0416765000    3.2204118800    0.0000000000        
  H    14    1    -0.0075636900    5.5185342100    0.0000000000        
[5D]
[7F]
[GTO]
  1  0
   s    12 1.00
  0.114200D+05  0.172695D-04
  0.171200D+04  0.134411D-03
  0.389300D+03  0.694561D-03
  0.110000D+03  0.278531D-02
  0.355700D+02  0.863457D-02
  0.125400D+02  0.199805D-01
  0.464400D+01  0.262908D-01
  0.129300D+01 -0.243845D-01
  0.511800D+00 -0.924934D-01
  0.178700D+00 -0.339683D+00
  0.246240D-01  0.345111D+00
  0.112530D-01  0.752750D+00
   s    10 1.00
  0.114200D+05  0.523000D-03
  0.171200D+04  0.404500D-02
  0.389300D+03  0.207750D-01
  0.110000D+03  0.807269D-01
  0.355700D+02  0.233074D+00
  0.125400D+02  0.433501D+00
  0.464400D+01  0.347472D+00
  0.129300D+01  0.412620D-01
  0.511800D+00 -0.850799D-02
  0.178700D+00  0.238400D-02
   s    10 1.00
  0.114200D+05 -0.115000D-03
  0.171200D+04 -0.895000D-03
  0.389300D+03 -0.462400D-02
  0.110000D+03 -0.185280D-01
  0.355700D+02 -0.573390D-01
  0.125400D+02 -0.132076D+00
  0.464400D+01 -0.172510D+00
  0.129300D+01  0.151814D+00
  0.511800D+00  0.599944D+00
  0.178700D+00  0.387462D+00
   s     1 1.00
  0.129300D+01  0.100000D+01
   s     1 1.00
  0.178700D+00  0.100000D+01
   p     5 1.00
  0.266300D+02  0.146700D-01
  0.594800D+01  0.917640D-01
  0.174200D+01  0.298683D+00
  0.555000D+00  0.498487D+00
  0.172500D+00  0.337023D+00
   p     1 1.00
  0.174200D+01  0.100000D+01
   p     1 1.00
  0.555000D+00  0.100000D+01
   d     1 1.00
  0.165400D+01  0.100000D+01
   d     1 1.00
  0.469000D+00  0.100000D+01
   f     1 1.00
  0.109300D+01  0.100000D+01
  
  2  0
   s    10 1.00
  0.823600D+04  0.531000D-03
  0.123500D+04  0.410800D-02
  0.280800D+03  0.210870D-01
  0.792700D+02  0.818530D-01
  0.255900D+02  0.234817D+00
  0.899700D+01  0.434401D+00
  0.331900D+01  0.346129D+00
  0.905900D+00  0.393780D-01
  0.364300D+00 -0.898300D-02
  0.128500D+00  0.238500D-02
   s    10 1.00
  0.823600D+04 -0.113000D-03
  0.123500D+04 -0.878000D-03
  0.280800D+03 -0.454000D-02
  0.792700D+02 -0.181330D-01
  0.255900D+02 -0.557600D-01
  0.899700D+01 -0.126895D+00
  0.331900D+01 -0.170352D+00
  0.905900D+00  0.140382D+00
  0.364300D+00  0.598684D+00
  0.128500D+00  0.395389D+00
   s     1 1.00
  0.905900D+00  0.100000D+01
   s     1 1.00
  0.364300D+00  0.100000D+01
   p     5 1.00
  0.187100D+02  0.140310D-01
  0.413300D+01  0.868660D-01
  0.120000D+01  0.290216D+00
  0.382700D+00  0.501008D+00
  0.120900D+00  0.343406D+00
   p     1 1.00
  0.382700D+00  0.100000D+01
   p     1 1.00
  0.120900D+00  0.100000D+01
   d     1 1.00
  0.109700D+01  0.100000D+01
   d     1 1.00
  0.318000D+00  0.100000D+01
   f     1 1.00
  0.761000D+00  0.100000D+01
  
  3  0
   s    10 1.00
  0.823600D+04  0.531000D-03
  0.123500D+04  0.410800D-02
  0.280800D+03  0.210870D-01
  0.792700D+02  0.818530D-01
  0.255900D+02  0.234817D+00
  0.899700D+01  0.434401D+00
  0.331900D+01  0.346129D+00
  0.905900D+00  0.393780D-01
  0.364300D+00 -0.898300D-02
  0.128500D+00  0.238500D-02
   s    10 1.00
  0.823600D+04 -0.113000D-03
  0.123500D+04 -0.878000D-03
  0.280800D+03 -0.454000D-02
  0.792700D+02 -0.181330D-01
  0.255900D+02 -0.557600D-01
  0.899700D+01 -0.126895D+00
  0.331900D+01 -0.170352D+00
  0.905900D+00  0.140382D+00
  0.364300D+00  0.598684D+00
  0.128500D+00  0.395389D+00
   s     1 1.00
  0.905900D+00  0.100000D+01
   s     1 1.00
  0.364300D+00  0.100000D+01
   p     5 1.00
  0.187100D+02  0.140310D-01
  0.413300D+01  0.868660D-01
  0.120000D+01  0.290216D+00
  0.382700D+00  0.501008D+00
  0.120900D+00  0.343406D+00
   p     1 1.00
  0.382700D+00  0.100000D+01
   p     1 1.00
  0.120900D+00  0.100000D+01
   d     1 1.00
  0.109700D+01  0.100000D+01
   d     1 1.00
  0.318000D+00  0.100000D+01
   f     1 1.00
  0.761000D+00  0.100000D+01
  
  4  0
   s    10 1.00
  0.823600D+04  0.531000D-03
  0.123500D+04  0.410800D-02
  0.280800D+03  0.210870D-01
  0.792700D+02  0.818530D-01
  0.255900D+02  0.234817D+00
  0.899700D+01  0.434401D+00
  0.331900D+01  0.346129D+00
  0.905900D+00  0.393780D-01
  0.364300D+00 -0.898300D-02
  0.128500D+00  0.238500D-02
   s    10 1.00
  0.823600D+04 -0.113000D-03
  0.123500D+04 -0.878000D-03
  0.280800D+03 -0.454000D-02
  0.792700D+02 -0.181330D-01
  0.255900D+02 -0.557600D-01
  0.899700D+01 -0.126895D+00
  0.331900D+01 -0.170352D+00
  0.905900D+00  0.140382D+00
  0.364300D+00  0.598684D+00
  0.128500D+00  0.395389D+00
   s     1 1.00
  0.905900D+00  0.100000D+01
   s     1 1.00
  0.364300D+00  0.100000D+01
   p     5 1.00
  0.187100D+02  0.140310D-01
  0.413300D+01  0.868660D-01
  0.120000D+01  0.290216D+00
  0.382700D+00  0.501008D+00
  0.120900D+00  0.343406D+00
   p     1 1.00
  0.382700D+00  0.100000D+01
   p     1 1.00
  0.120900D+00  0.100000D+01
   d     1 1.00
  0.109700D+01  0.100000D+01
   d     1 1.00
  0.318000D+00  0.100000D+01
   f     1 1.00
  0.761000D+00  0.100000D+01
  
  5  0
   s    10 1.00
  0.823600D+04  0.531000D-03
  0.123500D+04  0.410800D-02
  0.280800D+03  0.210870D-01
  0.792700D+02  0.818530D-01
  0.255900D+02  0.234817D+00
  0.899700D+01  0.434401D+00
  0.331900D+01  0.346129D+00
  0.905900D+00  0.393780D-01
  0.364300D+00 -0.898300D-02
  0.128500D+00  0.238500D-02
   s    10 1.00
  0.823600D+04 -0.113000D-03
  0.123500D+04 -0.878000D-03
  0.280800D+03 -0.454000D-02
  0.792700D+02 -0.181330D-01
  0.255900D+02 -0.557600D-01
  0.899700D+01 -0.126895D+00
  0.331900D+01 -0.170352D+00
  0.905900D+00  0.140382D+00
  0.364300D+00  0.598684D+00
  0.128500D+00  0.395389D+00
   s     1 1.00
  0.905900D+00  0.100000D+01
   s     1 1.00
  0.364300D+00  0.100000D+01
   p     5 1.00
  0.187100D+02  0.140310D-01
  0.413300D+01  0.868660D-01
  0.120000D+01  0.290216D+00
  0.382700D+00  0.501008D+00
  0.120900D+00  0.343406D+00
   p     1 1.00
  0.382700D+00  0.100000D+01
   p     1 1.00
  0.120900D+00  0.100000D+01
   d     1 1.00
  0.109700D+01  0.100000D+01
   d     1 1.00
  0.318000D+00  0.100000D+01
   f     1 1.00
  0.761000D+00  0.100000D+01
  
  6  0
   s    10 1.00
  0.823600D+04  0.531000D-03
  0.123500D+04  0.410800D-02
  0.280800D+03  0.210870D-01
  0.792700D+02  0.818530D-01
  0.255900D+02  0.234817D+00
  0.899700D+01  0.434401D+00
  0.331900D+01  0.346129D+00
  0.905900D+00  0.393780D-01
  0.364300D+00 -0.898300D-02
  0.128500D+00  0.238500D-02
   s    10 1.00
  0.823600D+04 -0.113000D-03
  0.123500D+04 -0.878000D-03
  0.280800D+03 -0.454000D-02
  0.792700D+02 -0.181330D-01
  0.255900D+02 -0.557600D-01
  0.899700D+01 -0.126895D+00
  0.331900D+01 -0.170352D+00
  0.905900D+00  0.140382D+00
  0.364300D+00  0.598684D+00
  0.128500D+00  0.395389D+00
   s     1 1.00
  0.905900D+00  0.100000D+01
   s     1 1.00
  0.364300D+00  0.100000D+01
   p     5 1.00
  0.187100D+02  0.140310D-01
  0.413300D+01  0.868660D-01
  0.120000D+01  0.290216D+00
  0.382700D+00  0.501008D+00
  0.120900D+00  0.343406D+00
   p     1 1.00
  0.382700D+00  0.100000D+01
   p     1 1.00
  0.120900D+00  0.100000D+01
   d     1 1.00
  0.109700D+01  0.100000D+01
   d     1 1.00
  0.318000D+00  0.100000D+01
   f     1 1.00
  0.761000D+00  0.100000D+01
  
  7  0
   s    10 1.00
  0.823600D+04  0.531000D-03
  0.123500D+04  0.410800D-02
  0.280800D+03  0.210870D-01
  0.792700D+02  0.818530D-01
  0.255900D+02  0.234817D+00
  0.899700D+01  0.434401D+00
  0.331900D+01  0.346129D+00
  0.905900D+00  0.393780D-01
  0.364300D+00 -0.898300D-02
  0.128500D+00  0.238500D-02
   s    10 1.00
  0.823600D+04 -0.113000D-03
  0.123500D+04 -0.878000D-03
  0.280800D+03 -0.454000D-02
  0.792700D+02 -0.181330D-01
  0.255900D+02 -0.557600D-01
  0.899700D+01 -0.126895D+00
  0.331900D+01 -0.170352D+00
  0.905900D+00  0.140382D+00
  0.364300D+00  0.598684D+00
  0.128500D+00  0.395389D+00
   s     1 1.00
  0.905900D+00  0.100000D+01
   s     1 1.00
  0.364300D+00  0.100000D+01
   p     5 1.00
  0.187100D+02  0.140310D-01
  0.413300D+01  0.868660D-01
  0.120000D+01  0.290216D+00
  0.382700D+00  0.501008D+00
  0.120900D+00  0.343406D+00
   p     1 1.00
  0.382700D+00  0.100000D+01
   p     1 1.00
  0.120900D+00  0.100000D+01
   d     1 1.00
  0.109700D+01  0.100000D+01
   d     1 1.00
  0.318000D+00  0.100000D+01
   f     1 1.00
  0.761000D+00  0.100000D+01
  
  8  0
   s     4 1.00
  0.130100D+02  0.196850D-01
  0.196200D+01  0.137977D+00
  0.444600D+00  0.478148D+00
  0.122000D+00  0.501240D+00
   s     1 1.00
  0.122000D+00  0.100000D+01
   p     1 1.00
  0.727000D+00  0.100000D+01
  
  9  0
   s     4 1.00
  0.130100D+02  0.196850D-01
  0.196200D+01  0.137977D+00
  0.444600D+00  0.478148D+00
  0.122000D+00  0.501240D+00
   s     1 1.00
  0.122000D+00  0.100000D+01
   p     1 1.00
  0.727000D+00  0.100000D+01
  
 10  0
   s     4 1.00
  0.130100D+02  0.196850D-01
  0.196200D+01  0.137977D+00
  0.444600D+00  0.478148D+00
  0.122000D+00  0.501240D+00
   s     1 1.00
  0.122000D+00  0.100000D+01
   p     1 1.00
  0.727000D+00  0.100000D+01
  
 11  0
   s     4 1.00
  0.130100D+02  0.196850D-01
  0.196200D+01  0.137977D+00
  0.444600D+00  0.478148D+00
  0.122000D+00  0.501240D+00
   s     1 1.00
  0.122000D+00  0.100000D+01
   p     1 1.00
  0.727000D+00  0.100000D+01
  
 12  0
   s     4 1.00
  0.130100D+02  0.196850D-01
  0.196200D+01  0.137977D+00
  0.444600D+00  0.478148D+00
  0.122000D+00  0.501240D+00
   s     1 1.00
  0.122000D+00  0.100000D+01
   p     1 1.00
  0.727000D+00  0.100000D+01
  
 13  0
   s     4 1.00
  0.130100D+02  0.196850D-01
  0.196200D+01  0.137977D+00
  0.444600D+00  0.478148D+00
  0.122000D+00  0.501240D+00
   s     1 1.00
  0.122000D+00  0.100000D+01
   p     1 1.00
  0.727000D+00  0.100000D+01
  
 14  0
   s     4 1.00
  0.130100D+02  0.196850D-01
  0.196200D+01  0.137977D+00
  0.444600D+00  0.478148D+00
  0.122000D+00  0.501240D+00
   s     1 1.00
  0.122000D+00  0.100000D+01
   p     1 1.00
  0.727000D+00  0.100000D+01
  
[MO]
 Sym= __1_A'_
 Ene=  0.000000000000000E+000
 Spin= Alpha
 Occup=    2.00000000000000     
                     1  8.123785615375002E-005
                     2  0.998324257891592     
                     3  2.761491790105237E-003
                     4  1.710633801192454E-003
                     5  5.404904542746223E-003
                     6  3.527206308005724E-003
                     7  6.229253161638717E-003
                     8  0.000000000000000E+000
                     9 -6.085655374486140E-004
                    10 -6.081674956332580E-004
                    11  0.000000000000000E+000
                    12 -2.433480102510467E-003
                    13 -1.632334851999726E-003
                    14  0.000000000000000E+000
                    15 -1.078532223410957E-004
                    16  0.000000000000000E+000
                    17  0.000000000000000E+000
                    18 -1.797542497069248E-004
                    19 -8.734277780739238E-005
                    20  7.663589271935319E-005
                    21  0.000000000000000E+000
                    22  0.000000000000000E+000
                    23 -3.171006842065484E-004
                    24  5.854057529320993E-004
                    25  0.000000000000000E+000
                    26 -1.524529614474101E-005
                    27 -6.292088578862896E-005
                    28  0.000000000000000E+000
                    29  0.000000000000000E+000
                    30  3.703708416257528E-005
                    31 -1.541237506173454E-004
                    32 -4.054287308412006E-004
                    33  1.147145088572337E-003
                    34  3.330695081070181E-004
                    35 -3.794705429007215E-004
                    36 -3.461401829633572E-004
                    37 -4.987259761536885E-003
                    38  0.000000000000000E+000
                    39  4.766604851378477E-004
                    40  5.290208186727835E-004
                    41  0.000000000000000E+000
                    42 -2.195198570860524E-003
                    43  5.517579282588218E-003
                    44  0.000000000000000E+000
                    45 -1.595016969065524E-005
                    46  0.000000000000000E+000
                    47  0.000000000000000E+000
                    48 -2.281771762885562E-004
                    49 -7.938936331026315E-006
                    50 -2.485521186327383E-004
                    51  0.000000000000000E+000
                    52  0.000000000000000E+000
                    53  4.874768818837404E-005
                    54  8.730722868648638E-004
                    55  0.000000000000000E+000
                    56 -9.453379781200258E-006
                    57 -5.831228836215719E-005
                    58  0.000000000000000E+000
                    59  0.000000000000000E+000
                    60  2.996804214300432E-005
                    61 -1.204304966620500E-004
                    62 -5.033505569393317E-004
                    63 -2.363453819250203E-003
                    64 -8.829955740435731E-005
                    65  2.170010044353262E-003
                    66 -6.854492687451638E-004
                    67  5.572002334558453E-004
                    68  0.000000000000000E+000
                    69  4.414844359512769E-004
                    70  8.495209994660699E-004
                    71  0.000000000000000E+000
                    72 -1.918447004010993E-003
                    73  8.950383652398666E-004
                    74  0.000000000000000E+000
                    75 -4.116781414209733E-005
                    76  0.000000000000000E+000
                    77  0.000000000000000E+000
                    78 -8.624485409057003E-005
                    79 -2.741385473669721E-005
                    80 -1.249956699561634E-004
                    81  0.000000000000000E+000
                    82  0.000000000000000E+000
                    83  5.575107190205104E-005
                    84  8.434737821240028E-005
                    85  0.000000000000000E+000
                    86  1.355467270744367E-005
                    87 -5.048077930822047E-005
                    88  0.000000000000000E+000
                    89  0.000000000000000E+000
                    90 -1.786019266762621E-005
                    91 -1.525459173004003E-004
                    92 -1.772016827321603E-004
                    93 -1.257236394315427E-003
                    94  2.110466297539744E-004
                    95 -2.158588685160507E-004
                    96  6.163616591086130E-004
                    97  7.986609452445780E-004
                    98  0.000000000000000E+000
                    99  4.335696360357669E-004
                   100  3.627397570153645E-004
                   101  0.000000000000000E+000
                   102  4.561721093736102E-004
                   103 -1.844035888921088E-003
                   104  0.000000000000000E+000
                   105  2.500050537059415E-006
                   106  0.000000000000000E+000
                   107  0.000000000000000E+000
                   108 -8.164197374784769E-005
                   109 -2.431851119892638E-005
                   110  1.013571585583345E-004
                   111  0.000000000000000E+000
                   112  0.000000000000000E+000
                   113 -1.910546250475721E-004
                   114 -1.971429562631787E-005
                   115  0.000000000000000E+000
                   116 -2.684970653505332E-005
                   117 -2.614473154188656E-005
                   118  0.000000000000000E+000
                   119  0.000000000000000E+000
                   120 -1.806658876580485E-005
                   121 -2.278854817168966E-005
                   122 -2.548786550369475E-004
                   123 -4.728531664831619E-004
                   124  1.731005112263317E-004
                   125  3.320672786030005E-004
                   126 -1.713568713581356E-005
                   127 -6.110839896766949E-004
                   128  0.000000000000000E+000
                   129  1.922171995589783E-004
                   130  6.450523364108129E-004
                   131  0.000000000000000E+000
                   132  5.859352120776371E-004
                   133  2.171975384644675E-003
                   134  0.000000000000000E+000
                   135  1.317727615609050E-005
                   136  0.000000000000000E+000
                   137  0.000000000000000E+000
                   138  3.872003180385300E-005
                   139  2.077661502676285E-006
                   140  1.938373971155348E-004
                   141  0.000000000000000E+000
                   142  0.000000000000000E+000
                   143  3.926564177513468E-004
                   144  2.490222548226710E-004
                   145  0.000000000000000E+000
                   146 -9.473892029952388E-006
                   147 -6.270584518555540E-005
                   148  0.000000000000000E+000
                   149  0.000000000000000E+000
                   150 -2.035215530761827E-005
                   151 -4.783586527405844E-005
                   152 -1.518682219898042E-004
                   153 -1.398697338402789E-004
                   154  5.372573323966512E-005
                   155  2.254186646028744E-004
                   156 -3.350181421598011E-005
                   157 -5.527886828842858E-004
                   158  0.000000000000000E+000
                   159  4.702339541669591E-005
                   160  5.978364241442913E-005
                   161  0.000000000000000E+000
                   162  8.116648662558483E-004
                   163 -4.261414439600682E-004
                   164  0.000000000000000E+000
                   165 -2.140639389754261E-006
                   166  0.000000000000000E+000
                   167  0.000000000000000E+000
                   168 -1.015064586230296E-005
                   169  1.149841947429258E-006
                   170  8.715269975633927E-005
                   171  0.000000000000000E+000
                   172  0.000000000000000E+000
                   173  2.128302735011670E-005
                   174 -3.489238578321150E-006
                   175  0.000000000000000E+000
                   176  1.233609882015152E-006
                   177 -8.768243341788863E-006
                   178  0.000000000000000E+000
                   179  0.000000000000000E+000
                   180 -1.621120657457396E-005
                   181 -1.823034309100756E-005
                   182 -1.604502715835457E-004
                   183 -4.746658094941334E-004
                   184  3.762175801621239E-005
                   185  2.295873914493537E-004
                   186 -4.663739755770974E-005
                   187 -4.240058019497510E-005
                   188  0.000000000000000E+000
                   189  2.588609851997547E-004
                   190  9.062450918443254E-005
                   191  0.000000000000000E+000
                   192  1.487995651858504E-003
                   193 -2.589091340043714E-004
                   194  0.000000000000000E+000
                   195  1.390140550990437E-006
                   196  0.000000000000000E+000
                   197  0.000000000000000E+000
                   198 -1.197042609650189E-005
                   199  3.939544009114392E-006
                   200 -1.214884066428448E-005
                   201  0.000000000000000E+000
                   202  0.000000000000000E+000
                   203 -8.341305560982613E-005
                   204 -2.074397420242604E-004
                   205  0.000000000000000E+000
                   206 -8.995166295534358E-006
                   207 -4.198524170507413E-006
                   208  0.000000000000000E+000
                   209  0.000000000000000E+000
                   210  9.761542861047739E-006
                   211 -7.823346843068932E-006
                   212 -6.019501037635320E-005
                   213  1.051708463098949E-004
                   214  5.367449455801547E-005
                   215  7.090217713239337E-005
                   216  0.000000000000000E+000
                   217  1.752080944592911E-003
                   218 -1.793114466810374E-003
                   219 -4.552092794556662E-004
                   220  1.675471057858039E-004
                   221  0.000000000000000E+000
                   222 -4.988376338512144E-004
                   223 -6.368452280102007E-004
                   224  3.409059396862475E-006
                   225 -7.061442361712105E-005
                   226  0.000000000000000E+000
                   227 -3.019709221232948E-004
                   228 -4.712196370453567E-004
                   229 -1.688056900714752E-005
                   230 -1.576991884827764E-005
                   231  0.000000000000000E+000
                   232 -9.617288942446831E-005
                   233 -4.789875484888414E-004
                   234  1.771307108166558E-006
                   235 -1.366704388595600E-006
                   236  0.000000000000000E+000
                   237 -1.851917582549665E-004
                   238 -3.804504809797733E-004
                   239  4.685441254307272E-006
                   240 -2.633016244142837E-007
                   241  0.000000000000000E+000
                   242  1.042961149291105E-005
                   243  4.588205953815265E-005
                   244 -6.412196483416641E-007
                   245  2.861703002816245E-005
                   246  0.000000000000000E+000
 Sym= __2_A'_
 Ene=  0.000000000000000E+000
 Spin= Alpha
 Occup=    2.00000000000000     
                     1 -5.020612115135710E-005
                     2 -2.805098205281889E-004
                     3  2.696711825607369E-003
                     4  1.293474789451166E-004
                     5  1.361414837936358E-003
                     6 -3.726906018582222E-004
                     7  2.976629426424576E-003
                     8  0.000000000000000E+000
                     9 -4.167349677760170E-005
                    10 -1.158198623408970E-004
                    11  0.000000000000000E+000
                    12 -4.062349172838605E-005
                    13 -3.636098864699766E-004
                    14  0.000000000000000E+000
                    15  3.168255304919232E-005
                    16  0.000000000000000E+000
                    17  0.000000000000000E+000
                    18 -4.428887416756676E-005
                    19  2.338264018625921E-005
                    20 -1.115504019844591E-004
                    21  0.000000000000000E+000
                    22  0.000000000000000E+000
                    23  1.234535001973890E-004
                    24 -1.444714665383915E-004
                    25  0.000000000000000E+000
                    26 -1.720304315429167E-005
                    27  9.322219638620837E-005
                    28  0.000000000000000E+000
                    29  0.000000000000000E+000
                    30 -6.573524875254681E-005
                    31  1.424678213751334E-004
                    32   1.00101865526653     
                    33  9.275232610380850E-003
                    34  2.685543942986593E-003
                    35 -8.050670349673637E-003
                    36 -2.134758234751167E-005
                    37 -3.277632664983106E-003
                    38  0.000000000000000E+000
                    39 -1.973102642001761E-004
                    40  1.906661304999503E-004
                    41  0.000000000000000E+000
                    42 -1.452405263877164E-004
                    43  4.103385746116511E-003
                    44  0.000000000000000E+000
                    45 -5.575822686730138E-004
                    46  0.000000000000000E+000
                    47  0.000000000000000E+000
                    48 -2.128191347852632E-004
                    49  4.393545330436213E-005
                    50  5.278595026443369E-004
                    51  0.000000000000000E+000
                    52  0.000000000000000E+000
                    53 -6.685241856997248E-004
                    54 -3.876439827121553E-004
                    55  0.000000000000000E+000
                    56  1.226210139030584E-005
                    57  9.842303325151699E-005
                    58  0.000000000000000E+000
                    59  0.000000000000000E+000
                    60 -3.446240897563661E-005
                    61  3.940221849303818E-004
                    62  8.931433485531768E-003
                    63 -2.076125997237334E-003
                    64 -2.419197817230720E-004
                    65  2.700035106314597E-003
                    66  7.904339014614198E-006
                    67  8.177801084241593E-005
                    68  0.000000000000000E+000
                    69  5.279078772131907E-004
                    70  1.506380453687905E-004
                    71  0.000000000000000E+000
                    72 -2.119796051336445E-003
                    73  2.983973736137135E-004
                    74  0.000000000000000E+000
                    75  3.645915596993309E-005
                    76  0.000000000000000E+000
                    77  0.000000000000000E+000
                    78 -4.192080365192600E-006
                    79  3.820350524000147E-006
                    80 -4.214269413502009E-004
                    81  0.000000000000000E+000
                    82  0.000000000000000E+000
                    83 -6.480644459241898E-004
                    84 -2.408853609196860E-004
                    85  0.000000000000000E+000
                    86  2.737965014144066E-005
                    87 -5.851630090181471E-005
                    88  0.000000000000000E+000
                    89  0.000000000000000E+000
                    90  3.914718822152404E-005
                    91  1.506368477387884E-004
                    92  1.083491248486344E-002
                    93 -2.070666005274213E-003
                    94 -3.136127374315082E-004
                    95  3.209236375164544E-003
                    96  6.394714396277942E-005
                    97  4.242474732669823E-005
                    98  0.000000000000000E+000
                    99 -9.375898835877604E-004
                   100  1.804233886758737E-005
                   101  0.000000000000000E+000
                   102  1.757330411980161E-003
                   103  2.275362630988314E-005
                   104  0.000000000000000E+000
                   105  2.339777662837989E-005
                   106  0.000000000000000E+000
                   107  0.000000000000000E+000
                   108 -2.940201543266732E-006
                   109  1.000491659798783E-005
                   110 -4.230470076189595E-004
                   111  0.000000000000000E+000
                   112  0.000000000000000E+000
                   113 -3.789535868449530E-004
                   114  2.633458160329286E-004
                   115  0.000000000000000E+000
                   116 -2.823837453463307E-005
                   117 -6.992277303127532E-005
                   118  0.000000000000000E+000
                   119  0.000000000000000E+000
                   120 -9.003210705914498E-006
                   121  1.335578056238921E-004
                   122 -1.771696625611545E-004
                   123 -6.920317417666216E-004
                   124  2.283947432392282E-004
                   125 -1.123719067485366E-004
                   126  4.398977242031764E-006
                   127 -3.564198771191691E-004
                   128  0.000000000000000E+000
                   129 -7.917141854986711E-005
                   130  6.094083008025346E-004
                   131  0.000000000000000E+000
                   132  3.737317616217394E-004
                   133  9.124448789268702E-004
                   134  0.000000000000000E+000
                   135  1.792473233067116E-005
                   136  0.000000000000000E+000
                   137  0.000000000000000E+000
                   138  4.655755429713458E-006
                   139  4.324849709473664E-005
                   140  1.309261214710259E-004
                   141  0.000000000000000E+000
                   142  0.000000000000000E+000
                   143  2.500659944566324E-004
                   144 -1.046629299458999E-004
                   145  0.000000000000000E+000
                   146  9.388500311432712E-006
                   147 -3.727250519940739E-005
                   148  0.000000000000000E+000
                   149  0.000000000000000E+000
                   150 -4.496952830241329E-005
                   151  3.696913607441898E-005
                   152 -1.072157077869360E-004
                   153 -6.840975725990949E-004
                   154  2.309114531499674E-004
                   155 -3.698497132806371E-005
                   156 -3.028061881587185E-005
                   157 -3.467248969180966E-004
                   158  0.000000000000000E+000
                   159  1.366065382754674E-004
                   160  5.340568160696959E-004