[Molden Format]
[Atoms] AU
  N     1    7     0.0000000000    0.0000000000   -4.2907334100        
  C     2    6     0.0000000000    0.0000000000   -1.7772236300        
  C     3    6     0.0000000000   -2.3389203600   -0.4111016300        
  C     4    6     0.0000000000    2.3389203600   -0.4111016300        
  C     5    6     0.0000000000   -2.2998668500    2.1639215300        
  C     6    6     0.0000000000    2.2998668500    2.1639215300        
  C     7    6     0.0000000000    0.0000000000    3.4755251800        
  H     8    1     0.0000000000   -1.1258104200   -4.9852639500        
  H     9    1     0.0000000000    1.6528040300   -5.3103747800        
  H    10    1     0.0000000000   -4.0745407300   -1.4447408500        
  H    11    1     0.0000000000    4.0745407300   -1.4447408500        
  H    12    1     0.0000000000   -4.0420632100    3.1963889500        
  H    13    1     0.0000000000    4.0420632100    3.1963889500        
  H    14    1     0.0000000000    0.0000000000    5.5020335600        
[5D]
[7F]
[GTO]
  1  0
   s    12 1.00
  0.114200D+05  0.172695D-04
  0.171200D+04  0.134411D-03
  0.389300D+03  0.694561D-03
  0.110000D+03  0.278531D-02
  0.355700D+02  0.863457D-02
  0.125400D+02  0.199805D-01
  0.464400D+01  0.262908D-01
  0.129300D+01 -0.243845D-01
  0.511800D+00 -0.924934D-01
  0.178700D+00 -0.339683D+00
  0.246240D-01  0.345111D+00
  0.112530D-01  0.752750D+00
   s    10 1.00
  0.114200D+05  0.523000D-03
  0.171200D+04  0.404500D-02
  0.389300D+03  0.207750D-01
  0.110000D+03  0.807269D-01
  0.355700D+02  0.233074D+00
  0.125400D+02  0.433501D+00
  0.464400D+01  0.347472D+00
  0.129300D+01  0.412620D-01
  0.511800D+00 -0.850799D-02
  0.178700D+00  0.238400D-02
   s    10 1.00
  0.114200D+05 -0.115000D-03
  0.171200D+04 -0.895000D-03
  0.389300D+03 -0.462400D-02
  0.110000D+03 -0.185280D-01
  0.355700D+02 -0.573390D-01
  0.125400D+02 -0.132076D+00
  0.464400D+01 -0.172510D+00
  0.129300D+01  0.151814D+00
  0.511800D+00  0.599944D+00
  0.178700D+00  0.387462D+00
   s     1 1.00
  0.129300D+01  0.100000D+01
   s     1 1.00
  0.178700D+00  0.100000D+01
   p     5 1.00
  0.266300D+02  0.146700D-01
  0.594800D+01  0.917640D-01
  0.174200D+01  0.298683D+00
  0.555000D+00  0.498487D+00
  0.172500D+00  0.337023D+00
   p     1 1.00
  0.174200D+01  0.100000D+01
   p     1 1.00
  0.555000D+00  0.100000D+01
   d     1 1.00
  0.165400D+01  0.100000D+01
   d     1 1.00
  0.469000D+00  0.100000D+01
   f     1 1.00
  0.109300D+01  0.100000D+01
  
  2  0
   s    10 1.00
  0.823600D+04  0.531000D-03
  0.123500D+04  0.410800D-02
  0.280800D+03  0.210870D-01
  0.792700D+02  0.818530D-01
  0.255900D+02  0.234817D+00
  0.899700D+01  0.434401D+00
  0.331900D+01  0.346129D+00
  0.905900D+00  0.393780D-01
  0.364300D+00 -0.898300D-02
  0.128500D+00  0.238500D-02
   s    10 1.00
  0.823600D+04 -0.113000D-03
  0.123500D+04 -0.878000D-03
  0.280800D+03 -0.454000D-02
  0.792700D+02 -0.181330D-01
  0.255900D+02 -0.557600D-01
  0.899700D+01 -0.126895D+00
  0.331900D+01 -0.170352D+00
  0.905900D+00  0.140382D+00
  0.364300D+00  0.598684D+00
  0.128500D+00  0.395389D+00
   s     1 1.00
  0.905900D+00  0.100000D+01
   s     1 1.00
  0.364300D+00  0.100000D+01
   p     5 1.00
  0.187100D+02  0.140310D-01
  0.413300D+01  0.868660D-01
  0.120000D+01  0.290216D+00
  0.382700D+00  0.501008D+00
  0.120900D+00  0.343406D+00
   p     1 1.00
  0.382700D+00  0.100000D+01
   p     1 1.00
  0.120900D+00  0.100000D+01
   d     1 1.00
  0.109700D+01  0.100000D+01
   d     1 1.00
  0.318000D+00  0.100000D+01
   f     1 1.00
  0.761000D+00  0.100000D+01
  
  3  0
   s    10 1.00
  0.823600D+04  0.531000D-03
  0.123500D+04  0.410800D-02
  0.280800D+03  0.210870D-01
  0.792700D+02  0.818530D-01
  0.255900D+02  0.234817D+00
  0.899700D+01  0.434401D+00
  0.331900D+01  0.346129D+00
  0.905900D+00  0.393780D-01
  0.364300D+00 -0.898300D-02
  0.128500D+00  0.238500D-02
   s    10 1.00
  0.823600D+04 -0.113000D-03
  0.123500D+04 -0.878000D-03
  0.280800D+03 -0.454000D-02
  0.792700D+02 -0.181330D-01
  0.255900D+02 -0.557600D-01
  0.899700D+01 -0.126895D+00
  0.331900D+01 -0.170352D+00
  0.905900D+00  0.140382D+00
  0.364300D+00  0.598684D+00
  0.128500D+00  0.395389D+00
   s     1 1.00
  0.905900D+00  0.100000D+01
   s     1 1.00
  0.364300D+00  0.100000D+01
   p     5 1.00
  0.187100D+02  0.140310D-01
  0.413300D+01  0.868660D-01
  0.120000D+01  0.290216D+00
  0.382700D+00  0.501008D+00
  0.120900D+00  0.343406D+00
   p     1 1.00
  0.382700D+00  0.100000D+01
   p     1 1.00
  0.120900D+00  0.100000D+01
   d     1 1.00
  0.109700D+01  0.100000D+01
   d     1 1.00
  0.318000D+00  0.100000D+01
   f     1 1.00
  0.761000D+00  0.100000D+01
  
  4  0
   s    10 1.00
  0.823600D+04  0.531000D-03
  0.123500D+04  0.410800D-02
  0.280800D+03  0.210870D-01
  0.792700D+02  0.818530D-01
  0.255900D+02  0.234817D+00
  0.899700D+01  0.434401D+00
  0.331900D+01  0.346129D+00
  0.905900D+00  0.393780D-01
  0.364300D+00 -0.898300D-02
  0.128500D+00  0.238500D-02
   s    10 1.00
  0.823600D+04 -0.113000D-03
  0.123500D+04 -0.878000D-03
  0.280800D+03 -0.454000D-02
  0.792700D+02 -0.181330D-01
  0.255900D+02 -0.557600D-01
  0.899700D+01 -0.126895D+00
  0.331900D+01 -0.170352D+00
  0.905900D+00  0.140382D+00
  0.364300D+00  0.598684D+00
  0.128500D+00  0.395389D+00
   s     1 1.00
  0.905900D+00  0.100000D+01
   s     1 1.00
  0.364300D+00  0.100000D+01
   p     5 1.00
  0.187100D+02  0.140310D-01
  0.413300D+01  0.868660D-01
  0.120000D+01  0.290216D+00
  0.382700D+00  0.501008D+00
  0.120900D+00  0.343406D+00
   p     1 1.00
  0.382700D+00  0.100000D+01
   p     1 1.00
  0.120900D+00  0.100000D+01
   d     1 1.00
  0.109700D+01  0.100000D+01
   d     1 1.00
  0.318000D+00  0.100000D+01
   f     1 1.00
  0.761000D+00  0.100000D+01
  
  5  0
   s    10 1.00
  0.823600D+04  0.531000D-03
  0.123500D+04  0.410800D-02
  0.280800D+03  0.210870D-01
  0.792700D+02  0.818530D-01
  0.255900D+02  0.234817D+00
  0.899700D+01  0.434401D+00
  0.331900D+01  0.346129D+00
  0.905900D+00  0.393780D-01
  0.364300D+00 -0.898300D-02
  0.128500D+00  0.238500D-02
   s    10 1.00
  0.823600D+04 -0.113000D-03
  0.123500D+04 -0.878000D-03
  0.280800D+03 -0.454000D-02
  0.792700D+02 -0.181330D-01
  0.255900D+02 -0.557600D-01
  0.899700D+01 -0.126895D+00
  0.331900D+01 -0.170352D+00
  0.905900D+00  0.140382D+00
  0.364300D+00  0.598684D+00
  0.128500D+00  0.395389D+00
   s     1 1.00
  0.905900D+00  0.100000D+01
   s     1 1.00
  0.364300D+00  0.100000D+01
   p     5 1.00
  0.187100D+02  0.140310D-01
  0.413300D+01  0.868660D-01
  0.120000D+01  0.290216D+00
  0.382700D+00  0.501008D+00
  0.120900D+00  0.343406D+00
   p     1 1.00
  0.382700D+00  0.100000D+01
   p     1 1.00
  0.120900D+00  0.100000D+01
   d     1 1.00
  0.109700D+01  0.100000D+01
   d     1 1.00
  0.318000D+00  0.100000D+01
   f     1 1.00
  0.761000D+00  0.100000D+01
  
  6  0
   s    10 1.00
  0.823600D+04  0.531000D-03
  0.123500D+04  0.410800D-02
  0.280800D+03  0.210870D-01
  0.792700D+02  0.818530D-01
  0.255900D+02  0.234817D+00
  0.899700D+01  0.434401D+00
  0.331900D+01  0.346129D+00
  0.905900D+00  0.393780D-01
  0.364300D+00 -0.898300D-02
  0.128500D+00  0.238500D-02
   s    10 1.00
  0.823600D+04 -0.113000D-03
  0.123500D+04 -0.878000D-03
  0.280800D+03 -0.454000D-02
  0.792700D+02 -0.181330D-01
  0.255900D+02 -0.557600D-01
  0.899700D+01 -0.126895D+00
  0.331900D+01 -0.170352D+00
  0.905900D+00  0.140382D+00
  0.364300D+00  0.598684D+00
  0.128500D+00  0.395389D+00
   s     1 1.00
  0.905900D+00  0.100000D+01
   s     1 1.00
  0.364300D+00  0.100000D+01
   p     5 1.00
  0.187100D+02  0.140310D-01
  0.413300D+01  0.868660D-01
  0.120000D+01  0.290216D+00
  0.382700D+00  0.501008D+00
  0.120900D+00  0.343406D+00
   p     1 1.00
  0.382700D+00  0.100000D+01
   p     1 1.00
  0.120900D+00  0.100000D+01
   d     1 1.00
  0.109700D+01  0.100000D+01
   d     1 1.00
  0.318000D+00  0.100000D+01
   f     1 1.00
  0.761000D+00  0.100000D+01
  
  7  0
   s    10 1.00
  0.823600D+04  0.531000D-03
  0.123500D+04  0.410800D-02
  0.280800D+03  0.210870D-01
  0.792700D+02  0.818530D-01
  0.255900D+02  0.234817D+00
  0.899700D+01  0.434401D+00
  0.331900D+01  0.346129D+00
  0.905900D+00  0.393780D-01
  0.364300D+00 -0.898300D-02
  0.128500D+00  0.238500D-02
   s    10 1.00
  0.823600D+04 -0.113000D-03
  0.123500D+04 -0.878000D-03
  0.280800D+03 -0.454000D-02
  0.792700D+02 -0.181330D-01
  0.255900D+02 -0.557600D-01
  0.899700D+01 -0.126895D+00
  0.331900D+01 -0.170352D+00
  0.905900D+00  0.140382D+00
  0.364300D+00  0.598684D+00
  0.128500D+00  0.395389D+00
   s     1 1.00
  0.905900D+00  0.100000D+01
   s     1 1.00
  0.364300D+00  0.100000D+01
   p     5 1.00
  0.187100D+02  0.140310D-01
  0.413300D+01  0.868660D-01
  0.120000D+01  0.290216D+00
  0.382700D+00  0.501008D+00
  0.120900D+00  0.343406D+00
   p     1 1.00
  0.382700D+00  0.100000D+01
   p     1 1.00
  0.120900D+00  0.100000D+01
   d     1 1.00
  0.109700D+01  0.100000D+01
   d     1 1.00
  0.318000D+00  0.100000D+01
   f     1 1.00
  0.761000D+00  0.100000D+01
  
  8  0
   s     4 1.00
  0.130100D+02  0.196850D-01
  0.196200D+01  0.137977D+00
  0.444600D+00  0.478148D+00
  0.122000D+00  0.501240D+00
   s     1 1.00
  0.122000D+00  0.100000D+01
   p     1 1.00
  0.727000D+00  0.100000D+01
  
  9  0
   s     4 1.00
  0.130100D+02  0.196850D-01
  0.196200D+01  0.137977D+00
  0.444600D+00  0.478148D+00
  0.122000D+00  0.501240D+00
   s     1 1.00
  0.122000D+00  0.100000D+01
   p     1 1.00
  0.727000D+00  0.100000D+01
  
 10  0
   s     4 1.00
  0.130100D+02  0.196850D-01
  0.196200D+01  0.137977D+00
  0.444600D+00  0.478148D+00
  0.122000D+00  0.501240D+00
   s     1 1.00
  0.122000D+00  0.100000D+01
   p     1 1.00
  0.727000D+00  0.100000D+01
  
 11  0
   s     4 1.00
  0.130100D+02  0.196850D-01
  0.196200D+01  0.137977D+00
  0.444600D+00  0.478148D+00
  0.122000D+00  0.501240D+00
   s     1 1.00
  0.122000D+00  0.100000D+01
   p     1 1.00
  0.727000D+00  0.100000D+01
  
 12  0
   s     4 1.00
  0.130100D+02  0.196850D-01
  0.196200D+01  0.137977D+00
  0.444600D+00  0.478148D+00
  0.122000D+00  0.501240D+00
   s     1 1.00
  0.122000D+00  0.100000D+01
   p     1 1.00
  0.727000D+00  0.100000D+01
  
 13  0
   s     4 1.00
  0.130100D+02  0.196850D-01
  0.196200D+01  0.137977D+00
  0.444600D+00  0.478148D+00
  0.122000D+00  0.501240D+00
   s     1 1.00
  0.122000D+00  0.100000D+01
   p     1 1.00
  0.727000D+00  0.100000D+01
  
 14  0
   s     4 1.00
  0.130100D+02  0.196850D-01
  0.196200D+01  0.137977D+00
  0.444600D+00  0.478148D+00
  0.122000D+00  0.501240D+00
   s     1 1.00
  0.122000D+00  0.100000D+01
   p     1 1.00
  0.727000D+00  0.100000D+01
  
[MO]
 Sym= __1_A__
 Ene=   1.00000000000000     
 Spin= Alpha
 Occup=    1.00000000000000     
                     1  5.309930610567316E-005
                     2  0.997371727901356     
                     3  1.316726390882704E-002
                     4  2.959167263839125E-003
                     5 -5.962615480603065E-004
                     6 -4.991716420658522E-012
                     7 -1.358033246057939E-003
                     8  3.749413015861175E-003
                     9 -7.715247442410204E-012
                    10 -7.039656336522694E-004
                    11 -4.903492556989068E-004
                    12  2.063499148940904E-011
                    13  1.165053608865292E-004
                    14  3.225978453717745E-004
                    15  2.057879889103964E-004
                    16 -4.857077905651567E-013
                    17  7.216005416583858E-004
                    18 -7.101099554609376E-004
                    19  3.081270621441160E-013
                    20  2.429583393857787E-004
                    21  4.807842119955490E-013
                    22 -2.706906775782709E-004
                    23  5.232895981775512E-004
                    24  3.028858235047446E-012
                    25 -4.443573454511066E-004
                    26 -2.417157655402596E-012
                    27 -9.026040120487446E-005
                    28  4.593499858406440E-004
                    29 -1.933090060697614E-012
                    30  5.400011902360712E-013
                    31  2.037167608765013E-004
                    32 -3.827252587942136E-004
                    33  3.089023096624634E-003
                    34  1.898600714094022E-004
                    35 -3.725729046710584E-004
                    36  2.251499893018447E-011
                    37  4.581574138297368E-004
                    38 -7.989352097692692E-003
                    39 -8.452961024761227E-012
                    40 -1.864731743282188E-004
                    41  5.610627551726628E-004
                    42 -7.183287386090386E-012
                    43  5.285007253755710E-004
                    44  3.216026255576458E-003
                    45  3.479031310171340E-004
                    46 -5.548393803037213E-012
                    47  4.816507045904140E-005
                    48  1.660746403036500E-004
                    49  1.622140234989208E-012
                    50 -2.419419172100004E-004
                    51  2.699642626113833E-012
                    52 -7.434204983383480E-004
                    53 -6.382585055357674E-004
                    54 -9.475164253512932E-012
                    55 -1.867713026126125E-004
                    56 -3.252665667705194E-012
                    57  1.815243326229571E-005
                    58  1.501730115549777E-004
                    59 -2.262538535968754E-012
                    60  1.281778238072360E-013
                    61 -8.501123786329483E-006
                    62 -1.580155722643141E-004
                    63 -1.857083027625288E-003
                    64  1.254016206619670E-004
                    65 -2.063597167900696E-005
                    66  1.084190576847809E-011
                    67 -1.100401982806155E-003
                    68  1.405510346624859E-003
                    69 -1.341390807534581E-011
                    70 -3.429960678250299E-004
                    71  6.818156394386698E-004
                    72 -6.000004100796739E-012
                    73  8.157189412117584E-005
                    74 -3.564963398789338E-004
                    75  9.584908787817434E-005
                    76  2.679824798610852E-012
                    77  6.809509347246878E-007
                    78  5.572343520030792E-005
                    79 -3.320326814052804E-013
                    80  3.654364228680597E-005
                    81  3.673472705838549E-012
                    82  3.093843202751400E-004
                    83  1.658290338675248E-005
                    84 -9.127073973744913E-012
                    85 -8.484189610846335E-005
                    86  4.032359035525556E-013
                    87 -3.647251576661588E-005
                    88  1.987293894374348E-005
                    89 -1.898421425249094E-012
                    90 -3.070321319075837E-012
                    91  3.262268477642541E-006
                    92 -1.586140647803368E-004
                    93 -1.473733708164688E-003
                    94 -8.954755736787206E-006
                    95  8.229982907297992E-004
                    96  9.090462784391748E-012
                    97  7.747508665851491E-004
                    98  9.481830918299165E-004
                    99 -6.614689471326629E-012
                   100 -2.745202973325128E-004
                   101  7.083956170230829E-004
                   102  3.185958586433732E-012
                   103  2.346973710073762E-004
                   104  6.330323453552231E-004
                   105  1.161310946234742E-004
                   106  2.401192011226806E-012
                   107  4.784448979255636E-005
                   108  3.085147571550812E-005
                   109  4.679798352783874E-012
                   110 -3.310046393483552E-004
                   111 -3.929269959566231E-012
                   112 -3.718771239880173E-004
                   113 -2.167068927053028E-004
                   114 -4.488296044914905E-013
                   115 -1.367062187422999E-004
                   116 -2.150248174874033E-012
                   117  6.444291838762973E-005
                   118  3.455814056969090E-005
                   119 -1.372975754017455E-012
                   120  4.412478003601407E-012
                   121 -6.237878147184707E-006
                   122 -1.191888373314598E-004
                   123  2.318027862664874E-004
                   124  1.177703186238799E-004
                   125 -6.373302958629384E-005
                   126  5.976288746579606E-012
                   127  7.251794650911854E-005
                   128 -9.818666685416932E-004
                   129 -7.255663760363233E-012
                   130 -3.925837931757768E-005
                   131  3.442371817794526E-004
                   132  5.507250323708572E-012
                   133 -3.116663622345837E-004
                   134  5.845211666476739E-005
                   135 -1.545904988494159E-005
                   136 -1.635900418284302E-012
                   137  5.753765386482520E-006
                   138  6.219166153577784E-006
                   139  1.449915719490943E-012
                   140 -1.196226456932537E-004
                   141  1.171735235928071E-012
                   142  1.371427820203057E-004
                   143  1.484479370253152E-005
                   144  3.027342851674926E-012
                   145 -3.061680974268358E-005
                   146 -1.081604401603399E-012
                   147  1.014015327832623E-005
                   148 -3.379990274842578E-006
                   149 -2.119181360237666E-012
                   150  8.396125085295689E-013
                   151  8.954669308856234E-008
                   152 -1.244111535804669E-004
                   153  1.065664095924953E-004
                   154  1.238848739477147E-004
                   155  1.233273575828012E-004
                   156 -6.529513119872136E-012
                   157 -4.366955963983008E-005
                   158 -8.501094138776406E-004
                   159  5.300932295542507E-012
                   160  4.483388499318267E-005
                   161  3.563864864682145E-004
                   162 -2.863305063557787E-012
                   163 -5.705889450696951E-005
                   164  9.712613421364514E-004
                   165 -3.025218067147717E-005
                   166  2.203251114806510E-012
                   167  4.271667224317565E-006
                   168  4.038133780761042E-006
                   169 -4.767725229673373E-013
                   170 -1.974495330058259E-004
                   171 -5.634127622565842E-012
                   172 -2.580606792039493E-004
                   173  6.109111118587262E-006
                   174  2.530907301996786E-012
                   175 -5.655623515346097E-005
                   176  2.087908996659255E-012
                   177  1.112655064290864E-007
                   178 -1.131071514330492E-005
                   179  1.016608594521540E-012
                   180 -6.592818168881089E-015
                   181  5.170660228484630E-006
                   182 -9.903511844379681E-005
                   183 -2.469634955372776E-004
                   184  2.031883992453272E-005
                   185  1.064254383812375E-004
                   186  8.761957208215376E-012
                   187 -9.170185189027138E-006
                   188 -3.950272306003398E-005
                   189 -1.311037235532104E-011
                   190 -5.506597457332738E-005
                   191 -1.669261210144898E-005
                   192 -4.935035135060715E-012
                   193 -5.254680570656417E-004
                   194  2.226690135812260E-004
                   195  2.256649944160326E-005
                   196  3.041547149158539E-012
                   197 -9.386348270948188E-007
                   198  1.035410155540239E-005
                   199 -5.434731921798184E-013
                   200  5.851791668565249E-005
                   201 -2.985407307180459E-013
                   202  4.566692692007814E-005
                   203  3.687765479977646E-005
                   204  6.757519335976086E-013
                   205 -1.605099649086107E-005
                   206 -3.541822493277936E-012
                   207 -1.767652748433879E-006
                   208  9.941642731271089E-006
                   209 -4.381371739068992E-014
                   210 -6.597337924886320E-013
                   211  9.494454535373449E-007
                   212  6.721724280568507E-003
                   213 -4.432134669675242E-003
                   214  3.577915470381601E-012
                   215  1.354505562861493E-004
                   216  1.393781939632891E-004
                   217  4.186305360894855E-003
                   218 -2.244929315694261E-003
                   219  2.085948238201308E-012
                   220 -3.916877015522251E-004
                   221  4.012932030622806E-004
                   222 -7.882623705255452E-004
                   223  2.554666873819637E-004
                   224  3.040009492438033E-012
                   225 -3.985662136006021E-005
                   226 -2.874120132909239E-005
                   227 -8.821768197561195E-004
                   228  2.446769497907985E-004
                   229 -2.069046568391163E-012
                   230  8.058032770086191E-006
                   231 -8.842486631220525E-005
                   232 -3.351122036071125E-004
                   233 -2.596411206777706E-004
                   234  3.707611897789505E-013
                   235 -7.588639274323561E-006
                   236  8.711861456294980E-006
                   237 -2.022546435456658E-004
                   238 -3.576080373968932E-004
                   239  6.647100594643386E-014
                   240  2.581200671191211E-006
                   241  1.340772282618741E-005
                   242  8.079080656665693E-005
                   243 -1.863654702764150E-004
                   244  2.274246200900284E-012
                   245  2.438890620517752E-006
                   246  8.710072335393412E-006
 Sym= __2_A__
 Ene=   2.00000000000000     
 Spin= Alpha
 Occup=    1.00000000000000     
                     1 -3.445256075824006E-005
                     2 -2.219350890505034E-004
                     3  1.678388113153032E-003
                     4  9.245685870851582E-005
                     5  1.583550340938562E-003
                     6  9.033752790598008E-012
                     7  1.602568524921452E-004
                     8  2.962754702810899E-003
                     9 -1.195850174713077E-011
                    10  4.246185999114569E-005
                    11 -4.489109359044905E-005
                    12 -9.276155429470202E-013
                    13 -2.918600540674491E-005
                    14 -3.541603950986570E-004
                    15  2.350676094879236E-005
                    16  8.638918331309989E-013
                    17 -1.058069363792941E-005
                    18  6.310159503053611E-005
                    19 -2.184062058704549E-013
                    20 -3.811643222768333E-004
                    21 -1.668054770448184E-012
                    22 -1.281525192885127E-004
                    23 -3.945087855060660E-004
                    24  2.056844968132561E-012
                    25  1.699326899055438E-004
                    26  1.227259982526523E-012
                    27  5.109507064868606E-005
                    28 -1.235227072586097E-005
                    29 -1.026368732551443E-012
                    30 -3.213425560289765E-013
                    31  1.388743659282633E-005
                    32   1.00105764203794     
                    33  9.201720883445895E-003
                    34  2.663940682931937E-003
                    35 -7.775799593532122E-003
                    36 -2.749231509270011E-011
                    37 -9.365901838737094E-006
                    38 -3.977380351593136E-003
                    39  1.535660736722103E-011
                    40  3.183950558449865E-005
                    41  1.059027806695008E-003
                    42  1.694812631573330E-012
                    43 -1.266851424334164E-004
                    44  4.599536567407040E-003
                    45  4.573035802335323E-004
                    46 -2.597855284065650E-012
                    47  9.531808134459578E-006
                    48 -4.331624145708508E-004
                    49  1.378063993485251E-012
                    50  5.499478319648099E-004
                    51 -9.076117319820338E-012
                    52 -8.804747266870164E-005
                    53  9.515610352889254E-004
                    54 -2.821427936455768E-012
                    55  3.715820976471637E-004
                    56  4.766312003858853E-012
                    57 -2.744839645520310E-006
                    58 -2.131861532418790E-004
                    59  3.230612030433477E-012
                    60 -7.066431936431120E-013
                    61 -1.558467539664152E-006
                    62  7.243927858245114E-003
                    63 -2.075020961083161E-003
                    64 -2.774565455295594E-004
                    65  3.063778457531302E-003
                    66  5.861109990972395E-012
                    67  1.285515406341625E-004
                    68 -5.221545472629086E-005
                    69  1.593674075885172E-012
                    70  5.742260929913127E-004
                    71  2.166747220502551E-005
                    72  1.066832907405816E-011
                    73 -2.217172672365267E-003
                    74  1.585810013984019E-004
                    75 -1.683619171888234E-005
                    76 -6.040632574749249E-013
                    77  1.427619961450728E-005
                    78  2.723686868067400E-005
                    79 -2.804588815742227E-012
                    80  7.928987689264173E-004
                    81  8.427820464260648E-012
                    82 -4.358070235866757E-004
                    83 -1.202354328187140E-006
                    84  4.805439211521705E-012
                    85  7.378520499365459E-005
                    86 -1.311798937017844E-012
                    87  5.236789818110715E-005
                    88 -1.242933984991598E-004
                    89  2.235287513660440E-012
                    90  1.177417468718103E-012
                    91  5.044363014438406E-005
                    92  7.217387389077303E-003
                    93 -2.044802522770840E-003
                    94 -2.819544904748747E-004
                    95  3.098847296183295E-003
                    96 -3.744318429649634E-012
                    97 -1.266700773637129E-004
                    98 -6.115270625792490E-005
                    99  9.171123793590845E-012
                   100 -6.264455374628285E-004
                   101  4.117947544635912E-005
                   102 -1.129428590231278E-011
                   103  2.119659978045370E-003
                   104 -2.344788479278347E-005
                   105 -1.708071016681344E-005
                   106  1.423193289628476E-012
                   107 -1.251684972127234E-005
                   108  2.632359871654270E-005
                   109 -4.824265698902711E-013
                   110  7.571648016814846E-004
                   111 -8.460799093433179E-012
                   112  4.264987405385968E-004
                   113 -1.631765722996452E-005
                   114  4.659330433739638E-012
                   115  7.182980794405636E-005
                   116  1.097877875202747E-012
                   117 -4.295202393994802E-005
                   118 -1.271588850172446E-004
                   119 -1.486615020001432E-012
                   120  1.263063983915548E-012
                   121 -5.070720777127992E-005
                   122 -2.451379117231545E-004
                   123 -8.043136554890246E-004
                   124  2.234327610290714E-004
                   125 -8.764455941842459E-005
                   126 -1.166245784686369E-011
                   127 -2.472057381416690E-005
                   128 -2.231927335851860E-004
                   129  1.008601608229838E-011
                   130  8.422784461742765E-006
                   131  5.427826313130173E-004
                   132 -1.248956934717944E-011
                   133  3.732059103730764E-004
                   134  8.662379179053793E-004
                   135 -1.358750625500732E-005
                   136  2.392552781177903E-013
                   137  5.162267333781813E-005
                   138  1.350103567140609E-005
                   139 -6.694351365134828E-012
                   140 -3.036937423872481E-004
                   141  3.641528470843283E-012
                   142 -2.215005624257429E-004
                   143 -1.758242470607715E-005
                   144  2.735947703729909E-012
                   145  7.303376262928519E-007
                   146 -2.636606379321624E-012
                   147 -4.217625401979483E-005
                   148 -3.925832888988814E-005
                   149  1.240066353874566E-012
                   150  1.883818794223983E-012
                   151 -6.197956873874550E-006
                   152 -2.409397208745732E-004
                   153 -7.766760667079402E-004
                   154  2.282610187642751E-004
                   155 -1.169564141061840E-004
                   156  1.870230287324499E-012
                   157  2.011099245470922E-005
                   158 -2.274307744289205E-004
                   159 -5.697460994468327E-012
                   160  1.674168692329750E-005