[Molden Format]
[Atoms] AU
  N     1    7    -0.1011941400   -4.3512494900    0.0000000000        
  C     2    6     0.0282391700   -1.8267526300    0.0000000000        
  C     3    6    -2.2960367100   -0.4276691000    0.0000000000        
  C     4    6     2.3308041600   -0.4033549200    0.0000000000        
  C     5    6    -2.2775585500    2.1564588500    0.0000000000        
  C     6    6     2.2976090300    2.1837394900    0.0000000000        
  C     7    6     0.0037433700    3.4920195700    0.0000000000        
  H     8    1    -3.2406084800   -6.4556109400    0.0000000000        
  H     9    1     1.6946459800   -5.0888234800    0.0000000000        
  H    10    1    -4.0315738300   -1.4686194800    0.0000000000        
  H    11    1     4.0947164300   -1.4072360400    0.0000000000        
  H    12    1    -4.0306803300    3.1787199600    0.0000000000        
  H    13    1     4.0427565200    3.2191342000    0.0000000000        
  H    14    1    -0.0072089500    5.5197149700    0.0000000000        
[5D]
[7F]
[GTO]
  1  0
   s    12 1.00
  0.114200D+05  0.172695D-04
  0.171200D+04  0.134411D-03
  0.389300D+03  0.694561D-03
  0.110000D+03  0.278531D-02
  0.355700D+02  0.863457D-02
  0.125400D+02  0.199805D-01
  0.464400D+01  0.262908D-01
  0.129300D+01 -0.243845D-01
  0.511800D+00 -0.924934D-01
  0.178700D+00 -0.339683D+00
  0.246240D-01  0.345111D+00
  0.112530D-01  0.752750D+00
   s    10 1.00
  0.114200D+05  0.523000D-03
  0.171200D+04  0.404500D-02
  0.389300D+03  0.207750D-01
  0.110000D+03  0.807269D-01
  0.355700D+02  0.233074D+00
  0.125400D+02  0.433501D+00
  0.464400D+01  0.347472D+00
  0.129300D+01  0.412620D-01
  0.511800D+00 -0.850799D-02
  0.178700D+00  0.238400D-02
   s    10 1.00
  0.114200D+05 -0.115000D-03
  0.171200D+04 -0.895000D-03
  0.389300D+03 -0.462400D-02
  0.110000D+03 -0.185280D-01
  0.355700D+02 -0.573390D-01
  0.125400D+02 -0.132076D+00
  0.464400D+01 -0.172510D+00
  0.129300D+01  0.151814D+00
  0.511800D+00  0.599944D+00
  0.178700D+00  0.387462D+00
   s     1 1.00
  0.129300D+01  0.100000D+01
   s     1 1.00
  0.178700D+00  0.100000D+01
   p     5 1.00
  0.266300D+02  0.146700D-01
  0.594800D+01  0.917640D-01
  0.174200D+01  0.298683D+00
  0.555000D+00  0.498487D+00
  0.172500D+00  0.337023D+00
   p     1 1.00
  0.174200D+01  0.100000D+01
   p     1 1.00
  0.555000D+00  0.100000D+01
   d     1 1.00
  0.165400D+01  0.100000D+01
   d     1 1.00
  0.469000D+00  0.100000D+01
   f     1 1.00
  0.109300D+01  0.100000D+01
  
  2  0
   s    10 1.00
  0.823600D+04  0.531000D-03
  0.123500D+04  0.410800D-02
  0.280800D+03  0.210870D-01
  0.792700D+02  0.818530D-01
  0.255900D+02  0.234817D+00
  0.899700D+01  0.434401D+00
  0.331900D+01  0.346129D+00
  0.905900D+00  0.393780D-01
  0.364300D+00 -0.898300D-02
  0.128500D+00  0.238500D-02
   s    10 1.00
  0.823600D+04 -0.113000D-03
  0.123500D+04 -0.878000D-03
  0.280800D+03 -0.454000D-02
  0.792700D+02 -0.181330D-01
  0.255900D+02 -0.557600D-01
  0.899700D+01 -0.126895D+00
  0.331900D+01 -0.170352D+00
  0.905900D+00  0.140382D+00
  0.364300D+00  0.598684D+00
  0.128500D+00  0.395389D+00
   s     1 1.00
  0.905900D+00  0.100000D+01
   s     1 1.00
  0.364300D+00  0.100000D+01
   p     5 1.00
  0.187100D+02  0.140310D-01
  0.413300D+01  0.868660D-01
  0.120000D+01  0.290216D+00
  0.382700D+00  0.501008D+00
  0.120900D+00  0.343406D+00
   p     1 1.00
  0.382700D+00  0.100000D+01
   p     1 1.00
  0.120900D+00  0.100000D+01
   d     1 1.00
  0.109700D+01  0.100000D+01
   d     1 1.00
  0.318000D+00  0.100000D+01
   f     1 1.00
  0.761000D+00  0.100000D+01
  
  3  0
   s    10 1.00
  0.823600D+04  0.531000D-03
  0.123500D+04  0.410800D-02
  0.280800D+03  0.210870D-01
  0.792700D+02  0.818530D-01
  0.255900D+02  0.234817D+00
  0.899700D+01  0.434401D+00
  0.331900D+01  0.346129D+00
  0.905900D+00  0.393780D-01
  0.364300D+00 -0.898300D-02
  0.128500D+00  0.238500D-02
   s    10 1.00
  0.823600D+04 -0.113000D-03
  0.123500D+04 -0.878000D-03
  0.280800D+03 -0.454000D-02
  0.792700D+02 -0.181330D-01
  0.255900D+02 -0.557600D-01
  0.899700D+01 -0.126895D+00
  0.331900D+01 -0.170352D+00
  0.905900D+00  0.140382D+00
  0.364300D+00  0.598684D+00
  0.128500D+00  0.395389D+00
   s     1 1.00
  0.905900D+00  0.100000D+01
   s     1 1.00
  0.364300D+00  0.100000D+01
   p     5 1.00
  0.187100D+02  0.140310D-01
  0.413300D+01  0.868660D-01
  0.120000D+01  0.290216D+00
  0.382700D+00  0.501008D+00
  0.120900D+00  0.343406D+00
   p     1 1.00
  0.382700D+00  0.100000D+01
   p     1 1.00
  0.120900D+00  0.100000D+01
   d     1 1.00
  0.109700D+01  0.100000D+01
   d     1 1.00
  0.318000D+00  0.100000D+01
   f     1 1.00
  0.761000D+00  0.100000D+01
  
  4  0
   s    10 1.00
  0.823600D+04  0.531000D-03
  0.123500D+04  0.410800D-02
  0.280800D+03  0.210870D-01
  0.792700D+02  0.818530D-01
  0.255900D+02  0.234817D+00
  0.899700D+01  0.434401D+00
  0.331900D+01  0.346129D+00
  0.905900D+00  0.393780D-01
  0.364300D+00 -0.898300D-02
  0.128500D+00  0.238500D-02
   s    10 1.00
  0.823600D+04 -0.113000D-03
  0.123500D+04 -0.878000D-03
  0.280800D+03 -0.454000D-02
  0.792700D+02 -0.181330D-01
  0.255900D+02 -0.557600D-01
  0.899700D+01 -0.126895D+00
  0.331900D+01 -0.170352D+00
  0.905900D+00  0.140382D+00
  0.364300D+00  0.598684D+00
  0.128500D+00  0.395389D+00
   s     1 1.00
  0.905900D+00  0.100000D+01
   s     1 1.00
  0.364300D+00  0.100000D+01
   p     5 1.00
  0.187100D+02  0.140310D-01
  0.413300D+01  0.868660D-01
  0.120000D+01  0.290216D+00
  0.382700D+00  0.501008D+00
  0.120900D+00  0.343406D+00
   p     1 1.00
  0.382700D+00  0.100000D+01
   p     1 1.00
  0.120900D+00  0.100000D+01
   d     1 1.00
  0.109700D+01  0.100000D+01
   d     1 1.00
  0.318000D+00  0.100000D+01
   f     1 1.00
  0.761000D+00  0.100000D+01
  
  5  0
   s    10 1.00
  0.823600D+04  0.531000D-03
  0.123500D+04  0.410800D-02
  0.280800D+03  0.210870D-01
  0.792700D+02  0.818530D-01
  0.255900D+02  0.234817D+00
  0.899700D+01  0.434401D+00
  0.331900D+01  0.346129D+00
  0.905900D+00  0.393780D-01
  0.364300D+00 -0.898300D-02
  0.128500D+00  0.238500D-02
   s    10 1.00
  0.823600D+04 -0.113000D-03
  0.123500D+04 -0.878000D-03
  0.280800D+03 -0.454000D-02
  0.792700D+02 -0.181330D-01
  0.255900D+02 -0.557600D-01
  0.899700D+01 -0.126895D+00
  0.331900D+01 -0.170352D+00
  0.905900D+00  0.140382D+00
  0.364300D+00  0.598684D+00
  0.128500D+00  0.395389D+00
   s     1 1.00
  0.905900D+00  0.100000D+01
   s     1 1.00
  0.364300D+00  0.100000D+01
   p     5 1.00
  0.187100D+02  0.140310D-01
  0.413300D+01  0.868660D-01
  0.120000D+01  0.290216D+00
  0.382700D+00  0.501008D+00
  0.120900D+00  0.343406D+00
   p     1 1.00
  0.382700D+00  0.100000D+01
   p     1 1.00
  0.120900D+00  0.100000D+01
   d     1 1.00
  0.109700D+01  0.100000D+01
   d     1 1.00
  0.318000D+00  0.100000D+01
   f     1 1.00
  0.761000D+00  0.100000D+01
  
  6  0
   s    10 1.00
  0.823600D+04  0.531000D-03
  0.123500D+04  0.410800D-02
  0.280800D+03  0.210870D-01
  0.792700D+02  0.818530D-01
  0.255900D+02  0.234817D+00
  0.899700D+01  0.434401D+00
  0.331900D+01  0.346129D+00
  0.905900D+00  0.393780D-01
  0.364300D+00 -0.898300D-02
  0.128500D+00  0.238500D-02
   s    10 1.00
  0.823600D+04 -0.113000D-03
  0.123500D+04 -0.878000D-03
  0.280800D+03 -0.454000D-02
  0.792700D+02 -0.181330D-01
  0.255900D+02 -0.557600D-01
  0.899700D+01 -0.126895D+00
  0.331900D+01 -0.170352D+00
  0.905900D+00  0.140382D+00
  0.364300D+00  0.598684D+00
  0.128500D+00  0.395389D+00
   s     1 1.00
  0.905900D+00  0.100000D+01
   s     1 1.00
  0.364300D+00  0.100000D+01
   p     5 1.00
  0.187100D+02  0.140310D-01
  0.413300D+01  0.868660D-01
  0.120000D+01  0.290216D+00
  0.382700D+00  0.501008D+00
  0.120900D+00  0.343406D+00
   p     1 1.00
  0.382700D+00  0.100000D+01
   p     1 1.00
  0.120900D+00  0.100000D+01
   d     1 1.00
  0.109700D+01  0.100000D+01
   d     1 1.00
  0.318000D+00  0.100000D+01
   f     1 1.00
  0.761000D+00  0.100000D+01
  
  7  0
   s    10 1.00
  0.823600D+04  0.531000D-03
  0.123500D+04  0.410800D-02
  0.280800D+03  0.210870D-01
  0.792700D+02  0.818530D-01
  0.255900D+02  0.234817D+00
  0.899700D+01  0.434401D+00
  0.331900D+01  0.346129D+00
  0.905900D+00  0.393780D-01
  0.364300D+00 -0.898300D-02
  0.128500D+00  0.238500D-02
   s    10 1.00
  0.823600D+04 -0.113000D-03
  0.123500D+04 -0.878000D-03
  0.280800D+03 -0.454000D-02
  0.792700D+02 -0.181330D-01
  0.255900D+02 -0.557600D-01
  0.899700D+01 -0.126895D+00
  0.331900D+01 -0.170352D+00
  0.905900D+00  0.140382D+00
  0.364300D+00  0.598684D+00
  0.128500D+00  0.395389D+00
   s     1 1.00
  0.905900D+00  0.100000D+01
   s     1 1.00
  0.364300D+00  0.100000D+01
   p     5 1.00
  0.187100D+02  0.140310D-01
  0.413300D+01  0.868660D-01
  0.120000D+01  0.290216D+00
  0.382700D+00  0.501008D+00
  0.120900D+00  0.343406D+00
   p     1 1.00
  0.382700D+00  0.100000D+01
   p     1 1.00
  0.120900D+00  0.100000D+01
   d     1 1.00
  0.109700D+01  0.100000D+01
   d     1 1.00
  0.318000D+00  0.100000D+01
   f     1 1.00
  0.761000D+00  0.100000D+01
  
  8  0
   s     4 1.00
  0.130100D+02  0.196850D-01
  0.196200D+01  0.137977D+00
  0.444600D+00  0.478148D+00
  0.122000D+00  0.501240D+00
   s     1 1.00
  0.122000D+00  0.100000D+01
   p     1 1.00
  0.727000D+00  0.100000D+01
  
  9  0
   s     4 1.00
  0.130100D+02  0.196850D-01
  0.196200D+01  0.137977D+00
  0.444600D+00  0.478148D+00
  0.122000D+00  0.501240D+00
   s     1 1.00
  0.122000D+00  0.100000D+01
   p     1 1.00
  0.727000D+00  0.100000D+01
  
 10  0
   s     4 1.00
  0.130100D+02  0.196850D-01
  0.196200D+01  0.137977D+00
  0.444600D+00  0.478148D+00
  0.122000D+00  0.501240D+00
   s     1 1.00
  0.122000D+00  0.100000D+01
   p     1 1.00
  0.727000D+00  0.100000D+01
  
 11  0
   s     4 1.00
  0.130100D+02  0.196850D-01
  0.196200D+01  0.137977D+00
  0.444600D+00  0.478148D+00
  0.122000D+00  0.501240D+00
   s     1 1.00
  0.122000D+00  0.100000D+01
   p     1 1.00
  0.727000D+00  0.100000D+01
  
 12  0
   s     4 1.00
  0.130100D+02  0.196850D-01
  0.196200D+01  0.137977D+00
  0.444600D+00  0.478148D+00
  0.122000D+00  0.501240D+00
   s     1 1.00
  0.122000D+00  0.100000D+01
   p     1 1.00
  0.727000D+00  0.100000D+01
  
 13  0
   s     4 1.00
  0.130100D+02  0.196850D-01
  0.196200D+01  0.137977D+00
  0.444600D+00  0.478148D+00
  0.122000D+00  0.501240D+00
   s     1 1.00
  0.122000D+00  0.100000D+01
   p     1 1.00
  0.727000D+00  0.100000D+01
  
 14  0
   s     4 1.00
  0.130100D+02  0.196850D-01
  0.196200D+01  0.137977D+00
  0.444600D+00  0.478148D+00
  0.122000D+00  0.501240D+00
   s     1 1.00
  0.122000D+00  0.100000D+01
   p     1 1.00
  0.727000D+00  0.100000D+01
  
[MO]
 Sym= __1_a__
 Ene=  0.000000000000000E+000
 Spin= Alpha
 Occup=    2.00000000000000     
                     1  8.585470405936740E-005
                     2  0.998314991848766     
                     3  2.631662534295730E-003
                     4  1.713676133412680E-003
                     5  5.580952013674690E-003
                     6  3.611323309029830E-003
                     7  6.227108989244310E-003
                     8  0.000000000000000E+000
                     9 -6.221519005872450E-004
                    10 -6.429788232149820E-004
                    11  0.000000000000000E+000
                    12 -2.479521483505420E-003
                    13 -1.677010345403770E-003
                    14  0.000000000000000E+000
                    15 -1.027496984274193E-004
                    16  0.000000000000000E+000
                    17  0.000000000000000E+000
                    18 -1.745399859935822E-004
                    19 -8.999062419144699E-005
                    20  6.329198381222509E-005
                    21  0.000000000000000E+000
                    22  0.000000000000000E+000
                    23 -3.173675095296540E-004
                    24  5.952020331058880E-004
                    25  0.000000000000000E+000
                    26 -1.681653425142587E-005
                    27 -6.292995363061886E-005
                    28  0.000000000000000E+000
                    29  0.000000000000000E+000
                    30  3.778894039772555E-005
                    31 -1.536517371252985E-004
                    32 -4.134172455395150E-004
                    33  1.003801384813920E-003
                    34  3.409235814181990E-004
                    35 -3.663290154267150E-004
                    36 -3.717885070022070E-004
                    37 -4.888579961561610E-003
                    38  0.000000000000000E+000
                    39  4.919298641120910E-004
                    40  5.434191183097940E-004
                    41  0.000000000000000E+000
                    42 -2.269008455420790E-003
                    43  5.545878743412220E-003
                    44  0.000000000000000E+000
                    45 -1.440877232383914E-005
                    46  0.000000000000000E+000
                    47  0.000000000000000E+000
                    48 -2.245886956259540E-004
                    49 -8.233167180348181E-006
                    50 -2.407816195333450E-004
                    51  0.000000000000000E+000
                    52  0.000000000000000E+000
                    53  5.857010382288860E-005
                    54  8.901272028549490E-004
                    55  0.000000000000000E+000
                    56 -8.635858629257400E-006
                    57 -6.039676292411799E-005
                    58  0.000000000000000E+000
                    59  0.000000000000000E+000
                    60  2.903154141339170E-005
                    61 -1.206975834208659E-004
                    62 -5.181170468646660E-004
                    63 -2.401334741894340E-003
                    64 -8.853210359221181E-005
                    65  2.223570015163420E-003
                    66 -6.704100608134760E-004
                    67  5.522421125149430E-004
                    68  0.000000000000000E+000
                    69  4.525731555452990E-004
                    70  8.599360692707720E-004
                    71  0.000000000000000E+000
                    72 -1.940735344249530E-003
                    73  9.202392227194450E-004
                    74  0.000000000000000E+000
                    75 -4.180865641252450E-005
                    76  0.000000000000000E+000
                    77  0.000000000000000E+000
                    78 -8.779478332074200E-005
                    79 -2.795984217196660E-005
                    80 -1.268149008774357E-004
                    81  0.000000000000000E+000
                    82  0.000000000000000E+000
                    83  6.429762601493440E-005
                    84  8.524833797832560E-005
                    85  0.000000000000000E+000
                    86  1.314328414191774E-005
                    87 -5.046451688574083E-005
                    88  0.000000000000000E+000
                    89  0.000000000000000E+000
                    90 -1.642800591380780E-005
                    91 -1.540098113853036E-004
                    92 -1.760409643809560E-004
                    93 -1.256544404800990E-003
                    94  2.131358045578920E-004
                    95 -2.315191526919230E-004
                    96  6.214904911305260E-004
                    97  8.202784565025680E-004
                    98  0.000000000000000E+000
                    99  4.409124229411060E-004
                   100  3.627317226215350E-004
                   101  0.000000000000000E+000
                   102  4.471761383919820E-004
                   103 -1.925146034689160E-003
                   104  0.000000000000000E+000
                   105  2.929960580232881E-006
                   106  0.000000000000000E+000
                   107  0.000000000000000E+000
                   108 -8.167121660330520E-005
                   109 -2.588865221173800E-005
                   110  1.040308278754547E-004
                   111  0.000000000000000E+000
                   112  0.000000000000000E+000
                   113 -1.968946455559938E-004
                   114 -1.604594169860450E-005
                   115  0.000000000000000E+000
                   116 -2.694832811598930E-005
                   117 -2.621647970211941E-005
                   118  0.000000000000000E+000
                   119  0.000000000000000E+000
                   120 -1.815414938360712E-005
                   121 -2.106631466124988E-005
                   122 -2.574606218994290E-004
                   123 -4.817378145408160E-004
                   124  1.733000568396130E-004
                   125  3.458718910533880E-004
                   126 -1.955658062234090E-005
                   127 -6.140635130760180E-004
                   128  0.000000000000000E+000
                   129  1.968923358614800E-004
                   130  6.508494711943050E-004
                   131  0.000000000000000E+000
                   132  5.989139714762270E-004
                   133  2.228460548647430E-003
                   134  0.000000000000000E+000
                   135  1.277990807936809E-005
                   136  0.000000000000000E+000
                   137  0.000000000000000E+000
                   138  3.873256323629220E-005
                   139  1.824743062109390E-006
                   140  1.975597481628667E-004
                   141  0.000000000000000E+000
                   142  0.000000000000000E+000
                   143  3.999795278000220E-004
                   144  2.548395602065540E-004
                   145  0.000000000000000E+000
                   146 -9.685277223352233E-006
                   147 -6.381515580004661E-005
                   148  0.000000000000000E+000
                   149  0.000000000000000E+000
                   150 -2.152051893589436E-005
                   151 -4.868190780314926E-005
                   152 -1.497137351444420E-004
                   153 -1.273426249063970E-004
                   154  5.309694376457300E-005
                   155  2.155665048307350E-004
                   156 -3.669664535172000E-005
                   157 -5.656189038606490E-004
                   158  0.000000000000000E+000
                   159  5.346697111650900E-005
                   160  5.755272273854020E-005
                   161  0.000000000000000E+000
                   162  8.258336211598440E-004
                   163 -4.721155202085980E-004
                   164  0.000000000000000E+000
                   165 -2.224425943997430E-006
                   166  0.000000000000000E+000
                   167  0.000000000000000E+000
                   168 -1.137526484071040E-005
                   169  1.072901919217390E-006
                   170  8.668567516969556E-005
                   171  0.000000000000000E+000
                   172  0.000000000000000E+000
                   173  1.924937900672020E-005
                   174  2.620571444354580E-006
                   175  0.000000000000000E+000
                   176  1.246609514097373E-006
                   177 -8.277823331459258E-006
                   178  0.000000000000000E+000
                   179  0.000000000000000E+000
                   180 -1.685734838830270E-005
                   181 -1.843732703048590E-005
                   182 -1.604473223911460E-004
                   183 -4.785638664888070E-004
                   184  3.692150891826190E-005
                   185  2.303412149164180E-004
                   186 -4.820357824043400E-005
                   187 -3.958221693201840E-005
                   188  0.000000000000000E+000
                   189  2.682405012650470E-004
                   190  9.482298012633820E-005
                   191  0.000000000000000E+000
                   192  1.543482768832950E-003
                   193 -2.746747985772570E-004
                   194  0.000000000000000E+000
                   195  1.602838511783668E-006
                   196  0.000000000000000E+000
                   197  0.000000000000000E+000
                   198 -1.194808848821764E-005
                   199  3.896409909302410E-006
                   200 -1.402128212909578E-005
                   201  0.000000000000000E+000
                   202  0.000000000000000E+000
                   203 -8.427147060279920E-005
                   204 -2.152300320800670E-004
                   205  0.000000000000000E+000
                   206 -9.343757119906637E-006
                   207 -4.060452173989150E-006
                   208  0.000000000000000E+000
                   209  0.000000000000000E+000
                   210  1.044535248034752E-005
                   211 -7.775618587606816E-006
                   212 -7.988245999264310E-005
                   213  1.161505391423870E-004
                   214  4.189494306944650E-005
                   215  5.785995593683960E-005
                   216  0.000000000000000E+000
                   217  1.756984714312810E-003
                   218 -1.809198599006610E-003
                   219 -4.575392013786550E-004
                   220  1.604775275072410E-004
                   221  0.000000000000000E+000
                   222 -5.077619506275260E-004
                   223 -6.288679146460750E-004
                   224  5.713286740381180E-006
                   225 -7.263605467374460E-005
                   226  0.000000000000000E+000
                   227 -2.998821359667890E-004
                   228 -4.786943056883570E-004
                   229 -1.806942980692950E-005
                   230 -1.449672567648050E-005
                   231  0.000000000000000E+000
                   232 -9.106505733011180E-005
                   233 -4.860298281457830E-004
                   234  2.234153615738780E-006
                   235 -1.765409343922000E-006
                   236  0.000000000000000E+000
                   237 -1.933115369665170E-004
                   238 -3.685694092092100E-004
                   239  5.181736534753410E-006
                   240 -3.409368897528420E-008
                   241  0.000000000000000E+000
                   242  1.147159081834130E-005
                   243  5.735065787542190E-005
                   244 -7.884764451449860E-007
                   245  2.931113272485730E-005
                   246  0.000000000000000E+000
 Sym= __2_a__
 Ene=  0.000000000000000E+000
 Spin= Alpha
 Occup=    2.00000000000000     
                     1 -4.978822383991990E-005
                     2 -2.739841780209370E-004
                     3  2.703567901117930E-003
                     4  1.253253833897220E-004
                     5  1.361193540661090E-003
                     6 -3.885253327648330E-004
                     7  2.945922839568890E-003
                     8  0.000000000000000E+000
                     9 -4.153414229472040E-005
                    10 -1.152390963990670E-004
                    11  0.000000000000000E+000
                    12 -4.679802032014900E-005
                    13 -3.443295955025650E-004
                    14  0.000000000000000E+000
                    15  3.072917619539651E-005
                    16  0.000000000000000E+000
                    17  0.000000000000000E+000
                    18 -4.486312072376880E-005
                    19  2.402328586528220E-005
                    20 -1.110085965139573E-004
                    21  0.000000000000000E+000
                    22  0.000000000000000E+000
                    23  1.156729888845436E-004
                    24 -1.461873269201760E-004
                    25  0.000000000000000E+000
                    26 -1.670108958651660E-005
                    27  9.359322510246643E-005
                    28  0.000000000000000E+000
                    29  0.000000000000000E+000
                    30 -6.661576540239343E-005
                    31  1.437589341806721E-004
                    32   1.00102516425068     
                    33  9.247525416362080E-003
                    34  2.676232851923170E-003
                    35 -8.054819796658961E-003
                    36 -2.659429877414830E-005
                    37 -3.250570789624310E-003
                    38  0.000000000000000E+000
                    39 -1.976677392208130E-004
                    40  1.946270504202710E-004
                    41  0.000000000000000E+000
                    42 -1.482408076470630E-004
                    43  4.077241132277780E-003
                    44  0.000000000000000E+000
                    45 -5.565356836373561E-004
                    46  0.000000000000000E+000
                    47  0.000000000000000E+000
                    48 -2.055418992697000E-004
                    49  4.506454380369960E-005
                    50  5.311611401094197E-004
                    51  0.000000000000000E+000
                    52  0.000000000000000E+000
                    53 -6.636256402236639E-004
                    54 -3.936378376194120E-004
                    55  0.000000000000000E+000
                    56  1.222203072227398E-005
                    57  9.604537507599504E-005
                    58  0.000000000000000E+000
                    59  0.000000000000000E+000
                    60 -3.426896068594784E-005
                    61  3.914340836590193E-004
                    62  8.825471000598949E-003
                    63 -2.072477943808620E-003
                    64 -2.437054076838020E-004
                    65  2.698398470820330E-003
                    66  1.032647379917430E-005
                    67  8.777716750537940E-005
                    68  0.000000000000000E+000
                    69  5.234558581603000E-004
                    70  1.546286707901000E-004
                    71  0.000000000000000E+000
                    72 -2.115723959436160E-003
                    73  2.975797901493760E-004
                    74  0.000000000000000E+000
                    75  3.672184300051272E-005
                    76  0.000000000000000E+000
                    77  0.000000000000000E+000
                    78 -4.244850065867320E-006
                    79  4.312003987527230E-006
                    80 -4.238061315897601E-004
                    81  0.000000000000000E+000
                    82  0.000000000000000E+000
                    83 -6.539820845090620E-004
                    84 -2.426268597228680E-004
                    85  0.000000000000000E+000
                    86  2.735325508515014E-005
                    87 -5.849413932851986E-005
                    88  0.000000000000000E+000
                    89  0.000000000000000E+000
                    90  3.863746208037837E-005
                    91  1.498433180359178E-004
                    92  1.102441629305170E-002
                    93 -2.072221712855870E-003
                    94 -3.132671045128530E-004
                    95  3.213923000405810E-003
                    96  6.971317065200259E-005
                    97  5.534324856183510E-005
                    98  0.000000000000000E+000
                    99 -9.356187728399500E-004
                   100  1.561211567906730E-005
                   101  0.000000000000000E+000
                   102  1.741682369658440E-003
                   103  2.030423840913390E-005
                   104  0.000000000000000E+000
                   105  2.413838150847381E-005
                   106  0.000000000000000E+000
                   107  0.000000000000000E+000
                   108 -3.702442911705780E-006
                   109  8.907494796392880E-006
                   110 -4.231727267716220E-004
                   111  0.000000000000000E+000
                   112  0.000000000000000E+000
                   113 -3.795737861453080E-004
                   114  2.605201236851130E-004
                   115  0.000000000000000E+000
                   116 -2.917075114007333E-005
                   117 -7.036348383944383E-005
                   118  0.000000000000000E+000
                   119  0.000000000000000E+000
                   120 -7.965423984466972E-006
                   121  1.329165787882117E-004
                   122 -1.750179970138670E-004
                   123 -6.842524103177840E-004
                   124  2.298681202127250E-004
                   125 -1.246426542598200E-004
                   126  3.477168217903510E-006
                   127 -3.620902863985880E-004
                   128  0.000000000000000E+000
                   129 -7.769484324421850E-005
                   130  6.138997859334560E-004
                   131  0.000000000000000E+000
                   132  3.782894606531000E-004
                   133  9.070754905395160E-004
                   134  0.000000000000000E+000
                   135  1.832306676300049E-005
                   136  0.000000000000000E+000
                   137  0.000000000000000E+000
                   138  4.894441028346640E-006
                   139  4.329606558488350E-005
                   140  1.310649629191140E-004
                   141  0.000000000000000E+000
                   142  0.000000000000000E+000
                   143  2.515685920533880E-004
                   144 -1.078926598871620E-004
                   145  0.000000000000000E+000
                   146  9.228532910312279E-006
                   147 -3.702910157742310E-005
                   148  0.000000000000000E+000
                   149  0.000000000000000E+000
                   150 -4.456653557804647E-005
                   151  3.641141492446239E-005
                   152 -1.103901303219210E-004
                   153 -6.775824934903210E-004
                   154  2.304529193039670E-004
                   155 -3.866541575994320E-005
                   156 -3.134182089963560E-005
                   157 -3.565863171939350E-004
                   158  0.000000000000000E+000
                   159  1.357712378260750E-004
                   160  5.358827269429870E-004