[Molden Format]
[Atoms] AU
  N     1    7    -0.1011941400   -4.3512494900    0.0000000000        
  C     2    6     0.0282391700   -1.8267526300    0.0000000000        
  C     3    6    -2.2960367100   -0.4276691000    0.0000000000        
  C     4    6     2.3308041600   -0.4033549200    0.0000000000        
  C     5    6    -2.2775585500    2.1564588500    0.0000000000        
  C     6    6     2.2976090300    2.1837394900    0.0000000000        
  C     7    6     0.0037433700    3.4920195700    0.0000000000        
  H     8    1    -3.2406084800   -6.4556109400    0.0000000000        
  H     9    1     1.6946459800   -5.0888234800    0.0000000000        
  H    10    1    -4.0315738300   -1.4686194800    0.0000000000        
  H    11    1     4.0947164300   -1.4072360400    0.0000000000        
  H    12    1    -4.0306803300    3.1787199600    0.0000000000        
  H    13    1     4.0427565200    3.2191342000    0.0000000000        
  H    14    1    -0.0072089500    5.5197149700    0.0000000000        
[5D]
[7F]
[GTO]
  1  0
   s    12 1.00
  0.114200D+05  0.172695D-04
  0.171200D+04  0.134411D-03
  0.389300D+03  0.694561D-03
  0.110000D+03  0.278531D-02
  0.355700D+02  0.863457D-02
  0.125400D+02  0.199805D-01
  0.464400D+01  0.262908D-01
  0.129300D+01 -0.243845D-01
  0.511800D+00 -0.924934D-01
  0.178700D+00 -0.339683D+00
  0.246240D-01  0.345111D+00
  0.112530D-01  0.752750D+00
   s    10 1.00
  0.114200D+05  0.523000D-03
  0.171200D+04  0.404500D-02
  0.389300D+03  0.207750D-01
  0.110000D+03  0.807269D-01
  0.355700D+02  0.233074D+00
  0.125400D+02  0.433501D+00
  0.464400D+01  0.347472D+00
  0.129300D+01  0.412620D-01
  0.511800D+00 -0.850799D-02
  0.178700D+00  0.238400D-02
   s    10 1.00
  0.114200D+05 -0.115000D-03
  0.171200D+04 -0.895000D-03
  0.389300D+03 -0.462400D-02
  0.110000D+03 -0.185280D-01
  0.355700D+02 -0.573390D-01
  0.125400D+02 -0.132076D+00
  0.464400D+01 -0.172510D+00
  0.129300D+01  0.151814D+00
  0.511800D+00  0.599944D+00
  0.178700D+00  0.387462D+00
   s     1 1.00
  0.129300D+01  0.100000D+01
   s     1 1.00
  0.178700D+00  0.100000D+01
   p     5 1.00
  0.266300D+02  0.146700D-01
  0.594800D+01  0.917640D-01
  0.174200D+01  0.298683D+00
  0.555000D+00  0.498487D+00
  0.172500D+00  0.337023D+00
   p     1 1.00
  0.174200D+01  0.100000D+01
   p     1 1.00
  0.555000D+00  0.100000D+01
   d     1 1.00
  0.165400D+01  0.100000D+01
   d     1 1.00
  0.469000D+00  0.100000D+01
   f     1 1.00
  0.109300D+01  0.100000D+01
  
  2  0
   s    10 1.00
  0.823600D+04  0.531000D-03
  0.123500D+04  0.410800D-02
  0.280800D+03  0.210870D-01
  0.792700D+02  0.818530D-01
  0.255900D+02  0.234817D+00
  0.899700D+01  0.434401D+00
  0.331900D+01  0.346129D+00
  0.905900D+00  0.393780D-01
  0.364300D+00 -0.898300D-02
  0.128500D+00  0.238500D-02
   s    10 1.00
  0.823600D+04 -0.113000D-03
  0.123500D+04 -0.878000D-03
  0.280800D+03 -0.454000D-02
  0.792700D+02 -0.181330D-01
  0.255900D+02 -0.557600D-01
  0.899700D+01 -0.126895D+00
  0.331900D+01 -0.170352D+00
  0.905900D+00  0.140382D+00
  0.364300D+00  0.598684D+00
  0.128500D+00  0.395389D+00
   s     1 1.00
  0.905900D+00  0.100000D+01
   s     1 1.00
  0.364300D+00  0.100000D+01
   p     5 1.00
  0.187100D+02  0.140310D-01
  0.413300D+01  0.868660D-01
  0.120000D+01  0.290216D+00
  0.382700D+00  0.501008D+00
  0.120900D+00  0.343406D+00
   p     1 1.00
  0.382700D+00  0.100000D+01
   p     1 1.00
  0.120900D+00  0.100000D+01
   d     1 1.00
  0.109700D+01  0.100000D+01
   d     1 1.00
  0.318000D+00  0.100000D+01
   f     1 1.00
  0.761000D+00  0.100000D+01
  
  3  0
   s    10 1.00
  0.823600D+04  0.531000D-03
  0.123500D+04  0.410800D-02
  0.280800D+03  0.210870D-01
  0.792700D+02  0.818530D-01
  0.255900D+02  0.234817D+00
  0.899700D+01  0.434401D+00
  0.331900D+01  0.346129D+00
  0.905900D+00  0.393780D-01
  0.364300D+00 -0.898300D-02
  0.128500D+00  0.238500D-02
   s    10 1.00
  0.823600D+04 -0.113000D-03
  0.123500D+04 -0.878000D-03
  0.280800D+03 -0.454000D-02
  0.792700D+02 -0.181330D-01
  0.255900D+02 -0.557600D-01
  0.899700D+01 -0.126895D+00
  0.331900D+01 -0.170352D+00
  0.905900D+00  0.140382D+00
  0.364300D+00  0.598684D+00
  0.128500D+00  0.395389D+00
   s     1 1.00
  0.905900D+00  0.100000D+01
   s     1 1.00
  0.364300D+00  0.100000D+01
   p     5 1.00
  0.187100D+02  0.140310D-01
  0.413300D+01  0.868660D-01
  0.120000D+01  0.290216D+00
  0.382700D+00  0.501008D+00
  0.120900D+00  0.343406D+00
   p     1 1.00
  0.382700D+00  0.100000D+01
   p     1 1.00
  0.120900D+00  0.100000D+01
   d     1 1.00
  0.109700D+01  0.100000D+01
   d     1 1.00
  0.318000D+00  0.100000D+01
   f     1 1.00
  0.761000D+00  0.100000D+01
  
  4  0
   s    10 1.00
  0.823600D+04  0.531000D-03
  0.123500D+04  0.410800D-02
  0.280800D+03  0.210870D-01
  0.792700D+02  0.818530D-01
  0.255900D+02  0.234817D+00
  0.899700D+01  0.434401D+00
  0.331900D+01  0.346129D+00
  0.905900D+00  0.393780D-01
  0.364300D+00 -0.898300D-02
  0.128500D+00  0.238500D-02
   s    10 1.00
  0.823600D+04 -0.113000D-03
  0.123500D+04 -0.878000D-03
  0.280800D+03 -0.454000D-02
  0.792700D+02 -0.181330D-01
  0.255900D+02 -0.557600D-01
  0.899700D+01 -0.126895D+00
  0.331900D+01 -0.170352D+00
  0.905900D+00  0.140382D+00
  0.364300D+00  0.598684D+00
  0.128500D+00  0.395389D+00
   s     1 1.00
  0.905900D+00  0.100000D+01
   s     1 1.00
  0.364300D+00  0.100000D+01
   p     5 1.00
  0.187100D+02  0.140310D-01
  0.413300D+01  0.868660D-01
  0.120000D+01  0.290216D+00
  0.382700D+00  0.501008D+00
  0.120900D+00  0.343406D+00
   p     1 1.00
  0.382700D+00  0.100000D+01
   p     1 1.00
  0.120900D+00  0.100000D+01
   d     1 1.00
  0.109700D+01  0.100000D+01
   d     1 1.00
  0.318000D+00  0.100000D+01
   f     1 1.00
  0.761000D+00  0.100000D+01
  
  5  0
   s    10 1.00
  0.823600D+04  0.531000D-03
  0.123500D+04  0.410800D-02
  0.280800D+03  0.210870D-01
  0.792700D+02  0.818530D-01
  0.255900D+02  0.234817D+00
  0.899700D+01  0.434401D+00
  0.331900D+01  0.346129D+00
  0.905900D+00  0.393780D-01
  0.364300D+00 -0.898300D-02
  0.128500D+00  0.238500D-02
   s    10 1.00
  0.823600D+04 -0.113000D-03
  0.123500D+04 -0.878000D-03
  0.280800D+03 -0.454000D-02
  0.792700D+02 -0.181330D-01
  0.255900D+02 -0.557600D-01
  0.899700D+01 -0.126895D+00
  0.331900D+01 -0.170352D+00
  0.905900D+00  0.140382D+00
  0.364300D+00  0.598684D+00
  0.128500D+00  0.395389D+00
   s     1 1.00
  0.905900D+00  0.100000D+01
   s     1 1.00
  0.364300D+00  0.100000D+01
   p     5 1.00
  0.187100D+02  0.140310D-01
  0.413300D+01  0.868660D-01
  0.120000D+01  0.290216D+00
  0.382700D+00  0.501008D+00
  0.120900D+00  0.343406D+00
   p     1 1.00
  0.382700D+00  0.100000D+01
   p     1 1.00
  0.120900D+00  0.100000D+01
   d     1 1.00
  0.109700D+01  0.100000D+01
   d     1 1.00
  0.318000D+00  0.100000D+01
   f     1 1.00
  0.761000D+00  0.100000D+01
  
  6  0
   s    10 1.00
  0.823600D+04  0.531000D-03
  0.123500D+04  0.410800D-02
  0.280800D+03  0.210870D-01
  0.792700D+02  0.818530D-01
  0.255900D+02  0.234817D+00
  0.899700D+01  0.434401D+00
  0.331900D+01  0.346129D+00
  0.905900D+00  0.393780D-01
  0.364300D+00 -0.898300D-02
  0.128500D+00  0.238500D-02
   s    10 1.00
  0.823600D+04 -0.113000D-03
  0.123500D+04 -0.878000D-03
  0.280800D+03 -0.454000D-02
  0.792700D+02 -0.181330D-01
  0.255900D+02 -0.557600D-01
  0.899700D+01 -0.126895D+00
  0.331900D+01 -0.170352D+00
  0.905900D+00  0.140382D+00
  0.364300D+00  0.598684D+00
  0.128500D+00  0.395389D+00
   s     1 1.00
  0.905900D+00  0.100000D+01
   s     1 1.00
  0.364300D+00  0.100000D+01
   p     5 1.00
  0.187100D+02  0.140310D-01
  0.413300D+01  0.868660D-01
  0.120000D+01  0.290216D+00
  0.382700D+00  0.501008D+00
  0.120900D+00  0.343406D+00
   p     1 1.00
  0.382700D+00  0.100000D+01
   p     1 1.00
  0.120900D+00  0.100000D+01
   d     1 1.00
  0.109700D+01  0.100000D+01
   d     1 1.00
  0.318000D+00  0.100000D+01
   f     1 1.00
  0.761000D+00  0.100000D+01
  
  7  0
   s    10 1.00
  0.823600D+04  0.531000D-03
  0.123500D+04  0.410800D-02
  0.280800D+03  0.210870D-01
  0.792700D+02  0.818530D-01
  0.255900D+02  0.234817D+00
  0.899700D+01  0.434401D+00
  0.331900D+01  0.346129D+00
  0.905900D+00  0.393780D-01
  0.364300D+00 -0.898300D-02
  0.128500D+00  0.238500D-02
   s    10 1.00
  0.823600D+04 -0.113000D-03
  0.123500D+04 -0.878000D-03
  0.280800D+03 -0.454000D-02
  0.792700D+02 -0.181330D-01
  0.255900D+02 -0.557600D-01
  0.899700D+01 -0.126895D+00
  0.331900D+01 -0.170352D+00
  0.905900D+00  0.140382D+00
  0.364300D+00  0.598684D+00
  0.128500D+00  0.395389D+00
   s     1 1.00
  0.905900D+00  0.100000D+01
   s     1 1.00
  0.364300D+00  0.100000D+01
   p     5 1.00
  0.187100D+02  0.140310D-01
  0.413300D+01  0.868660D-01
  0.120000D+01  0.290216D+00
  0.382700D+00  0.501008D+00
  0.120900D+00  0.343406D+00
   p     1 1.00
  0.382700D+00  0.100000D+01
   p     1 1.00
  0.120900D+00  0.100000D+01
   d     1 1.00
  0.109700D+01  0.100000D+01
   d     1 1.00
  0.318000D+00  0.100000D+01
   f     1 1.00
  0.761000D+00  0.100000D+01
  
  8  0
   s     4 1.00
  0.130100D+02  0.196850D-01
  0.196200D+01  0.137977D+00
  0.444600D+00  0.478148D+00
  0.122000D+00  0.501240D+00
   s     1 1.00
  0.122000D+00  0.100000D+01
   p     1 1.00
  0.727000D+00  0.100000D+01
  
  9  0
   s     4 1.00
  0.130100D+02  0.196850D-01
  0.196200D+01  0.137977D+00
  0.444600D+00  0.478148D+00
  0.122000D+00  0.501240D+00
   s     1 1.00
  0.122000D+00  0.100000D+01
   p     1 1.00
  0.727000D+00  0.100000D+01
  
 10  0
   s     4 1.00
  0.130100D+02  0.196850D-01
  0.196200D+01  0.137977D+00
  0.444600D+00  0.478148D+00
  0.122000D+00  0.501240D+00
   s     1 1.00
  0.122000D+00  0.100000D+01
   p     1 1.00
  0.727000D+00  0.100000D+01
  
 11  0
   s     4 1.00
  0.130100D+02  0.196850D-01
  0.196200D+01  0.137977D+00
  0.444600D+00  0.478148D+00
  0.122000D+00  0.501240D+00
   s     1 1.00
  0.122000D+00  0.100000D+01
   p     1 1.00
  0.727000D+00  0.100000D+01
  
 12  0
   s     4 1.00
  0.130100D+02  0.196850D-01
  0.196200D+01  0.137977D+00
  0.444600D+00  0.478148D+00
  0.122000D+00  0.501240D+00
   s     1 1.00
  0.122000D+00  0.100000D+01
   p     1 1.00
  0.727000D+00  0.100000D+01
  
 13  0
   s     4 1.00
  0.130100D+02  0.196850D-01
  0.196200D+01  0.137977D+00
  0.444600D+00  0.478148D+00
  0.122000D+00  0.501240D+00
   s     1 1.00
  0.122000D+00  0.100000D+01
   p     1 1.00
  0.727000D+00  0.100000D+01
  
 14  0
   s     4 1.00
  0.130100D+02  0.196850D-01
  0.196200D+01  0.137977D+00
  0.444600D+00  0.478148D+00
  0.122000D+00  0.501240D+00
   s     1 1.00
  0.122000D+00  0.100000D+01
   p     1 1.00
  0.727000D+00  0.100000D+01
  
[MO]
 Sym= __1_A__
 Ene=  0.000000000000000E+000
 Spin= Alpha
 Occup=    2.00000000000000     
                     1  8.585467801405863E-005
                     2  0.998314991883868     
                     3  2.631662801037372E-003
                     4  1.713676134033765E-003
                     5  5.580951849143288E-003
                     6  3.611321288841707E-003
                     7  6.227108097975198E-003
                     8  0.000000000000000E+000
                     9 -6.221519062179265E-004
                    10 -6.429787963556705E-004
                    11  0.000000000000000E+000
                    12 -2.479521443608223E-003
                    13 -1.677010429469784E-003
                    14  0.000000000000000E+000
                    15 -1.027496871502494E-004
                    16  0.000000000000000E+000
                    17  0.000000000000000E+000
                    18 -1.745399902039250E-004
                    19 -8.999073963348526E-005
                    20  6.329201859133575E-005
                    21  0.000000000000000E+000
                    22  0.000000000000000E+000
                    23 -3.173674750587958E-004
                    24  5.952016019216794E-004
                    25  0.000000000000000E+000
                    26 -1.681650689351346E-005
                    27 -6.292994350048420E-005
                    28  0.000000000000000E+000
                    29  0.000000000000000E+000
                    30  3.778885917372781E-005
                    31 -1.536517499843557E-004
                    32 -4.134174394063888E-004
                    33  1.003799809961991E-003
                    34  3.409236206021611E-004
                    35 -3.663290059316895E-004
                    36 -3.718036733096149E-004
                    37 -4.888579249703210E-003
                    38  0.000000000000000E+000
                    39  4.919305988750026E-004
                    40  5.434189202345316E-004
                    41  0.000000000000000E+000
                    42 -2.269004344513399E-003
                    43  5.545878694074084E-003
                    44  0.000000000000000E+000
                    45 -1.440875655272791E-005
                    46  0.000000000000000E+000
                    47  0.000000000000000E+000
                    48 -2.245886784975026E-004
                    49 -8.233558475772567E-006
                    50 -2.407815415574933E-004
                    51  0.000000000000000E+000
                    52  0.000000000000000E+000
                    53  5.856984526448180E-005
                    54  8.901264201260900E-004
                    55  0.000000000000000E+000
                    56 -8.635717818035612E-006
                    57 -6.039676038597099E-005
                    58  0.000000000000000E+000
                    59  0.000000000000000E+000
                    60  2.903153433615195E-005
                    61 -1.206976119094626E-004
                    62 -5.181172896308034E-004
                    63 -2.401328310509567E-003
                    64 -8.853222790315719E-005
                    65  2.223569661779523E-003
                    66 -6.704032935077609E-004
                    67  5.522356851139530E-004
                    68  0.000000000000000E+000
                    69  4.525727532229617E-004
                    70  8.599364170185132E-004
                    71  0.000000000000000E+000
                    72 -1.940735970984848E-003
                    73  9.202402984748935E-004
                    74  0.000000000000000E+000
                    75 -4.180875859868491E-005
                    76  0.000000000000000E+000
                    77  0.000000000000000E+000
                    78 -8.779466353781181E-005
                    79 -2.796009940109755E-005
                    80 -1.268150373217554E-004
                    81  0.000000000000000E+000
                    82  0.000000000000000E+000
                    83  6.429750983559776E-005
                    84  8.524789934395139E-005
                    85  0.000000000000000E+000
                    86  1.314321632603237E-005
                    87 -5.046445349853081E-005
                    88  0.000000000000000E+000
                    89  0.000000000000000E+000
                    90 -1.642795807043886E-005
                    91 -1.540099135029620E-004
                    92 -1.760409584896775E-004
                    93 -1.256549469087749E-003
                    94  2.131358681471236E-004
                    95 -2.315185849286048E-004
                    96  6.214982172002043E-004
                    97  8.202858552859953E-004
                    98  0.000000000000000E+000
                    99  4.409118021263343E-004
                   100  3.627310878449543E-004
                   101  0.000000000000000E+000
                   102  4.471754098741926E-004
                   103 -1.925147410803196E-003
                   104  0.000000000000000E+000
                   105  2.930033709372998E-006
                   106  0.000000000000000E+000
                   107  0.000000000000000E+000
                   108 -8.167133104635345E-005
                   109 -2.588896178372069E-005
                   110  1.040309429231971E-004
                   111  0.000000000000000E+000
                   112  0.000000000000000E+000
                   113 -1.968946185359448E-004
                   114 -1.604616486602357E-005
                   115  0.000000000000000E+000
                   116 -2.694839706734299E-005
                   117 -2.621654968280658E-005
                   118  0.000000000000000E+000
                   119  0.000000000000000E+000
                   120 -1.815409754569522E-005
                   121 -2.106624344335844E-005
                   122 -2.574606847891360E-004
                   123 -4.817398314684774E-004
                   124  1.733001102147065E-004
                   125  3.458718311310114E-004
                   126 -1.955717056033402E-005
                   127 -6.140613610375277E-004
                   128  0.000000000000000E+000
                   129  1.968924672526585E-004
                   130  6.508493608430204E-004
                   131  0.000000000000000E+000
                   132  5.989135865211076E-004
                   133  2.228460084300321E-003
                   134  0.000000000000000E+000
                   135  1.277993951577311E-005
                   136  0.000000000000000E+000
                   137  0.000000000000000E+000
                   138  3.873263257850742E-005
                   139  1.824630579669433E-006
                   140  1.975597890115195E-004
                   141  0.000000000000000E+000
                   142  0.000000000000000E+000
                   143  3.999795429558956E-004
                   144  2.548393375494599E-004
                   145  0.000000000000000E+000
                   146 -9.685276959396397E-006
                   147 -6.381516560432357E-005
                   148  0.000000000000000E+000
                   149  0.000000000000000E+000
                   150 -2.152048469611346E-005
                   151 -4.868195039878763E-005
                   152 -1.497137651431491E-004
                   153 -1.273405950708200E-004
                   154  5.309688438375315E-005
                   155  2.155665581328962E-004
                   156 -3.669760807807469E-005
                   157 -5.656223657486632E-004
                   158  0.000000000000000E+000
                   159  5.346706953496579E-005
                   160  5.755290897322028E-005
                   161  0.000000000000000E+000
                   162  8.258331593289421E-004
                   163 -4.721148638932913E-004
                   164  0.000000000000000E+000
                   165 -2.224464968753154E-006
                   166  0.000000000000000E+000
                   167  0.000000000000000E+000
                   168 -1.137537939206799E-005
                   169  1.072761109156704E-006
                   170  8.668559626805690E-005
                   171  0.000000000000000E+000
                   172  0.000000000000000E+000
                   173  1.924935819819072E-005
                   174  2.620498098121086E-006
                   175  0.000000000000000E+000
                   176  1.246611747818669E-006
                   177 -8.277797468959031E-006
                   178  0.000000000000000E+000
                   179  0.000000000000000E+000
                   180 -1.685731248526019E-005
                   181 -1.843727775544160E-005
                   182 -1.604473370459162E-004
                   183 -4.785638506439636E-004
                   184  3.692151060169350E-005
                   185  2.303412738063201E-004
                   186 -4.820291712501076E-005
                   187 -3.958206294045951E-005
                   188  0.000000000000000E+000
                   189  2.682404315665696E-004
                   190  9.482296793470969E-005
                   191  0.000000000000000E+000
                   192  1.543482506550283E-003
                   193 -2.746746701924662E-004
                   194  0.000000000000000E+000
                   195  1.602837428844769E-006
                   196  0.000000000000000E+000
                   197  0.000000000000000E+000
                   198 -1.194810737893000E-005
                   199  3.896366352979575E-006
                   200 -1.402127327526299E-005
                   201  0.000000000000000E+000
                   202  0.000000000000000E+000
                   203 -8.427143535138100E-005
                   204 -2.152301003138055E-004
                   205  0.000000000000000E+000
                   206 -9.343755230012199E-006
                   207 -4.060454318438307E-006
                   208  0.000000000000000E+000
                   209  0.000000000000000E+000
                   210  1.044536436981778E-005
                   211 -7.775618771193901E-006
                   212 -7.988277488829333E-005
                   213  1.161502210519347E-004
                   214  4.189494441093866E-005
                   215  5.785994645071516E-005
                   216  0.000000000000000E+000
                   217  1.756984375551739E-003
                   218 -1.809197665669980E-003
                   219 -4.575391295702035E-004
                   220  1.604774194720471E-004
                   221  0.000000000000000E+000
                   222 -5.077623616842756E-004
                   223 -6.288684891176116E-004
                   224  5.713396061228642E-006
                   225 -7.263613648608968E-005
                   226  0.000000000000000E+000
                   227 -2.998802880650108E-004
                   228 -4.786943719219450E-004
                   229 -1.806937305490286E-005
                   230 -1.449659210753142E-005
                   231  0.000000000000000E+000
                   232 -9.106368651228697E-005
                   233 -4.860298664727380E-004
                   234  2.234209325825139E-006
                   235 -1.765400495582348E-006
                   236  0.000000000000000E+000
                   237 -1.933139917548752E-004
                   238 -3.685690043952259E-004
                   239  5.181847070421905E-006
                   240 -3.409130660758927E-008
                   241  0.000000000000000E+000
                   242  1.147187895780184E-005
                   243  5.735050769049710E-005
                   244 -7.884757487122218E-007
                   245  2.931112141064414E-005
                   246  0.000000000000000E+000
 Sym= __2_A__
 Ene=  0.000000000000000E+000
 Spin= Alpha
 Occup=    2.00000000000000     
                     1 -4.978822605242477E-005
                     2 -2.739839745866416E-004
                     3  2.703568094142508E-003
                     4  1.253253816313417E-004
                     5  1.361193476439814E-003
                     6 -3.885262499086298E-004
                     7  2.945922465400410E-003
                     8  0.000000000000000E+000
                     9 -4.153414640200291E-005
                    10 -1.152390811853134E-004
                    11  0.000000000000000E+000
                    12 -4.679799953445343E-005
                    13 -3.443296384325221E-004
                    14  0.000000000000000E+000
                    15  3.072918068884876E-005
                    16  0.000000000000000E+000
                    17  0.000000000000000E+000
                    18 -4.486312444629726E-005
                    19  2.402322995625131E-005
                    20 -1.110085950137372E-004
                    21  0.000000000000000E+000
                    22  0.000000000000000E+000
                    23  1.156730025225980E-004
                    24 -1.461875250406592E-004
                    25  0.000000000000000E+000
                    26 -1.670107781208422E-005
                    27  9.359322457597541E-005
                    28  0.000000000000000E+000
                    29  0.000000000000000E+000
                    30 -6.661580382092905E-005
                    31  1.437589303033083E-004
                    32   1.00102516548842     
                    33  9.247525641676675E-003
                    34  2.676232915104418E-003
                    35 -8.054820168266875E-003
                    36 -2.660147343335709E-005
                    37 -3.250570225664808E-003
                    38  0.000000000000000E+000
                    39 -1.976674199615487E-004
                    40  1.946269003412727E-004
                    41  0.000000000000000E+000
                    42 -1.482388339043317E-004
                    43  4.077241206328400E-003
                    44  0.000000000000000E+000
                    45 -5.565356930593942E-004
                    46  0.000000000000000E+000
                    47  0.000000000000000E+000
                    48 -2.055418761467674E-004
                    49  4.506435580538911E-005
                    50  5.311612076534880E-004
                    51  0.000000000000000E+000
                    52  0.000000000000000E+000
                    53 -6.636258520472294E-004
                    54 -3.936382040657074E-004
                    55  0.000000000000000E+000
                    56  1.222209482046550E-005
                    57  9.604537135503424E-005
                    58  0.000000000000000E+000
                    59  0.000000000000000E+000
                    60 -3.426896285133908E-005
                    61  3.914340983950308E-004
                    62  8.825435780260920E-003
                    63 -2.072474878407446E-003
                    64 -2.437055958298248E-004
                    65  2.698398637944907E-003
                    66  1.032985128739543E-005
                    67  8.777374157979047E-005
                    68  0.000000000000000E+000
                    69  5.234557196922103E-004
                    70  1.546288745101338E-004
                    71  0.000000000000000E+000
                    72 -2.115724409782177E-003
                    73  2.975803776306073E-004
                    74  0.000000000000000E+000
                    75  3.672180165998266E-005
                    76  0.000000000000000E+000
                    77  0.000000000000000E+000
                    78 -4.244771850179900E-006
                    79  4.311878895962879E-006
                    80 -4.238062287807359E-004
                    81  0.000000000000000E+000
                    82  0.000000000000000E+000
                    83 -6.539821760890404E-004
                    84 -2.426271463034473E-004
                    85  0.000000000000000E+000
                    86  2.735321588372028E-005
                    87 -5.849410698837130E-005
                    88  0.000000000000000E+000
                    89  0.000000000000000E+000
                    90  3.863748381407441E-005
                    91  1.498432758243455E-004
                    92  1.102434226489333E-002
                    93 -2.072224648918820E-003
                    94 -3.132673145177031E-004
                    95  3.213923939540210E-003
                    96  6.971656961387611E-005
                    97  5.534633308442444E-005
                    98  0.000000000000000E+000
                    99 -9.356191190276681E-004
                   100  1.561183769500492E-005
                   101  0.000000000000000E+000
                   102  1.741682206297926E-003
                   103  2.030365355727881E-005
                   104  0.000000000000000E+000
                   105  2.413844306553776E-005
                   106  0.000000000000000E+000
                   107  0.000000000000000E+000
                   108 -3.702471002736466E-006
                   109  8.907354278946716E-006
                   110 -4.231727220892049E-004
                   111  0.000000000000000E+000
                   112  0.000000000000000E+000
                   113 -3.795738160417372E-004
                   114  2.605201242103105E-004
                   115  0.000000000000000E+000
                   116 -2.917077354335227E-005
                   117 -7.036351379313574E-005
                   118  0.000000000000000E+000
                   119  0.000000000000000E+000
                   120 -7.965399320580218E-006
                   121  1.329166310396674E-004
                   122 -1.750202075074538E-004
                   123 -6.842534370765200E-004
                   124  2.298681621781650E-004
                   125 -1.246428352023028E-004
                   126  3.476926054739903E-006
                   127 -3.620890628356030E-004
                   128  0.000000000000000E+000
                   129 -7.769477630379830E-005
                   130  6.138997600028002E-004
                   131  0.000000000000000E+000
                   132  3.782893342419163E-004
                   133  9.070752645215014E-004
                   134  0.000000000000000E+000
                   135  1.832308376462570E-005
                   136  0.000000000000000E+000
                   137  0.000000000000000E+000
                   138  4.894478828750188E-006
                   139  4.329601138157965E-005
                   140  1.310650038268743E-004
                   141  0.000000000000000E+000
                   142  0.000000000000000E+000
                   143  2.515686229581750E-004
                   144 -1.078928043564675E-004
                   145  0.000000000000000E+000
                   146  9.228533101556225E-006
                   147 -3.702910474551591E-005
                   148  0.000000000000000E+000
                   149  0.000000000000000E+000
                   150 -4.456651774304542E-005
                   151  3.641139351408293E-005
                   152 -1.103912641620493E-004
                   153 -6.775816107863183E-004
                   154  2.304529246232292E-004
                   155 -3.866563050440916E-005
                   156 -3.134222305570118E-005
                   157 -3.565876045632973E-004
                   158  0.000000000000000E+000
                   159  1.357712885862518E-004
                   160  5.358828354166581E-004