[Molden Format]
[Atoms] AU
  N     1    7    -4.5040487100    0.0005530100   -0.3741296700        
  C     2    6    -1.7529775700   -0.0445458200   -0.1651108400        
  C     3    6    -0.3547137700    0.2169181400   -2.3720042800        
  C     4    6    -0.4773179400   -0.2561791800    2.1308284000        
  C     5    6     2.2616595300    0.2407646300   -2.2887904100        
  C     6    6     2.1352984400   -0.2079460100    2.2058562600        
  C     7    6     3.5111923300    0.0357102000   -0.0046369300        
  H     8    1    -5.0997130600   -1.8274686600    0.0755557800        
  H     9    1    -5.1043218700    0.9542857400    1.1984470000        
  H    10    1    -1.3341681600    0.4121163700   -4.1333137000        
  H    11    1    -1.5342119400   -0.4676405200    3.8493720100        
  H    12    1     3.3213501100    0.4394417300   -4.0069764500        
  H    13    1     3.0948501400   -0.3707237800    3.9864885300        
  H    14    1     5.5390015800    0.0665743900    0.0559983700        
[5D]
[7F]
[GTO]
  1  0
   s    12 1.00
  0.114200D+05  0.172695D-04
  0.171200D+04  0.134411D-03
  0.389300D+03  0.694561D-03
  0.110000D+03  0.278531D-02
  0.355700D+02  0.863457D-02
  0.125400D+02  0.199805D-01
  0.464400D+01  0.262908D-01
  0.129300D+01 -0.243845D-01
  0.511800D+00 -0.924934D-01
  0.178700D+00 -0.339683D+00
  0.246240D-01  0.345111D+00
  0.112530D-01  0.752750D+00
   s    10 1.00
  0.114200D+05  0.523000D-03
  0.171200D+04  0.404500D-02
  0.389300D+03  0.207750D-01
  0.110000D+03  0.807269D-01
  0.355700D+02  0.233074D+00
  0.125400D+02  0.433501D+00
  0.464400D+01  0.347472D+00
  0.129300D+01  0.412620D-01
  0.511800D+00 -0.850799D-02
  0.178700D+00  0.238400D-02
   s    10 1.00
  0.114200D+05 -0.115000D-03
  0.171200D+04 -0.895000D-03
  0.389300D+03 -0.462400D-02
  0.110000D+03 -0.185280D-01
  0.355700D+02 -0.573390D-01
  0.125400D+02 -0.132076D+00
  0.464400D+01 -0.172510D+00
  0.129300D+01  0.151814D+00
  0.511800D+00  0.599944D+00
  0.178700D+00  0.387462D+00
   s     1 1.00
  0.129300D+01  0.100000D+01
   s     1 1.00
  0.178700D+00  0.100000D+01
   p     5 1.00
  0.266300D+02  0.146700D-01
  0.594800D+01  0.917640D-01
  0.174200D+01  0.298683D+00
  0.555000D+00  0.498487D+00
  0.172500D+00  0.337023D+00
   p     1 1.00
  0.174200D+01  0.100000D+01
   p     1 1.00
  0.555000D+00  0.100000D+01
   d     1 1.00
  0.165400D+01  0.100000D+01
   d     1 1.00
  0.469000D+00  0.100000D+01
   f     1 1.00
  0.109300D+01  0.100000D+01
  
  2  0
   s    10 1.00
  0.823600D+04  0.531000D-03
  0.123500D+04  0.410800D-02
  0.280800D+03  0.210870D-01
  0.792700D+02  0.818530D-01
  0.255900D+02  0.234817D+00
  0.899700D+01  0.434401D+00
  0.331900D+01  0.346129D+00
  0.905900D+00  0.393780D-01
  0.364300D+00 -0.898300D-02
  0.128500D+00  0.238500D-02
   s    10 1.00
  0.823600D+04 -0.113000D-03
  0.123500D+04 -0.878000D-03
  0.280800D+03 -0.454000D-02
  0.792700D+02 -0.181330D-01
  0.255900D+02 -0.557600D-01
  0.899700D+01 -0.126895D+00
  0.331900D+01 -0.170352D+00
  0.905900D+00  0.140382D+00
  0.364300D+00  0.598684D+00
  0.128500D+00  0.395389D+00
   s     1 1.00
  0.905900D+00  0.100000D+01
   s     1 1.00
  0.364300D+00  0.100000D+01
   p     5 1.00
  0.187100D+02  0.140310D-01
  0.413300D+01  0.868660D-01
  0.120000D+01  0.290216D+00
  0.382700D+00  0.501008D+00
  0.120900D+00  0.343406D+00
   p     1 1.00
  0.382700D+00  0.100000D+01
   p     1 1.00
  0.120900D+00  0.100000D+01
   d     1 1.00
  0.109700D+01  0.100000D+01
   d     1 1.00
  0.318000D+00  0.100000D+01
   f     1 1.00
  0.761000D+00  0.100000D+01
  
  3  0
   s    10 1.00
  0.823600D+04  0.531000D-03
  0.123500D+04  0.410800D-02
  0.280800D+03  0.210870D-01
  0.792700D+02  0.818530D-01
  0.255900D+02  0.234817D+00
  0.899700D+01  0.434401D+00
  0.331900D+01  0.346129D+00
  0.905900D+00  0.393780D-01
  0.364300D+00 -0.898300D-02
  0.128500D+00  0.238500D-02
   s    10 1.00
  0.823600D+04 -0.113000D-03
  0.123500D+04 -0.878000D-03
  0.280800D+03 -0.454000D-02
  0.792700D+02 -0.181330D-01
  0.255900D+02 -0.557600D-01
  0.899700D+01 -0.126895D+00
  0.331900D+01 -0.170352D+00
  0.905900D+00  0.140382D+00
  0.364300D+00  0.598684D+00
  0.128500D+00  0.395389D+00
   s     1 1.00
  0.905900D+00  0.100000D+01
   s     1 1.00
  0.364300D+00  0.100000D+01
   p     5 1.00
  0.187100D+02  0.140310D-01
  0.413300D+01  0.868660D-01
  0.120000D+01  0.290216D+00
  0.382700D+00  0.501008D+00
  0.120900D+00  0.343406D+00
   p     1 1.00
  0.382700D+00  0.100000D+01
   p     1 1.00
  0.120900D+00  0.100000D+01
   d     1 1.00
  0.109700D+01  0.100000D+01
   d     1 1.00
  0.318000D+00  0.100000D+01
   f     1 1.00
  0.761000D+00  0.100000D+01
  
  4  0
   s    10 1.00
  0.823600D+04  0.531000D-03
  0.123500D+04  0.410800D-02
  0.280800D+03  0.210870D-01
  0.792700D+02  0.818530D-01
  0.255900D+02  0.234817D+00
  0.899700D+01  0.434401D+00
  0.331900D+01  0.346129D+00
  0.905900D+00  0.393780D-01
  0.364300D+00 -0.898300D-02
  0.128500D+00  0.238500D-02
   s    10 1.00
  0.823600D+04 -0.113000D-03
  0.123500D+04 -0.878000D-03
  0.280800D+03 -0.454000D-02
  0.792700D+02 -0.181330D-01
  0.255900D+02 -0.557600D-01
  0.899700D+01 -0.126895D+00
  0.331900D+01 -0.170352D+00
  0.905900D+00  0.140382D+00
  0.364300D+00  0.598684D+00
  0.128500D+00  0.395389D+00
   s     1 1.00
  0.905900D+00  0.100000D+01
   s     1 1.00
  0.364300D+00  0.100000D+01
   p     5 1.00
  0.187100D+02  0.140310D-01
  0.413300D+01  0.868660D-01
  0.120000D+01  0.290216D+00
  0.382700D+00  0.501008D+00
  0.120900D+00  0.343406D+00
   p     1 1.00
  0.382700D+00  0.100000D+01
   p     1 1.00
  0.120900D+00  0.100000D+01
   d     1 1.00
  0.109700D+01  0.100000D+01
   d     1 1.00
  0.318000D+00  0.100000D+01
   f     1 1.00
  0.761000D+00  0.100000D+01
  
  5  0
   s    10 1.00
  0.823600D+04  0.531000D-03
  0.123500D+04  0.410800D-02
  0.280800D+03  0.210870D-01
  0.792700D+02  0.818530D-01
  0.255900D+02  0.234817D+00
  0.899700D+01  0.434401D+00
  0.331900D+01  0.346129D+00
  0.905900D+00  0.393780D-01
  0.364300D+00 -0.898300D-02
  0.128500D+00  0.238500D-02
   s    10 1.00
  0.823600D+04 -0.113000D-03
  0.123500D+04 -0.878000D-03
  0.280800D+03 -0.454000D-02
  0.792700D+02 -0.181330D-01
  0.255900D+02 -0.557600D-01
  0.899700D+01 -0.126895D+00
  0.331900D+01 -0.170352D+00
  0.905900D+00  0.140382D+00
  0.364300D+00  0.598684D+00
  0.128500D+00  0.395389D+00
   s     1 1.00
  0.905900D+00  0.100000D+01
   s     1 1.00
  0.364300D+00  0.100000D+01
   p     5 1.00
  0.187100D+02  0.140310D-01
  0.413300D+01  0.868660D-01
  0.120000D+01  0.290216D+00
  0.382700D+00  0.501008D+00
  0.120900D+00  0.343406D+00
   p     1 1.00
  0.382700D+00  0.100000D+01
   p     1 1.00
  0.120900D+00  0.100000D+01
   d     1 1.00
  0.109700D+01  0.100000D+01
   d     1 1.00
  0.318000D+00  0.100000D+01
   f     1 1.00
  0.761000D+00  0.100000D+01
  
  6  0
   s    10 1.00
  0.823600D+04  0.531000D-03
  0.123500D+04  0.410800D-02
  0.280800D+03  0.210870D-01
  0.792700D+02  0.818530D-01
  0.255900D+02  0.234817D+00
  0.899700D+01  0.434401D+00
  0.331900D+01  0.346129D+00
  0.905900D+00  0.393780D-01
  0.364300D+00 -0.898300D-02
  0.128500D+00  0.238500D-02
   s    10 1.00
  0.823600D+04 -0.113000D-03
  0.123500D+04 -0.878000D-03
  0.280800D+03 -0.454000D-02
  0.792700D+02 -0.181330D-01
  0.255900D+02 -0.557600D-01
  0.899700D+01 -0.126895D+00
  0.331900D+01 -0.170352D+00
  0.905900D+00  0.140382D+00
  0.364300D+00  0.598684D+00
  0.128500D+00  0.395389D+00
   s     1 1.00
  0.905900D+00  0.100000D+01
   s     1 1.00
  0.364300D+00  0.100000D+01
   p     5 1.00
  0.187100D+02  0.140310D-01
  0.413300D+01  0.868660D-01
  0.120000D+01  0.290216D+00
  0.382700D+00  0.501008D+00
  0.120900D+00  0.343406D+00
   p     1 1.00
  0.382700D+00  0.100000D+01
   p     1 1.00
  0.120900D+00  0.100000D+01
   d     1 1.00
  0.109700D+01  0.100000D+01
   d     1 1.00
  0.318000D+00  0.100000D+01
   f     1 1.00
  0.761000D+00  0.100000D+01
  
  7  0
   s    10 1.00
  0.823600D+04  0.531000D-03
  0.123500D+04  0.410800D-02
  0.280800D+03  0.210870D-01
  0.792700D+02  0.818530D-01
  0.255900D+02  0.234817D+00
  0.899700D+01  0.434401D+00
  0.331900D+01  0.346129D+00
  0.905900D+00  0.393780D-01
  0.364300D+00 -0.898300D-02
  0.128500D+00  0.238500D-02
   s    10 1.00
  0.823600D+04 -0.113000D-03
  0.123500D+04 -0.878000D-03
  0.280800D+03 -0.454000D-02
  0.792700D+02 -0.181330D-01
  0.255900D+02 -0.557600D-01
  0.899700D+01 -0.126895D+00
  0.331900D+01 -0.170352D+00
  0.905900D+00  0.140382D+00
  0.364300D+00  0.598684D+00
  0.128500D+00  0.395389D+00
   s     1 1.00
  0.905900D+00  0.100000D+01
   s     1 1.00
  0.364300D+00  0.100000D+01
   p     5 1.00
  0.187100D+02  0.140310D-01
  0.413300D+01  0.868660D-01
  0.120000D+01  0.290216D+00
  0.382700D+00  0.501008D+00
  0.120900D+00  0.343406D+00
   p     1 1.00
  0.382700D+00  0.100000D+01
   p     1 1.00
  0.120900D+00  0.100000D+01
   d     1 1.00
  0.109700D+01  0.100000D+01
   d     1 1.00
  0.318000D+00  0.100000D+01
   f     1 1.00
  0.761000D+00  0.100000D+01
  
  8  0
   s     4 1.00
  0.130100D+02  0.196850D-01
  0.196200D+01  0.137977D+00
  0.444600D+00  0.478148D+00
  0.122000D+00  0.501240D+00
   s     1 1.00
  0.122000D+00  0.100000D+01
   p     1 1.00
  0.727000D+00  0.100000D+01
  
  9  0
   s     4 1.00
  0.130100D+02  0.196850D-01
  0.196200D+01  0.137977D+00
  0.444600D+00  0.478148D+00
  0.122000D+00  0.501240D+00
   s     1 1.00
  0.122000D+00  0.100000D+01
   p     1 1.00
  0.727000D+00  0.100000D+01
  
 10  0
   s     4 1.00
  0.130100D+02  0.196850D-01
  0.196200D+01  0.137977D+00
  0.444600D+00  0.478148D+00
  0.122000D+00  0.501240D+00
   s     1 1.00
  0.122000D+00  0.100000D+01
   p     1 1.00
  0.727000D+00  0.100000D+01
  
 11  0
   s     4 1.00
  0.130100D+02  0.196850D-01
  0.196200D+01  0.137977D+00
  0.444600D+00  0.478148D+00
  0.122000D+00  0.501240D+00
   s     1 1.00
  0.122000D+00  0.100000D+01
   p     1 1.00
  0.727000D+00  0.100000D+01
  
 12  0
   s     4 1.00
  0.130100D+02  0.196850D-01
  0.196200D+01  0.137977D+00
  0.444600D+00  0.478148D+00
  0.122000D+00  0.501240D+00
   s     1 1.00
  0.122000D+00  0.100000D+01
   p     1 1.00
  0.727000D+00  0.100000D+01
  
 13  0
   s     4 1.00
  0.130100D+02  0.196850D-01
  0.196200D+01  0.137977D+00
  0.444600D+00  0.478148D+00
  0.122000D+00  0.501240D+00
   s     1 1.00
  0.122000D+00  0.100000D+01
   p     1 1.00
  0.727000D+00  0.100000D+01
  
 14  0
   s     4 1.00
  0.130100D+02  0.196850D-01
  0.196200D+01  0.137977D+00
  0.444600D+00  0.478148D+00
  0.122000D+00  0.501240D+00
   s     1 1.00
  0.122000D+00  0.100000D+01
   p     1 1.00
  0.727000D+00  0.100000D+01
  
[MO]
 Sym= __1_A__
 Ene=   1.00000000000000     
 Spin= Alpha
 Occup=    1.00000000000000     
                     1 -6.108559177861695E-008
                     2  0.998137211449617     
                     3 -1.234126560572910E-002
                     4  2.012784950565491E-003
                     5  6.991581112524832E-003
                     6  8.626115561251485E-003
                     7 -3.612784069019725E-003
                     8  1.246170420062331E-002
                     9 -1.193658408737612E-003
                    10  3.352955400796351E-004
                    11 -1.217308257697985E-003
                    12 -2.751972975864134E-003
                    13  1.598062794527825E-003
                    14 -4.602656637809776E-003
                    15  8.686669115890736E-005
                    16 -4.094189367919880E-005
                    17 -3.396699660815704E-005
                    18  3.645911465151468E-005
                    19 -1.520844524878991E-005
                    20  1.756011350270403E-004
                    21  6.649521932111264E-004
                    22 -2.192775422254760E-004
                    23  2.360802802216052E-004
                    24 -2.355082266502715E-004
                    25  3.080366935355735E-005
                    26 -8.369824057042989E-005
                    27  4.171670133195777E-005
                    28  1.687400585200882E-005
                    29  9.261869102704248E-006
                    30 -4.866771711542910E-005
                    31 -1.218538595775802E-005
                    32 -3.093751945829602E-004
                    33  1.571752356459161E-004
                    34  2.711614917843592E-004
                    35  4.132827693176977E-005
                    36 -1.297164396325625E-003
                    37 -1.062880279900056E-003
                    38 -6.351793551656965E-004
                    39 -2.199822713318082E-005
                    40 -1.106394372181811E-004
                    41  9.394430591646205E-004
                    42  4.287598695626850E-003
                    43  4.288054301846861E-004
                    44 -2.949209254837653E-003
                    45 -8.854936242077741E-005
                    46 -8.070272415364239E-005
                    47  1.284776322519673E-005
                    48  9.081539256652648E-005
                    49  3.011328837465079E-005
                    50  4.431942987598758E-004
                    51  6.406968500182576E-004
                    52 -6.626362547149069E-005
                    53 -1.697569207702588E-004
                    54 -1.630684601400395E-004
                    55  6.977289692849279E-005
                    56 -2.116526058781009E-005
                    57 -6.273194812213276E-006
                    58  7.771292939876828E-005
                    59 -5.436926147414013E-006
                    60 -3.955387308358634E-005
                    61 -1.375493165527040E-005
                    62 -8.212727675456664E-004
                    63 -2.036298218195227E-003
                    64 -1.092678350579090E-004
                    65  3.004672136342058E-003
                    66 -9.537121165251477E-004
                    67 -5.165805026351360E-004
                    68  2.481046874393575E-005
                    69  8.004627912836645E-004
                    70 -5.533044450813463E-005
                    71  7.051075492452913E-004
                    72  1.507873546846260E-003
                    73  2.639215681097945E-004
                    74 -1.698144712499328E-003
                    75 -6.913186679594600E-006
                    76 -5.609445601916782E-005
                    77 -2.134751780217602E-005
                    78  6.238731944318411E-005
                    79  1.732509143777396E-005
                    80  4.255364514760308E-004
                    81  4.566292749554494E-005
                    82 -9.384103149944862E-005
                    83 -6.586898371467063E-005
                    84  1.508560285737527E-005
                    85 -2.563409925227279E-005
                    86 -1.563874249394310E-004
                    87 -9.693906287024089E-006
                    88  7.450613376471084E-006
                    89  2.525104335117668E-005
                    90 -7.533401483445446E-005
                    91 -5.173919989228922E-006
                    92  5.743023638250240E-005
                    93 -2.892317433416770E-004
                    94  3.363298916970681E-004
                    95 -1.400713018386621E-003
                    96  3.059757210491597E-004
                    97 -4.454537926002263E-004
                    98  3.548648391394572E-004
                    99  1.324856220154245E-004
                   100 -2.425649377585934E-005
                   101  4.913066799408796E-004
                   102 -2.144355833619213E-003
                   103  4.882130159988416E-006
                   104  1.070450259836389E-004
                   105 -5.043483493542006E-005
                   106 -9.912510533558506E-006
                   107  1.852601661007647E-005
                   108  3.416741629157206E-005
                   109  9.674475329360639E-006
                   110 -1.080851307925897E-004
                   111 -9.171187371645145E-005
                   112  4.701537175478299E-005
                   113 -2.230263401887758E-004
                   114  1.000115017018324E-005
                   115 -3.353847754641877E-005
                   116  5.190621640712766E-005
                   117 -3.137243359537816E-006
                   118  4.484882281011344E-006
                   119 -1.253342826301805E-005
                   120  2.858142046458333E-006
                   121 -6.810243755907322E-006
                   122 -3.201947540258419E-004
                   123 -1.221057989257932E-003
                   124  1.282920600305284E-004
                   125  8.741689316891158E-004
                   126  2.321042604316443E-004
                   127 -2.065944493048838E-005
                   128 -8.574244432460916E-005
                   129  5.358306897688065E-004
                   130 -2.277610223707807E-005
                   131  3.062781167368975E-004
                   132  2.314371431613308E-003
                   133  1.046107692412997E-005
                   134  5.359200692744681E-004
                   135  4.610901968468295E-005
                   136 -9.625490873217399E-006
                   137 -3.663295690028788E-006
                   138 -3.132571452694556E-005
                   139  1.026668977112821E-005
                   140  2.453496044358062E-004
                   141  3.109551484067135E-004
                   142  6.530981214086793E-006
                   143 -3.824232728928036E-004
                   144 -2.387393091153385E-005
                   145 -3.083696526251843E-005
                   146 -3.098556548015658E-005
                   147 -5.515059309142572E-006
                   148 -6.269236249072960E-006
                   149 -3.627467949802060E-006
                   150 -9.024225538267469E-005
                   151  2.107753918105181E-006
                   152 -1.419281016304148E-004
                   153 -2.875900841671757E-004
                   154 -7.481933693644633E-005
                   155  6.713494280843306E-004
                   156 -1.415526896401383E-004
                   157  2.168930072301486E-005
                   158 -2.875844419587211E-005
                   159 -3.060612149842661E-004
                   160 -2.439755855439539E-005
                   161  1.897050087274425E-004
                   162 -8.599364614978109E-004
                   163 -7.995342026560102E-005
                   164  9.019232687427661E-004
                   165 -2.225136178389948E-005
                   166  4.856096843897222E-006
                   167 -5.016917465713084E-007
                   168  2.662773765945890E-005
                   169  9.173868407996861E-006
                   170 -8.291574262395563E-005
                   171  2.012164577716483E-005
                   172  1.308088088767343E-005
                   173  3.667429862541964E-005
                   174  8.737498863067686E-006
                   175 -9.993572037786211E-006
                   176 -2.614519057414389E-006
                   177 -9.478071522120327E-007
                   178 -7.431962290830462E-006
                   179 -1.331581420111515E-006
                   180  8.664201415484953E-006
                   181 -3.652347539626771E-007
                   182 -1.505041729161197E-004
                   183 -4.342485243925558E-004
                   184  3.779223583393457E-005
                   185  2.164318162814845E-004
                   186 -6.250658729678958E-005
                   187  1.700205590305406E-004
                   188 -7.781372284327505E-005
                   189  1.046509571296884E-004
                   190 -3.510319440255666E-005
                   191  4.145864779530315E-004
                   192 -4.771572696650302E-004
                   193 -1.581067047836311E-004
                   194  1.801823471788539E-003
                   195  2.910786413499557E-006
                   196  1.862191535280053E-006
                   197  5.187490912827169E-007
                   198 -2.847850198659902E-006
                   199  1.296675634756949E-007
                   200 -1.129682235417808E-004
                   201 -3.100749019841673E-004
                   202  1.470572239296572E-005
                   203  4.802003083244782E-005
                   204  2.998360724254086E-005
                   205  1.320878961267752E-006
                   206  6.154319440989904E-006
                   207 -1.618358861891480E-006
                   208  2.088149883445872E-005
                   209 -1.994048149630926E-006
                   210 -4.188078452714309E-006
                   211 -2.083211363691057E-006
                   212 -1.325689109530855E-003
                   213  6.002447572579771E-005
                   214  1.099275370607944E-004
                   215  8.966515427180769E-005
                   216  1.368298522115003E-006
                   217  1.894192645981144E-004
                   218 -4.507282782106607E-004
                   219  1.366868376793492E-004
                   220 -6.462342018919391E-005
                   221 -1.330329323066002E-004
                   222  3.096928669435756E-005
                   223 -6.199063556339930E-004
                   224 -8.593985672353743E-005
                   225 -1.486235216805787E-005
                   226  6.910971704935410E-005
                   227 -8.781067386855446E-005
                   228 -4.231361942034454E-004
                   229 -2.973912434344015E-005
                   230  3.866883314667672E-006
                   231 -6.641271781259098E-005
                   232  2.869612550228502E-004
                   233 -5.376919807910417E-004
                   234 -1.029214628732668E-006
                   235 -1.352720280155419E-006
                   236  1.873863967830078E-005
                   237 -9.626540178692938E-005
                   238 -3.239587327694530E-004
                   239  7.275696707803161E-006
                   240 -3.278439522104289E-007
                   241  1.840359262192400E-005
                   242 -9.699838477003090E-005
                   243  1.591326865331921E-004
                   244  3.141888720846556E-005
                   245  5.150158548021387E-006
                   246  1.022046384778548E-006
 Sym= __2_A__
 Ene=   2.00000000000000     
 Spin= Alpha
 Occup=    1.00000000000000     
                     1 -8.096143882097143E-006
                     2 -8.105971334895129E-005
                     3  2.747998518395220E-004
                     4 -1.642074379743289E-005
                     5  1.167677040499338E-003
                     6  1.279339792750377E-003
                     7 -2.355848329955423E-004
                     8  3.552041332351293E-004
                     9 -1.559995713913774E-004
                    10  8.222352029117878E-005
                    11 -9.292479538890339E-005
                    12  1.979244391796963E-004
                    13  1.135168545399313E-004
                    14 -9.542978100063611E-005
                    15 -4.895746157293125E-005
                    16  2.358877903565350E-005
                    17 -7.846564388436146E-007
                    18  4.805044247746520E-005
                    19 -1.408648224641206E-006
                    20  5.619299490483542E-005
                    21 -6.137476130463252E-005
                    22 -2.848644016648290E-006
                    23  1.078554688940577E-004
                    24 -3.019383148787252E-005
                    25 -3.910047437515268E-005
                    26  1.257664155784269E-004
                    27  1.871396966782351E-005
                    28 -5.254549420645136E-005
                    29 -1.195971001243465E-005
                    30  1.166815730202343E-004
                    31  1.822593753079676E-005
                    32   1.00084195261353     
                    33  8.452816925106217E-003
                    34  2.859794430549475E-003
                    35 -8.430424198547065E-003
                    36 -1.364207210022818E-003
                    37  4.053637523448128E-005
                    38  1.343770115640306E-004
                    39  8.830564224397647E-004
                    40 -1.644115442811816E-005
                    41 -3.830492736608388E-004
                    42  2.508430192923453E-003
                    43 -6.665801781956617E-005
                    44  2.343179494194642E-004
                    45  3.178396447940215E-004
                    46 -2.003955724431097E-006
                    47 -8.252681861781626E-005
                    48  3.185985268285880E-004
                    49  8.712827321727191E-006
                    50 -9.701049461760994E-004
                    51 -3.299342926219774E-004
                    52  1.869945550877782E-004
                    53 -1.541701162636188E-004
                    54  2.895940707622793E-005
                    55 -2.085862910958121E-005
                    56  2.557822038328507E-004
                    57 -2.542920603019961E-006
                    58 -3.131919445818742E-005
                    59 -3.297945241533717E-005
                    60  6.560770480355200E-005
                    61  4.943658052627204E-006
                    62  1.609475571889758E-002
                    63 -1.475607725651077E-003
                    64 -2.874839511772076E-004
                    65  2.773690503016169E-003
                    66 -3.229415510017964E-004
                    67 -6.175315537926023E-005
                    68  4.341777820102051E-004
                    69  4.111147706486733E-005
                    70 -3.646376375290836E-005
                    71  2.995901075664842E-004
                    72  2.455151315937075E-004
                    73  2.214562897489570E-004
                    74 -1.726818464761087E-003
                    75  1.019350906187248E-005
                    76  2.523565232303067E-005
                    77  1.411747100331788E-006
                    78 -4.748312080110794E-005
                    79 -2.860669334834341E-006
                    80 -5.230559045435793E-004
                    81 -3.724106571787045E-004
                    82  1.564801617420895E-005
                    83  8.046485930458500E-004
                    84  5.911932718323728E-005
                    85  3.441411691821384E-005
                    86  1.051817610562182E-004
                    87  1.731778384487060E-005
                    88 -2.869188261648958E-005
                    89 -2.346818871787950E-005
                    90 -2.613410941787330E-005
                    91  4.965541240610988E-006
                    92  1.857938101488680E-002
                    93 -1.660672647970216E-003
                    94 -3.375227188880543E-004
                    95  3.347930063084023E-003
                    96 -2.808089778731627E-004
                    97  2.164346832075082E-005
                    98 -3.724209778937492E-004
                    99 -1.112711380155779E-004
                   100  8.049829567623790E-005
                   101 -7.692451927386448E-004
                   102  3.373853969604035E-004
                   103 -1.291079998655390E-004
                   104  1.539292133042489E-003
                   105  1.099274455441993E-005
                   106 -3.284810171732200E-006
                   107  2.030006775462037E-006
                   108 -2.512440554366676E-005
                   109 -8.117990173600353E-009
                   110 -1.785056236948846E-004
                   111  5.004563998214543E-004
                   112 -3.475093421024845E-005
                   113  6.160294982210546E-004
                   114 -3.745056997020356E-005
                   115 -4.564770540173389E-005
                   116  8.589725499776084E-005
                   117 -1.097147674410049E-005
                   118  1.886085190366807E-005
                   119 -1.380526936267997E-005
                   120 -2.925200009866582E-005
                   121 -8.794344300552520E-007
                   122 -6.412974745352103E-005
                   123 -7.502596003583202E-004
                   124  2.441515398253449E-004
                   125 -3.902813376564704E-004
                   126 -7.543457987006596E-005
                   127  6.349421223255248E-006
                   128 -5.523504545870524E-005
                   129  6.233780264858730E-004
                   130  2.330795223815547E-006
                   131  5.867379362384219E-005
                   132  3.589369616898014E-004
                   133 -4.534480636941703E-005
                   134  3.973501739089252E-004
                   135  1.840155903333239E-006
                   136  3.551947974997275E-005
                   137  4.368072806334530E-006
                   138 -3.945493519055336E-005
                   139 -5.066130133088079E-006
                   140  1.881125358261809E-004
                   141 -2.870962113983537E-004
                   142 -1.490440421147595E-005
                   143 -2.255257596933016E-004
                   144  2.573522054401977E-005
                   145 -8.932486024493404E-006
                   146  1.163039245098908E-005
                   147 -1.886065844916660E-006
                   148 -2.188237418190200E-006
                   149 -4.031072410654143E-006
                   150 -2.001558666118776E-005
                   151  1.509651692917486E-006
                   152  8.237267171756431E-006
                   153 -7.938541602837294E-004
                   154  2.297531640211791E-004
                   155 -1.455076250424801E-004
                   156 -8.146020085838328E-005
                   157 -7.049150649082965E-006
                   158  3.843715419140580E-005
                   159  4.822858047569405E-004
                   160  1.443979328608663E-005