[Molden Format]
[Atoms] AU
  N     1    7    -4.5040487100    0.0005530100   -0.3741296700        
  C     2    6    -1.7529775700   -0.0445458200   -0.1651108400        
  C     3    6    -0.3547137700    0.2169181400   -2.3720042800        
  C     4    6    -0.4773179400   -0.2561791800    2.1308284000        
  C     5    6     2.2616595300    0.2407646300   -2.2887904100        
  C     6    6     2.1352984400   -0.2079460100    2.2058562600        
  C     7    6     3.5111923300    0.0357102000   -0.0046369300        
  H     8    1    -5.0997130600   -1.8274686600    0.0755557800        
  H     9    1    -5.1043218700    0.9542857400    1.1984470000        
  H    10    1    -1.3341681600    0.4121163700   -4.1333137000        
  H    11    1    -1.5342119400   -0.4676405200    3.8493720100        
  H    12    1     3.3213501100    0.4394417300   -4.0069764500        
  H    13    1     3.0948501400   -0.3707237800    3.9864885300        
  H    14    1     5.5390015800    0.0665743900    0.0559983700        
[5D]
[7F]
[GTO]
  1  0
   s    12 1.00
  0.114200D+05  0.172695D-04
  0.171200D+04  0.134411D-03
  0.389300D+03  0.694561D-03
  0.110000D+03  0.278531D-02
  0.355700D+02  0.863457D-02
  0.125400D+02  0.199805D-01
  0.464400D+01  0.262908D-01
  0.129300D+01 -0.243845D-01
  0.511800D+00 -0.924934D-01
  0.178700D+00 -0.339683D+00
  0.246240D-01  0.345111D+00
  0.112530D-01  0.752750D+00
   s    10 1.00
  0.114200D+05  0.523000D-03
  0.171200D+04  0.404500D-02
  0.389300D+03  0.207750D-01
  0.110000D+03  0.807269D-01
  0.355700D+02  0.233074D+00
  0.125400D+02  0.433501D+00
  0.464400D+01  0.347472D+00
  0.129300D+01  0.412620D-01
  0.511800D+00 -0.850799D-02
  0.178700D+00  0.238400D-02
   s    10 1.00
  0.114200D+05 -0.115000D-03
  0.171200D+04 -0.895000D-03
  0.389300D+03 -0.462400D-02
  0.110000D+03 -0.185280D-01
  0.355700D+02 -0.573390D-01
  0.125400D+02 -0.132076D+00
  0.464400D+01 -0.172510D+00
  0.129300D+01  0.151814D+00
  0.511800D+00  0.599944D+00
  0.178700D+00  0.387462D+00
   s     1 1.00
  0.129300D+01  0.100000D+01
   s     1 1.00
  0.178700D+00  0.100000D+01
   p     5 1.00
  0.266300D+02  0.146700D-01
  0.594800D+01  0.917640D-01
  0.174200D+01  0.298683D+00
  0.555000D+00  0.498487D+00
  0.172500D+00  0.337023D+00
   p     1 1.00
  0.174200D+01  0.100000D+01
   p     1 1.00
  0.555000D+00  0.100000D+01
   d     1 1.00
  0.165400D+01  0.100000D+01
   d     1 1.00
  0.469000D+00  0.100000D+01
   f     1 1.00
  0.109300D+01  0.100000D+01
  
  2  0
   s    10 1.00
  0.823600D+04  0.531000D-03
  0.123500D+04  0.410800D-02
  0.280800D+03  0.210870D-01
  0.792700D+02  0.818530D-01
  0.255900D+02  0.234817D+00
  0.899700D+01  0.434401D+00
  0.331900D+01  0.346129D+00
  0.905900D+00  0.393780D-01
  0.364300D+00 -0.898300D-02
  0.128500D+00  0.238500D-02
   s    10 1.00
  0.823600D+04 -0.113000D-03
  0.123500D+04 -0.878000D-03
  0.280800D+03 -0.454000D-02
  0.792700D+02 -0.181330D-01
  0.255900D+02 -0.557600D-01
  0.899700D+01 -0.126895D+00
  0.331900D+01 -0.170352D+00
  0.905900D+00  0.140382D+00
  0.364300D+00  0.598684D+00
  0.128500D+00  0.395389D+00
   s     1 1.00
  0.905900D+00  0.100000D+01
   s     1 1.00
  0.364300D+00  0.100000D+01
   p     5 1.00
  0.187100D+02  0.140310D-01
  0.413300D+01  0.868660D-01
  0.120000D+01  0.290216D+00
  0.382700D+00  0.501008D+00
  0.120900D+00  0.343406D+00
   p     1 1.00
  0.382700D+00  0.100000D+01
   p     1 1.00
  0.120900D+00  0.100000D+01
   d     1 1.00
  0.109700D+01  0.100000D+01
   d     1 1.00
  0.318000D+00  0.100000D+01
   f     1 1.00
  0.761000D+00  0.100000D+01
  
  3  0
   s    10 1.00
  0.823600D+04  0.531000D-03
  0.123500D+04  0.410800D-02
  0.280800D+03  0.210870D-01
  0.792700D+02  0.818530D-01
  0.255900D+02  0.234817D+00
  0.899700D+01  0.434401D+00
  0.331900D+01  0.346129D+00
  0.905900D+00  0.393780D-01
  0.364300D+00 -0.898300D-02
  0.128500D+00  0.238500D-02
   s    10 1.00
  0.823600D+04 -0.113000D-03
  0.123500D+04 -0.878000D-03
  0.280800D+03 -0.454000D-02
  0.792700D+02 -0.181330D-01
  0.255900D+02 -0.557600D-01
  0.899700D+01 -0.126895D+00
  0.331900D+01 -0.170352D+00
  0.905900D+00  0.140382D+00
  0.364300D+00  0.598684D+00
  0.128500D+00  0.395389D+00
   s     1 1.00
  0.905900D+00  0.100000D+01
   s     1 1.00
  0.364300D+00  0.100000D+01
   p     5 1.00
  0.187100D+02  0.140310D-01
  0.413300D+01  0.868660D-01
  0.120000D+01  0.290216D+00
  0.382700D+00  0.501008D+00
  0.120900D+00  0.343406D+00
   p     1 1.00
  0.382700D+00  0.100000D+01
   p     1 1.00
  0.120900D+00  0.100000D+01
   d     1 1.00
  0.109700D+01  0.100000D+01
   d     1 1.00
  0.318000D+00  0.100000D+01
   f     1 1.00
  0.761000D+00  0.100000D+01
  
  4  0
   s    10 1.00
  0.823600D+04  0.531000D-03
  0.123500D+04  0.410800D-02
  0.280800D+03  0.210870D-01
  0.792700D+02  0.818530D-01
  0.255900D+02  0.234817D+00
  0.899700D+01  0.434401D+00
  0.331900D+01  0.346129D+00
  0.905900D+00  0.393780D-01
  0.364300D+00 -0.898300D-02
  0.128500D+00  0.238500D-02
   s    10 1.00
  0.823600D+04 -0.113000D-03
  0.123500D+04 -0.878000D-03
  0.280800D+03 -0.454000D-02
  0.792700D+02 -0.181330D-01
  0.255900D+02 -0.557600D-01
  0.899700D+01 -0.126895D+00
  0.331900D+01 -0.170352D+00
  0.905900D+00  0.140382D+00
  0.364300D+00  0.598684D+00
  0.128500D+00  0.395389D+00
   s     1 1.00
  0.905900D+00  0.100000D+01
   s     1 1.00
  0.364300D+00  0.100000D+01
   p     5 1.00
  0.187100D+02  0.140310D-01
  0.413300D+01  0.868660D-01
  0.120000D+01  0.290216D+00
  0.382700D+00  0.501008D+00
  0.120900D+00  0.343406D+00
   p     1 1.00
  0.382700D+00  0.100000D+01
   p     1 1.00
  0.120900D+00  0.100000D+01
   d     1 1.00
  0.109700D+01  0.100000D+01
   d     1 1.00
  0.318000D+00  0.100000D+01
   f     1 1.00
  0.761000D+00  0.100000D+01
  
  5  0
   s    10 1.00
  0.823600D+04  0.531000D-03
  0.123500D+04  0.410800D-02
  0.280800D+03  0.210870D-01
  0.792700D+02  0.818530D-01
  0.255900D+02  0.234817D+00
  0.899700D+01  0.434401D+00
  0.331900D+01  0.346129D+00
  0.905900D+00  0.393780D-01
  0.364300D+00 -0.898300D-02
  0.128500D+00  0.238500D-02
   s    10 1.00
  0.823600D+04 -0.113000D-03
  0.123500D+04 -0.878000D-03
  0.280800D+03 -0.454000D-02
  0.792700D+02 -0.181330D-01
  0.255900D+02 -0.557600D-01
  0.899700D+01 -0.126895D+00
  0.331900D+01 -0.170352D+00
  0.905900D+00  0.140382D+00
  0.364300D+00  0.598684D+00
  0.128500D+00  0.395389D+00
   s     1 1.00
  0.905900D+00  0.100000D+01
   s     1 1.00
  0.364300D+00  0.100000D+01
   p     5 1.00
  0.187100D+02  0.140310D-01
  0.413300D+01  0.868660D-01
  0.120000D+01  0.290216D+00
  0.382700D+00  0.501008D+00
  0.120900D+00  0.343406D+00
   p     1 1.00
  0.382700D+00  0.100000D+01
   p     1 1.00
  0.120900D+00  0.100000D+01
   d     1 1.00
  0.109700D+01  0.100000D+01
   d     1 1.00
  0.318000D+00  0.100000D+01
   f     1 1.00
  0.761000D+00  0.100000D+01
  
  6  0
   s    10 1.00
  0.823600D+04  0.531000D-03
  0.123500D+04  0.410800D-02
  0.280800D+03  0.210870D-01
  0.792700D+02  0.818530D-01
  0.255900D+02  0.234817D+00
  0.899700D+01  0.434401D+00
  0.331900D+01  0.346129D+00
  0.905900D+00  0.393780D-01
  0.364300D+00 -0.898300D-02
  0.128500D+00  0.238500D-02
   s    10 1.00
  0.823600D+04 -0.113000D-03
  0.123500D+04 -0.878000D-03
  0.280800D+03 -0.454000D-02
  0.792700D+02 -0.181330D-01
  0.255900D+02 -0.557600D-01
  0.899700D+01 -0.126895D+00
  0.331900D+01 -0.170352D+00
  0.905900D+00  0.140382D+00
  0.364300D+00  0.598684D+00
  0.128500D+00  0.395389D+00
   s     1 1.00
  0.905900D+00  0.100000D+01
   s     1 1.00
  0.364300D+00  0.100000D+01
   p     5 1.00
  0.187100D+02  0.140310D-01
  0.413300D+01  0.868660D-01
  0.120000D+01  0.290216D+00
  0.382700D+00  0.501008D+00
  0.120900D+00  0.343406D+00
   p     1 1.00
  0.382700D+00  0.100000D+01
   p     1 1.00
  0.120900D+00  0.100000D+01
   d     1 1.00
  0.109700D+01  0.100000D+01
   d     1 1.00
  0.318000D+00  0.100000D+01
   f     1 1.00
  0.761000D+00  0.100000D+01
  
  7  0
   s    10 1.00
  0.823600D+04  0.531000D-03
  0.123500D+04  0.410800D-02
  0.280800D+03  0.210870D-01
  0.792700D+02  0.818530D-01
  0.255900D+02  0.234817D+00
  0.899700D+01  0.434401D+00
  0.331900D+01  0.346129D+00
  0.905900D+00  0.393780D-01
  0.364300D+00 -0.898300D-02
  0.128500D+00  0.238500D-02
   s    10 1.00
  0.823600D+04 -0.113000D-03
  0.123500D+04 -0.878000D-03
  0.280800D+03 -0.454000D-02
  0.792700D+02 -0.181330D-01
  0.255900D+02 -0.557600D-01
  0.899700D+01 -0.126895D+00
  0.331900D+01 -0.170352D+00
  0.905900D+00  0.140382D+00
  0.364300D+00  0.598684D+00
  0.128500D+00  0.395389D+00
   s     1 1.00
  0.905900D+00  0.100000D+01
   s     1 1.00
  0.364300D+00  0.100000D+01
   p     5 1.00
  0.187100D+02  0.140310D-01
  0.413300D+01  0.868660D-01
  0.120000D+01  0.290216D+00
  0.382700D+00  0.501008D+00
  0.120900D+00  0.343406D+00
   p     1 1.00
  0.382700D+00  0.100000D+01
   p     1 1.00
  0.120900D+00  0.100000D+01
   d     1 1.00
  0.109700D+01  0.100000D+01
   d     1 1.00
  0.318000D+00  0.100000D+01
   f     1 1.00
  0.761000D+00  0.100000D+01
  
  8  0
   s     4 1.00
  0.130100D+02  0.196850D-01
  0.196200D+01  0.137977D+00
  0.444600D+00  0.478148D+00
  0.122000D+00  0.501240D+00
   s     1 1.00
  0.122000D+00  0.100000D+01
   p     1 1.00
  0.727000D+00  0.100000D+01
  
  9  0
   s     4 1.00
  0.130100D+02  0.196850D-01
  0.196200D+01  0.137977D+00
  0.444600D+00  0.478148D+00
  0.122000D+00  0.501240D+00
   s     1 1.00
  0.122000D+00  0.100000D+01
   p     1 1.00
  0.727000D+00  0.100000D+01
  
 10  0
   s     4 1.00
  0.130100D+02  0.196850D-01
  0.196200D+01  0.137977D+00
  0.444600D+00  0.478148D+00
  0.122000D+00  0.501240D+00
   s     1 1.00
  0.122000D+00  0.100000D+01
   p     1 1.00
  0.727000D+00  0.100000D+01
  
 11  0
   s     4 1.00
  0.130100D+02  0.196850D-01
  0.196200D+01  0.137977D+00
  0.444600D+00  0.478148D+00
  0.122000D+00  0.501240D+00
   s     1 1.00
  0.122000D+00  0.100000D+01
   p     1 1.00
  0.727000D+00  0.100000D+01
  
 12  0
   s     4 1.00
  0.130100D+02  0.196850D-01
  0.196200D+01  0.137977D+00
  0.444600D+00  0.478148D+00
  0.122000D+00  0.501240D+00
   s     1 1.00
  0.122000D+00  0.100000D+01
   p     1 1.00
  0.727000D+00  0.100000D+01
  
 13  0
   s     4 1.00
  0.130100D+02  0.196850D-01
  0.196200D+01  0.137977D+00
  0.444600D+00  0.478148D+00
  0.122000D+00  0.501240D+00
   s     1 1.00
  0.122000D+00  0.100000D+01
   p     1 1.00
  0.727000D+00  0.100000D+01
  
 14  0
   s     4 1.00
  0.130100D+02  0.196850D-01
  0.196200D+01  0.137977D+00
  0.444600D+00  0.478148D+00
  0.122000D+00  0.501240D+00
   s     1 1.00
  0.122000D+00  0.100000D+01
   p     1 1.00
  0.727000D+00  0.100000D+01
  
[MO]
 Sym= __1_A__
 Ene=  0.000000000000000E+000
 Spin= Alpha
 Occup=    2.00000000000000     
                     1 -6.108520515292641E-008
                     2  0.998137211449211     
                     3 -1.234126560466737E-002
                     4  2.012784950583621E-003
                     5  6.991581112450590E-003
                     6  8.626115560012861E-003
                     7 -3.612784068758975E-003
                     8  1.246170419984383E-002
                     9 -1.193658408421339E-003
                    10  3.352955400442924E-004
                    11 -1.217308257538102E-003
                    12 -2.751972975904130E-003
                    13  1.598062794498618E-003
                    14 -4.602656637692570E-003
                    15  8.686669113949876E-005
                    16 -4.094189369218354E-005
                    17 -3.396699660718088E-005
                    18  3.645911470429628E-005
                    19 -1.520844524022724E-005
                    20  1.756011349405126E-004
                    21  6.649521932594546E-004
                    22 -2.192775422490216E-004
                    23  2.360802804829238E-004
                    24 -2.355082266414528E-004
                    25  3.080366935194877E-005
                    26 -8.369824056400301E-005
                    27  4.171670133966389E-005
                    28  1.687400584609856E-005
                    29  9.261869092325895E-006
                    30 -4.866771716472377E-005
                    31 -1.218538595338865E-005
                    32 -3.093751930677589E-004
                    33  1.571752748283428E-004
                    34  2.711614914890129E-004
                    35  4.132827430361663E-005
                    36 -1.297164383493356E-003
                    37 -1.062880279760526E-003
                    38 -6.351793519653239E-004
                    39 -2.199822757844125E-005
                    40 -1.106394372311529E-004
                    41  9.394430591097329E-004
                    42  4.287598699044945E-003
                    43  4.288054304043434E-004
                    44 -2.949209256162930E-003
                    45 -8.854936126645662E-005
                    46 -8.070272406571868E-005
                    47  1.284776302024866E-005
                    48  9.081539256044853E-005
                    49  3.011328837046471E-005
                    50  4.431942996588428E-004
                    51  6.406968500993852E-004
                    52 -6.626362567850346E-005
                    53 -1.697569201190968E-004
                    54 -1.630684600860407E-004
                    55  6.977289690608195E-005
                    56 -2.116525990745032E-005
                    57 -6.273194798773860E-006
                    58  7.771292939590068E-005
                    59 -5.436926261716766E-006
                    60 -3.955387304207244E-005
                    61 -1.375493164721096E-005
                    62 -8.212727669678382E-004
                    63 -2.036298212312194E-003
                    64 -1.092678349266376E-004
                    65  3.004672136291984E-003
                    66 -9.537121459154013E-004
                    67 -5.165805032754333E-004
                    68  2.481047312170348E-005
                    69  8.004627945611241E-004
                    70 -5.533044450185827E-005
                    71  7.051075494514508E-004
                    72  1.507873554299291E-003
                    73  2.639215687944976E-004
                    74 -1.698144718274747E-003
                    75 -6.913185779601698E-006
                    76 -5.609445634073799E-005
                    77 -2.134751793346711E-005
                    78  6.238731903427030E-005
                    79  1.732509146264189E-005
                    80  4.255364516620649E-004
                    81  4.566292631001823E-005
                    82 -9.384103155519991E-005
                    83 -6.586898368517178E-005
                    84  1.508560303123006E-005
                    85 -2.563409932066892E-005
                    86 -1.563874250666662E-004
                    87 -9.693906317479562E-006
                    88  7.450613418846836E-006
                    89  2.525104339619965E-005
                    90 -7.533401468651831E-005
                    91 -5.173920000476288E-006
                    92  5.743023560784726E-005
                    93 -2.892317354904755E-004
                    94  3.363298916763758E-004
                    95 -1.400713018303163E-003
                    96  3.059756942714237E-004
                    97 -4.454537917830398E-004
                    98  3.548648263750929E-004
                    99  1.324856249670718E-004
                   100 -2.425649377412034E-005
                   101  4.913066806334710E-004
                   102 -2.144355827785979E-003
                   103  4.882129550582654E-006
                   104  1.070450326668138E-004
                   105 -5.043483406219719E-005
                   106 -9.912510159092921E-006
                   107  1.852601648880007E-005
                   108  3.416741594339982E-005
                   109  9.674475270189307E-006
                   110 -1.080851306040341E-004
                   111 -9.171187265260501E-005
                   112  4.701537171831726E-005
                   113 -2.230263399663198E-004
                   114  1.000115005810370E-005
                   115 -3.353847747889625E-005
                   116  5.190621621607597E-005
                   117 -3.137243329559299E-006
                   118  4.484882191581550E-006
                   119 -1.253342821672254E-005
                   120  2.858142172311537E-006
                   121 -6.810243752366373E-006
                   122 -3.201947546368314E-004
                   123 -1.221057997472523E-003
                   124  1.282920604415437E-004
                   125  8.741689321103489E-004
                   126  2.321042837630105E-004
                   127 -2.065944402976340E-005
                   128 -8.574244934812755E-005
                   129  5.358306887897817E-004
                   130 -2.277610240068982E-005
                   131  3.062781180135458E-004
                   132  2.314371431742333E-003
                   133  1.046107684597900E-005
                   134  5.359200700540222E-004
                   135  4.610902018800178E-005
                   136 -9.625491121219038E-006
                   137 -3.663295739140172E-006
                   138 -3.132571500094760E-005
                   139  1.026668978137746E-005
                   140  2.453496049556172E-004
                   141  3.109551486482662E-004
                   142  6.530981209487882E-006
                   143 -3.824232736947864E-004
                   144 -2.387393094895070E-005
                   145 -3.083696520175545E-005
                   146 -3.098556562137724E-005
                   147 -5.515059302024833E-006
                   148 -6.269236205109444E-006
                   149 -3.627467954831298E-006
                   150 -9.024225562368543E-005
                   151  2.107753921490888E-006
                   152 -1.419281020169554E-004
                   153 -2.875900940336764E-004
                   154 -7.481933649832952E-005
                   155  6.713494283813074E-004
                   156 -1.415526707032100E-004
                   157  2.168930070990833E-005
                   158 -2.875844125216772E-005
                   159 -3.060612154242068E-004
                   160 -2.439755850343029E-005
                   161  1.897050081226675E-004
                   162 -8.599364619672332E-004
                   163 -7.995342026415784E-005
                   164  9.019232687995672E-004
                   165 -2.225136137633952E-005
                   166  4.856097027689594E-006
                   167 -5.016917656388323E-007
                   168  2.662773719995722E-005
                   169  9.173868368389946E-006
                   170 -8.291574217759560E-005
                   171  2.012164575702450E-005
                   172  1.308088087754098E-005
                   173  3.667429792109890E-005
                   174  8.737498820526845E-006
                   175 -9.993572117562759E-006
                   176 -2.614519208890869E-006
                   177 -9.478071692654164E-007
                   178 -7.431962335713796E-006
                   179 -1.331581423365920E-006
                   180  8.664201189975257E-006
                   181 -3.652347345915299E-007
                   182 -1.505041733801084E-004
                   183 -4.342485243661592E-004
                   184  3.779223592301648E-005
                   185  2.164318163982049E-004
                   186 -6.250658941436221E-005
                   187  1.700205589463811E-004
                   188 -7.781372355679553E-005
                   189  1.046509576528970E-004
                   190 -3.510319441806604E-005
                   191  4.145864781565362E-004
                   192 -4.771572724591313E-004
                   193 -1.581067049341886E-004
                   194  1.801823472612660E-003
                   195  2.910786896672740E-006
                   196  1.862191473253883E-006
                   197  5.187490363240119E-007
                   198 -2.847850503541668E-006
                   199  1.296675601418100E-007
                   200 -1.129682234092646E-004
                   201 -3.100749021406712E-004
                   202  1.470572234335148E-005
                   203  4.802003107194054E-005
                   204  2.998360726997679E-005
                   205  1.320879011895618E-006
                   206  6.154319382393873E-006
                   207 -1.618358856349439E-006
                   208  2.088149886475788E-005
                   209 -1.994048142096654E-006
                   210 -4.188078475749894E-006
                   211 -2.083211366934802E-006
                   212 -1.325689108860842E-003
                   213  6.002447615434797E-005
                   214  1.099275370288072E-004
                   215  8.966515430139584E-005
                   216  1.368298516009242E-006
                   217  1.894192653808946E-004
                   218 -4.507282777869060E-004
                   219  1.366868376781951E-004
                   220 -6.462342022391305E-005
                   221 -1.330329323361368E-004
                   222  3.096930012170982E-005
                   223 -6.199063625261284E-004
                   224 -8.593985658989059E-005
                   225 -1.486235227046409E-005
                   226  6.910971794339804E-005
                   227 -8.781066647389419E-005
                   228 -4.231361991413436E-004
                   229 -2.973912439991976E-005
                   230  3.866883379625744E-006
                   231 -6.641271840106761E-005
                   232  2.869612687111677E-004
                   233 -5.376919862641145E-004
                   234 -1.029214797481774E-006
                   235 -1.352720360287677E-006
                   236  1.873864040246474E-005
                   237 -9.626539323517526E-005
                   238 -3.239587359182633E-004
                   239  7.275696740793348E-006
                   240 -3.278439110882592E-007
                   241  1.840359221244310E-005
                   242 -9.699839024610093E-005
                   243  1.591326873502855E-004
                   244  3.141888746292256E-005
                   245  5.150158551466111E-006
                   246  1.022046375041404E-006
 Sym= __2_A__
 Ene=  0.000000000000000E+000
 Spin= Alpha
 Occup=    2.00000000000000     
                     1 -8.096143861487657E-006
                     2 -8.105971578671354E-005
                     3  2.747998518902809E-004
                     4 -1.642074380340047E-005
                     5  1.167677040517029E-003
                     6  1.279339792701282E-003
                     7 -2.355848329697059E-004
                     8  3.552041331817447E-004
                     9 -1.559995713855109E-004
                    10  8.222352028516451E-005
                    11 -9.292479537861034E-005
                    12  1.979244391777773E-004
                    13  1.135168545323515E-004
                    14 -9.542978098926929E-005
                    15 -4.895746157452588E-005
                    16  2.358877903570587E-005
                    17 -7.846564385988697E-007
                    18  4.805044247865070E-005
                    19 -1.408648224015513E-006
                    20  5.619299490993863E-005
                    21 -6.137476130588460E-005
                    22 -2.848644018277321E-006
                    23  1.078554689049851E-004
                    24 -3.019383148836125E-005
                    25 -3.910047437657025E-005
                    26  1.257664155822608E-004
                    27  1.871396966723616E-005
                    28 -5.254549420665946E-005
                    29 -1.195971001388757E-005
                    30  1.166815730176200E-004
                    31  1.822593753092270E-005
                    32   1.00084195261571     
                    33  8.452816926643719E-003
                    34  2.859794430595166E-003
                    35 -8.430424199026723E-003
                    36 -1.364207209583248E-003
                    37  4.053637522987970E-005
                    38  1.343770118335433E-004
                    39  8.830564223640840E-004
                    40 -1.644115442805514E-005
                    41 -3.830492736800950E-004
                    42  2.508430193105098E-003
                    43 -6.665801780419636E-005
                    44  2.343179493204973E-004
                    45  3.178396448382105E-004
                    46 -2.003955716588066E-006
                    47 -8.252681862620449E-005
                    48  3.185985268332348E-004
                    49  8.712827321094825E-006
                    50 -9.701049462609555E-004
                    51 -3.299342926217833E-004
                    52  1.869945551015541E-004
                    53 -1.541701162453088E-004
                    54  2.895940707885973E-005
                    55 -2.085862911217042E-005
                    56  2.557822038693412E-004
                    57 -2.542920602593404E-006
                    58 -3.131919445873472E-005
                    59 -3.297945242144157E-005
                    60  6.560770480686003E-005
                    61  4.943658053178432E-006
                    62  1.609475565622390E-002
                    63 -1.475607725945388E-003
                    64 -2.874839513891825E-004
                    65  2.773690503595242E-003
                    66 -3.229415518563804E-004
                    67 -6.175315538483300E-005
                    68  4.341777821182344E-004
                    69  4.111147719151695E-005
                    70 -3.646376376532518E-005
                    71  2.995901076461661E-004
                    72  2.455151317854590E-004
                    73  2.214562897750414E-004
                    74 -1.726818465013086E-003
                    75  1.019350908278900E-005
                    76  2.523565232016849E-005
                    77  1.411747100809001E-006
                    78 -4.748312083985628E-005
                    79 -2.860669335443332E-006
                    80 -5.230559045729815E-004
                    81 -3.724106572878465E-004
                    82  1.564801617002555E-005
                    83  8.046485931160152E-004
                    84  5.911932719881495E-005
                    85  3.441411691060616E-005
                    86  1.051817610705042E-004
                    87  1.731778384164700E-005
                    88 -2.869188261149600E-005
                    89 -2.346818871941929E-005
                    90 -2.613410941179887E-005
                    91  4.965541239646076E-006
                    92  1.857938095823928E-002
                    93 -1.660672648035065E-003
                    94 -3.375227190886349E-004
                    95  3.347930063616981E-003
                    96 -2.808089788196788E-004
                    97  2.164346835715655E-005
                    98 -3.724209784112010E-004
                    99 -1.112711379106481E-004
                   100  8.049829568523679E-005
                   101 -7.692451927852973E-004
                   102  3.373853971187087E-004
                   103 -1.291079998924872E-004
                   104  1.539292133321402E-003
                   105  1.099274458069911E-005
                   106 -3.284810160714764E-006
                   107  2.030006774025186E-006
                   108 -2.512440557755412E-005
                   109 -8.117993115952858E-009
                   110 -1.785056237013514E-004
                   111  5.004563999396252E-004
                   112 -3.475093421305768E-005
                   113  6.160294982826838E-004
                   114 -3.745056998021232E-005
                   115 -4.564770539600104E-005
                   116  8.589725500569518E-005
                   117 -1.097147674085822E-005
                   118  1.886085189511109E-005
                   119 -1.380526936351329E-005
                   120 -2.925200009240104E-005
                   121 -8.794344292170391E-007
                   122 -6.412974963654701E-005
                   123 -7.502596005102109E-004
                   124  2.441515398610639E-004
                   125 -3.902813378830554E-004
                   126 -7.543457920936416E-005
                   127  6.349421244949801E-006
                   128 -5.523504555667471E-005
                   129  6.233780265215650E-004
                   130  2.330795220827859E-006
                   131  5.867379365061958E-005
                   132  3.589369616435759E-004
                   133 -4.534480637814681E-005
                   134  3.973501739829537E-004
                   135  1.840155918123921E-006
                   136  3.551947974549073E-005
                   137  4.368072804791746E-006
                   138 -3.945493520401182E-005
                   139 -5.066130133243025E-006
                   140  1.881125358402284E-004
                   141 -2.870962114434044E-004
                   142 -1.490440420843059E-005
                   143 -2.255257597493398E-004
                   144  2.573522054737756E-005
                   145 -8.932486022131820E-006
                   146  1.163039245128344E-005
                   147 -1.886065844303140E-006
                   148 -2.188237418306970E-006
                   149 -4.031072410784205E-006
                   150 -2.001558666138443E-005
                   151  1.509651693005326E-006
                   152  8.237263785785393E-006
                   153 -7.938541605200105E-004
                   154  2.297531640527811E-004
                   155 -1.455076252459188E-004
                   156 -8.146020021316459E-005
                   157 -7.049150650149069E-006
                   158  3.843715429303276E-005
                   159  4.822858047827117E-004
                   160  1.443979328764737E-005