[Molden Format]
[Atoms] AU
  N     1    7    -4.5040487100    0.0005530100   -0.3741296700        
  C     2    6    -1.7529775700   -0.0445458200   -0.1651108400        
  C     3    6    -0.3547137700    0.2169181400   -2.3720042800        
  C     4    6    -0.4773179400   -0.2561791800    2.1308284000        
  C     5    6     2.2616595300    0.2407646300   -2.2887904100        
  C     6    6     2.1352984400   -0.2079460100    2.2058562600        
  C     7    6     3.5111923300    0.0357102000   -0.0046369300        
  H     8    1    -5.0997130600   -1.8274686600    0.0755557800        
  H     9    1    -5.1043218700    0.9542857400    1.1984470000        
  H    10    1    -1.3341681600    0.4121163700   -4.1333137000        
  H    11    1    -1.5342119400   -0.4676405200    3.8493720100        
  H    12    1     3.3213501100    0.4394417300   -4.0069764500        
  H    13    1     3.0948501400   -0.3707237800    3.9864885300        
  H    14    1     5.5390015800    0.0665743900    0.0559983700        
[5D]
[7F]
[GTO]
  1  0
   s    12 1.00
  0.114200D+05  0.172695D-04
  0.171200D+04  0.134411D-03
  0.389300D+03  0.694561D-03
  0.110000D+03  0.278531D-02
  0.355700D+02  0.863457D-02
  0.125400D+02  0.199805D-01
  0.464400D+01  0.262908D-01
  0.129300D+01 -0.243845D-01
  0.511800D+00 -0.924934D-01
  0.178700D+00 -0.339683D+00
  0.246240D-01  0.345111D+00
  0.112530D-01  0.752750D+00
   s    10 1.00
  0.114200D+05  0.523000D-03
  0.171200D+04  0.404500D-02
  0.389300D+03  0.207750D-01
  0.110000D+03  0.807269D-01
  0.355700D+02  0.233074D+00
  0.125400D+02  0.433501D+00
  0.464400D+01  0.347472D+00
  0.129300D+01  0.412620D-01
  0.511800D+00 -0.850799D-02
  0.178700D+00  0.238400D-02
   s    10 1.00
  0.114200D+05 -0.115000D-03
  0.171200D+04 -0.895000D-03
  0.389300D+03 -0.462400D-02
  0.110000D+03 -0.185280D-01
  0.355700D+02 -0.573390D-01
  0.125400D+02 -0.132076D+00
  0.464400D+01 -0.172510D+00
  0.129300D+01  0.151814D+00
  0.511800D+00  0.599944D+00
  0.178700D+00  0.387462D+00
   s     1 1.00
  0.129300D+01  0.100000D+01
   s     1 1.00
  0.178700D+00  0.100000D+01
   p     5 1.00
  0.266300D+02  0.146700D-01
  0.594800D+01  0.917640D-01
  0.174200D+01  0.298683D+00
  0.555000D+00  0.498487D+00
  0.172500D+00  0.337023D+00
   p     1 1.00
  0.174200D+01  0.100000D+01
   p     1 1.00
  0.555000D+00  0.100000D+01
   d     1 1.00
  0.165400D+01  0.100000D+01
   d     1 1.00
  0.469000D+00  0.100000D+01
   f     1 1.00
  0.109300D+01  0.100000D+01
  
  2  0
   s    10 1.00
  0.823600D+04  0.531000D-03
  0.123500D+04  0.410800D-02
  0.280800D+03  0.210870D-01
  0.792700D+02  0.818530D-01
  0.255900D+02  0.234817D+00
  0.899700D+01  0.434401D+00
  0.331900D+01  0.346129D+00
  0.905900D+00  0.393780D-01
  0.364300D+00 -0.898300D-02
  0.128500D+00  0.238500D-02
   s    10 1.00
  0.823600D+04 -0.113000D-03
  0.123500D+04 -0.878000D-03
  0.280800D+03 -0.454000D-02
  0.792700D+02 -0.181330D-01
  0.255900D+02 -0.557600D-01
  0.899700D+01 -0.126895D+00
  0.331900D+01 -0.170352D+00
  0.905900D+00  0.140382D+00
  0.364300D+00  0.598684D+00
  0.128500D+00  0.395389D+00
   s     1 1.00
  0.905900D+00  0.100000D+01
   s     1 1.00
  0.364300D+00  0.100000D+01
   p     5 1.00
  0.187100D+02  0.140310D-01
  0.413300D+01  0.868660D-01
  0.120000D+01  0.290216D+00
  0.382700D+00  0.501008D+00
  0.120900D+00  0.343406D+00
   p     1 1.00
  0.382700D+00  0.100000D+01
   p     1 1.00
  0.120900D+00  0.100000D+01
   d     1 1.00
  0.109700D+01  0.100000D+01
   d     1 1.00
  0.318000D+00  0.100000D+01
   f     1 1.00
  0.761000D+00  0.100000D+01
  
  3  0
   s    10 1.00
  0.823600D+04  0.531000D-03
  0.123500D+04  0.410800D-02
  0.280800D+03  0.210870D-01
  0.792700D+02  0.818530D-01
  0.255900D+02  0.234817D+00
  0.899700D+01  0.434401D+00
  0.331900D+01  0.346129D+00
  0.905900D+00  0.393780D-01
  0.364300D+00 -0.898300D-02
  0.128500D+00  0.238500D-02
   s    10 1.00
  0.823600D+04 -0.113000D-03
  0.123500D+04 -0.878000D-03
  0.280800D+03 -0.454000D-02
  0.792700D+02 -0.181330D-01
  0.255900D+02 -0.557600D-01
  0.899700D+01 -0.126895D+00
  0.331900D+01 -0.170352D+00
  0.905900D+00  0.140382D+00
  0.364300D+00  0.598684D+00
  0.128500D+00  0.395389D+00
   s     1 1.00
  0.905900D+00  0.100000D+01
   s     1 1.00
  0.364300D+00  0.100000D+01
   p     5 1.00
  0.187100D+02  0.140310D-01
  0.413300D+01  0.868660D-01
  0.120000D+01  0.290216D+00
  0.382700D+00  0.501008D+00
  0.120900D+00  0.343406D+00
   p     1 1.00
  0.382700D+00  0.100000D+01
   p     1 1.00
  0.120900D+00  0.100000D+01
   d     1 1.00
  0.109700D+01  0.100000D+01
   d     1 1.00
  0.318000D+00  0.100000D+01
   f     1 1.00
  0.761000D+00  0.100000D+01
  
  4  0
   s    10 1.00
  0.823600D+04  0.531000D-03
  0.123500D+04  0.410800D-02
  0.280800D+03  0.210870D-01
  0.792700D+02  0.818530D-01
  0.255900D+02  0.234817D+00
  0.899700D+01  0.434401D+00
  0.331900D+01  0.346129D+00
  0.905900D+00  0.393780D-01
  0.364300D+00 -0.898300D-02
  0.128500D+00  0.238500D-02
   s    10 1.00
  0.823600D+04 -0.113000D-03
  0.123500D+04 -0.878000D-03
  0.280800D+03 -0.454000D-02
  0.792700D+02 -0.181330D-01
  0.255900D+02 -0.557600D-01
  0.899700D+01 -0.126895D+00
  0.331900D+01 -0.170352D+00
  0.905900D+00  0.140382D+00
  0.364300D+00  0.598684D+00
  0.128500D+00  0.395389D+00
   s     1 1.00
  0.905900D+00  0.100000D+01
   s     1 1.00
  0.364300D+00  0.100000D+01
   p     5 1.00
  0.187100D+02  0.140310D-01
  0.413300D+01  0.868660D-01
  0.120000D+01  0.290216D+00
  0.382700D+00  0.501008D+00
  0.120900D+00  0.343406D+00
   p     1 1.00
  0.382700D+00  0.100000D+01
   p     1 1.00
  0.120900D+00  0.100000D+01
   d     1 1.00
  0.109700D+01  0.100000D+01
   d     1 1.00
  0.318000D+00  0.100000D+01
   f     1 1.00
  0.761000D+00  0.100000D+01
  
  5  0
   s    10 1.00
  0.823600D+04  0.531000D-03
  0.123500D+04  0.410800D-02
  0.280800D+03  0.210870D-01
  0.792700D+02  0.818530D-01
  0.255900D+02  0.234817D+00
  0.899700D+01  0.434401D+00
  0.331900D+01  0.346129D+00
  0.905900D+00  0.393780D-01
  0.364300D+00 -0.898300D-02
  0.128500D+00  0.238500D-02
   s    10 1.00
  0.823600D+04 -0.113000D-03
  0.123500D+04 -0.878000D-03
  0.280800D+03 -0.454000D-02
  0.792700D+02 -0.181330D-01
  0.255900D+02 -0.557600D-01
  0.899700D+01 -0.126895D+00
  0.331900D+01 -0.170352D+00
  0.905900D+00  0.140382D+00
  0.364300D+00  0.598684D+00
  0.128500D+00  0.395389D+00
   s     1 1.00
  0.905900D+00  0.100000D+01
   s     1 1.00
  0.364300D+00  0.100000D+01
   p     5 1.00
  0.187100D+02  0.140310D-01
  0.413300D+01  0.868660D-01
  0.120000D+01  0.290216D+00
  0.382700D+00  0.501008D+00
  0.120900D+00  0.343406D+00
   p     1 1.00
  0.382700D+00  0.100000D+01
   p     1 1.00
  0.120900D+00  0.100000D+01
   d     1 1.00
  0.109700D+01  0.100000D+01
   d     1 1.00
  0.318000D+00  0.100000D+01
   f     1 1.00
  0.761000D+00  0.100000D+01
  
  6  0
   s    10 1.00
  0.823600D+04  0.531000D-03
  0.123500D+04  0.410800D-02
  0.280800D+03  0.210870D-01
  0.792700D+02  0.818530D-01
  0.255900D+02  0.234817D+00
  0.899700D+01  0.434401D+00
  0.331900D+01  0.346129D+00
  0.905900D+00  0.393780D-01
  0.364300D+00 -0.898300D-02
  0.128500D+00  0.238500D-02
   s    10 1.00
  0.823600D+04 -0.113000D-03
  0.123500D+04 -0.878000D-03
  0.280800D+03 -0.454000D-02
  0.792700D+02 -0.181330D-01
  0.255900D+02 -0.557600D-01
  0.899700D+01 -0.126895D+00
  0.331900D+01 -0.170352D+00
  0.905900D+00  0.140382D+00
  0.364300D+00  0.598684D+00
  0.128500D+00  0.395389D+00
   s     1 1.00
  0.905900D+00  0.100000D+01
   s     1 1.00
  0.364300D+00  0.100000D+01
   p     5 1.00
  0.187100D+02  0.140310D-01
  0.413300D+01  0.868660D-01
  0.120000D+01  0.290216D+00
  0.382700D+00  0.501008D+00
  0.120900D+00  0.343406D+00
   p     1 1.00
  0.382700D+00  0.100000D+01
   p     1 1.00
  0.120900D+00  0.100000D+01
   d     1 1.00
  0.109700D+01  0.100000D+01
   d     1 1.00
  0.318000D+00  0.100000D+01
   f     1 1.00
  0.761000D+00  0.100000D+01
  
  7  0
   s    10 1.00
  0.823600D+04  0.531000D-03
  0.123500D+04  0.410800D-02
  0.280800D+03  0.210870D-01
  0.792700D+02  0.818530D-01
  0.255900D+02  0.234817D+00
  0.899700D+01  0.434401D+00
  0.331900D+01  0.346129D+00
  0.905900D+00  0.393780D-01
  0.364300D+00 -0.898300D-02
  0.128500D+00  0.238500D-02
   s    10 1.00
  0.823600D+04 -0.113000D-03
  0.123500D+04 -0.878000D-03
  0.280800D+03 -0.454000D-02
  0.792700D+02 -0.181330D-01
  0.255900D+02 -0.557600D-01
  0.899700D+01 -0.126895D+00
  0.331900D+01 -0.170352D+00
  0.905900D+00  0.140382D+00
  0.364300D+00  0.598684D+00
  0.128500D+00  0.395389D+00
   s     1 1.00
  0.905900D+00  0.100000D+01
   s     1 1.00
  0.364300D+00  0.100000D+01
   p     5 1.00
  0.187100D+02  0.140310D-01
  0.413300D+01  0.868660D-01
  0.120000D+01  0.290216D+00
  0.382700D+00  0.501008D+00
  0.120900D+00  0.343406D+00
   p     1 1.00
  0.382700D+00  0.100000D+01
   p     1 1.00
  0.120900D+00  0.100000D+01
   d     1 1.00
  0.109700D+01  0.100000D+01
   d     1 1.00
  0.318000D+00  0.100000D+01
   f     1 1.00
  0.761000D+00  0.100000D+01
  
  8  0
   s     4 1.00
  0.130100D+02  0.196850D-01
  0.196200D+01  0.137977D+00
  0.444600D+00  0.478148D+00
  0.122000D+00  0.501240D+00
   s     1 1.00
  0.122000D+00  0.100000D+01
   p     1 1.00
  0.727000D+00  0.100000D+01
  
  9  0
   s     4 1.00
  0.130100D+02  0.196850D-01
  0.196200D+01  0.137977D+00
  0.444600D+00  0.478148D+00
  0.122000D+00  0.501240D+00
   s     1 1.00
  0.122000D+00  0.100000D+01
   p     1 1.00
  0.727000D+00  0.100000D+01
  
 10  0
   s     4 1.00
  0.130100D+02  0.196850D-01
  0.196200D+01  0.137977D+00
  0.444600D+00  0.478148D+00
  0.122000D+00  0.501240D+00
   s     1 1.00
  0.122000D+00  0.100000D+01
   p     1 1.00
  0.727000D+00  0.100000D+01
  
 11  0
   s     4 1.00
  0.130100D+02  0.196850D-01
  0.196200D+01  0.137977D+00
  0.444600D+00  0.478148D+00
  0.122000D+00  0.501240D+00
   s     1 1.00
  0.122000D+00  0.100000D+01
   p     1 1.00
  0.727000D+00  0.100000D+01
  
 12  0
   s     4 1.00
  0.130100D+02  0.196850D-01
  0.196200D+01  0.137977D+00
  0.444600D+00  0.478148D+00
  0.122000D+00  0.501240D+00
   s     1 1.00
  0.122000D+00  0.100000D+01
   p     1 1.00
  0.727000D+00  0.100000D+01
  
 13  0
   s     4 1.00
  0.130100D+02  0.196850D-01
  0.196200D+01  0.137977D+00
  0.444600D+00  0.478148D+00
  0.122000D+00  0.501240D+00
   s     1 1.00
  0.122000D+00  0.100000D+01
   p     1 1.00
  0.727000D+00  0.100000D+01
  
 14  0
   s     4 1.00
  0.130100D+02  0.196850D-01
  0.196200D+01  0.137977D+00
  0.444600D+00  0.478148D+00
  0.122000D+00  0.501240D+00
   s     1 1.00
  0.122000D+00  0.100000D+01
   p     1 1.00
  0.727000D+00  0.100000D+01
  
[MO]
 Sym= __1_a__
 Ene=  0.000000000000000E+000
 Spin= Alpha
 Occup=    2.00000000000000     
                     1 -6.108559177861700E-008
                     2  0.998137211449617     
                     3 -1.234126560572910E-002
                     4  2.012784950565490E-003
                     5  6.991581112524830E-003
                     6  8.626115561251479E-003
                     7 -3.612784069019720E-003
                     8  1.246170420062330E-002
                     9 -1.193658408737610E-003
                    10  3.352955400796350E-004
                    11 -1.217308257697980E-003
                    12 -2.751972975864130E-003
                    13  1.598062794527820E-003
                    14 -4.602656637809780E-003
                    15  8.686669115890727E-005
                    16 -4.094189367919880E-005
                    17 -3.396699660815700E-005
                    18  3.645911465151460E-005
                    19 -1.520844524878990E-005
                    20  1.756011350270404E-004
                    21  6.649521932111260E-004
                    22 -2.192775422254760E-004
                    23  2.360802802216060E-004
                    24 -2.355082266502710E-004
                    25  3.080366935355724E-005
                    26 -8.369824057043015E-005
                    27  4.171670133195779E-005
                    28  1.687400585200882E-005
                    29  9.261869102704250E-006
                    30 -4.866771711542906E-005
                    31 -1.218538595775803E-005
                    32 -3.093751945829600E-004
                    33  1.571752356459160E-004
                    34  2.711614917843590E-004
                    35  4.132827693176980E-005
                    36 -1.297164396325630E-003
                    37 -1.062880279900060E-003
                    38 -6.351793551656960E-004
                    39 -2.199822713318080E-005
                    40 -1.106394372181810E-004
                    41  9.394430591646200E-004
                    42  4.287598695626850E-003
                    43  4.288054301846860E-004
                    44 -2.949209254837650E-003
                    45 -8.854936242077744E-005
                    46 -8.070272415364241E-005
                    47  1.284776322519670E-005
                    48  9.081539256652640E-005
                    49  3.011328837465080E-005
                    50  4.431942987598762E-004
                    51  6.406968500182580E-004
                    52 -6.626362547149069E-005
                    53 -1.697569207702588E-004
                    54 -1.630684601400400E-004
                    55  6.977289692849274E-005
                    56 -2.116526058781012E-005
                    57 -6.273194812213278E-006
                    58  7.771292939876820E-005
                    59 -5.436926147414010E-006
                    60 -3.955387308358636E-005
                    61 -1.375493165527041E-005
                    62 -8.212727675456660E-004
                    63 -2.036298218195230E-003
                    64 -1.092678350579090E-004
                    65  3.004672136342060E-003
                    66 -9.537121165251480E-004
                    67 -5.165805026351360E-004
                    68  2.481046874393580E-005
                    69  8.004627912836651E-004
                    70 -5.533044450813460E-005
                    71  7.051075492452910E-004
                    72  1.507873546846260E-003
                    73  2.639215681097940E-004
                    74 -1.698144712499330E-003
                    75 -6.913186679594603E-006
                    76 -5.609445601916780E-005
                    77 -2.134751780217600E-005
                    78  6.238731944318420E-005
                    79  1.732509143777400E-005
                    80  4.255364514760298E-004
                    81  4.566292749554490E-005
                    82 -9.384103149944860E-005
                    83 -6.586898371467059E-005
                    84  1.508560285737530E-005
                    85 -2.563409925227278E-005
                    86 -1.563874249394310E-004
                    87 -9.693906287024063E-006
                    88  7.450613376471080E-006
                    89  2.525104335117670E-005
                    90 -7.533401483445447E-005
                    91 -5.173919989228932E-006
                    92  5.743023638250240E-005
                    93 -2.892317433416770E-004
                    94  3.363298916970680E-004
                    95 -1.400713018386620E-003
                    96  3.059757210491600E-004
                    97 -4.454537926002260E-004
                    98  3.548648391394570E-004
                    99  1.324856220154240E-004
                   100 -2.425649377585930E-005
                   101  4.913066799408800E-004
                   102 -2.144355833619210E-003
                   103  4.882130159988420E-006
                   104  1.070450259836390E-004
                   105 -5.043483493542020E-005
                   106 -9.912510533558509E-006
                   107  1.852601661007650E-005
                   108  3.416741629157200E-005
                   109  9.674475329360640E-006
                   110 -1.080851307925897E-004
                   111 -9.171187371645141E-005
                   112  4.701537175478300E-005
                   113 -2.230263401887760E-004
                   114  1.000115017018320E-005
                   115 -3.353847754641869E-005
                   116  5.190621640712766E-005
                   117 -3.137243359537819E-006
                   118  4.484882281011340E-006
                   119 -1.253342826301800E-005
                   120  2.858142046458330E-006
                   121 -6.810243755907316E-006
                   122 -3.201947540258420E-004
                   123 -1.221057989257930E-003
                   124  1.282920600305280E-004
                   125  8.741689316891160E-004
                   126  2.321042604316440E-004
                   127 -2.065944493048840E-005
                   128 -8.574244432460920E-005
                   129  5.358306897688060E-004
                   130 -2.277610223707810E-005
                   131  3.062781167368970E-004
                   132  2.314371431613310E-003
                   133  1.046107692413000E-005
                   134  5.359200692744679E-004
                   135  4.610901968468285E-005
                   136 -9.625490873217399E-006
                   137 -3.663295690028790E-006
                   138 -3.132571452694560E-005
                   139  1.026668977112820E-005
                   140  2.453496044358063E-004
                   141  3.109551484067130E-004
                   142  6.530981214086790E-006
                   143 -3.824232728928040E-004
                   144 -2.387393091153380E-005
                   145 -3.083696526251830E-005
                   146 -3.098556548015656E-005
                   147 -5.515059309142574E-006
                   148 -6.269236249072960E-006
                   149 -3.627467949802060E-006
                   150 -9.024225538267466E-005
                   151  2.107753918105183E-006
                   152 -1.419281016304150E-004
                   153 -2.875900841671760E-004
                   154 -7.481933693644630E-005
                   155  6.713494280843310E-004
                   156 -1.415526896401380E-004
                   157  2.168930072301490E-005
                   158 -2.875844419587210E-005
                   159 -3.060612149842660E-004
                   160 -2.439755855439540E-005
                   161  1.897050087274420E-004
                   162 -8.599364614978111E-004
                   163 -7.995342026560100E-005
                   164  9.019232687427660E-004
                   165 -2.225136178389948E-005
                   166  4.856096843897220E-006
                   167 -5.016917465713080E-007
                   168  2.662773765945900E-005
                   169  9.173868407996859E-006
                   170 -8.291574262395577E-005
                   171  2.012164577716480E-005
                   172  1.308088088767340E-005
                   173  3.667429862541960E-005
                   174  8.737498863067689E-006
                   175 -9.993572037786206E-006
                   176 -2.614519057414386E-006
                   177 -9.478071522120320E-007
                   178 -7.431962290830460E-006
                   179 -1.331581420111520E-006
                   180  8.664201415484951E-006
                   181 -3.652347539626772E-007
                   182 -1.505041729161200E-004
                   183 -4.342485243925560E-004
                   184  3.779223583393460E-005
                   185  2.164318162814840E-004
                   186 -6.250658729678960E-005
                   187  1.700205590305410E-004
                   188 -7.781372284327500E-005
                   189  1.046509571296880E-004
                   190 -3.510319440255670E-005
                   191  4.145864779530320E-004
                   192 -4.771572696650300E-004
                   193 -1.581067047836310E-004
                   194  1.801823471788540E-003
                   195  2.910786413499555E-006
                   196  1.862191535280050E-006
                   197  5.187490912827170E-007
                   198 -2.847850198659900E-006
                   199  1.296675634756950E-007
                   200 -1.129682235417808E-004
                   201 -3.100749019841670E-004
                   202  1.470572239296570E-005
                   203  4.802003083244780E-005
                   204  2.998360724254090E-005
                   205  1.320878961267751E-006
                   206  6.154319440989902E-006
                   207 -1.618358861891483E-006
                   208  2.088149883445880E-005
                   209 -1.994048149630930E-006
                   210 -4.188078452714316E-006
                   211 -2.083211363691055E-006
                   212 -1.325689109530850E-003
                   213  6.002447572579770E-005
                   214  1.099275370607940E-004
                   215  8.966515427180771E-005
                   216  1.368298522115000E-006
                   217  1.894192645981140E-004
                   218 -4.507282782106610E-004
                   219  1.366868376793490E-004
                   220 -6.462342018919390E-005
                   221 -1.330329323066000E-004
                   222  3.096928669435760E-005
                   223 -6.199063556339930E-004
                   224 -8.593985672353740E-005
                   225 -1.486235216805790E-005
                   226  6.910971704935410E-005
                   227 -8.781067386855450E-005
                   228 -4.231361942034450E-004
                   229 -2.973912434344020E-005
                   230  3.866883314667670E-006
                   231 -6.641271781259100E-005
                   232  2.869612550228500E-004
                   233 -5.376919807910420E-004
                   234 -1.029214628732670E-006
                   235 -1.352720280155420E-006
                   236  1.873863967830080E-005
                   237 -9.626540178692940E-005
                   238 -3.239587327694530E-004
                   239  7.275696707803160E-006
                   240 -3.278439522104290E-007
                   241  1.840359262192400E-005
                   242 -9.699838477003090E-005
                   243  1.591326865331920E-004
                   244  3.141888720846560E-005
                   245  5.150158548021390E-006
                   246  1.022046384778550E-006
 Sym= __2_a__
 Ene=  0.000000000000000E+000
 Spin= Alpha
 Occup=    2.00000000000000     
                     1 -8.096143882097139E-006
                     2 -8.105971334895130E-005
                     3  2.747998518395220E-004
                     4 -1.642074379743290E-005
                     5  1.167677040499340E-003
                     6  1.279339792750380E-003
                     7 -2.355848329955420E-004
                     8  3.552041332351290E-004
                     9 -1.559995713913770E-004
                    10  8.222352029117879E-005
                    11 -9.292479538890340E-005
                    12  1.979244391796960E-004
                    13  1.135168545399310E-004
                    14 -9.542978100063610E-005
                    15 -4.895746157293121E-005
                    16  2.358877903565350E-005
                    17 -7.846564388436150E-007
                    18  4.805044247746520E-005
                    19 -1.408648224641210E-006
                    20  5.619299490483542E-005
                    21 -6.137476130463251E-005
                    22 -2.848644016648290E-006
                    23  1.078554688940576E-004
                    24 -3.019383148787250E-005
                    25 -3.910047437515263E-005
                    26  1.257664155784269E-004
                    27  1.871396966782352E-005
                    28 -5.254549420645140E-005
                    29 -1.195971001243460E-005
                    30  1.166815730202344E-004
                    31  1.822593753079676E-005
                    32   1.00084195261353     
                    33  8.452816925106219E-003
                    34  2.859794430549480E-003
                    35 -8.430424198547060E-003
                    36 -1.364207210022820E-003
                    37  4.053637523448130E-005
                    38  1.343770115640310E-004
                    39  8.830564224397650E-004
                    40 -1.644115442811820E-005
                    41 -3.830492736608390E-004
                    42  2.508430192923450E-003
                    43 -6.665801781956620E-005
                    44  2.343179494194640E-004
                    45  3.178396447940215E-004
                    46 -2.003955724431100E-006
                    47 -8.252681861781630E-005
                    48  3.185985268285880E-004
                    49  8.712827321727191E-006
                    50 -9.701049461760986E-004
                    51 -3.299342926219770E-004
                    52  1.869945550877780E-004
                    53 -1.541701162636188E-004
                    54  2.895940707622790E-005
                    55 -2.085862910958122E-005
                    56  2.557822038328505E-004
                    57 -2.542920603019959E-006
                    58 -3.131919445818740E-005
                    59 -3.297945241533720E-005
                    60  6.560770480355198E-005
                    61  4.943658052627189E-006
                    62  1.609475571889760E-002
                    63 -1.475607725651080E-003
                    64 -2.874839511772080E-004
                    65  2.773690503016170E-003
                    66 -3.229415510017960E-004
                    67 -6.175315537926020E-005
                    68  4.341777820102050E-004
                    69  4.111147706486730E-005
                    70 -3.646376375290840E-005
                    71  2.995901075664840E-004
                    72  2.455151315937080E-004
                    73  2.214562897489570E-004
                    74 -1.726818464761090E-003
                    75  1.019350906187247E-005
                    76  2.523565232303070E-005
                    77  1.411747100331790E-006
                    78 -4.748312080110800E-005
                    79 -2.860669334834340E-006
                    80 -5.230559045435780E-004
                    81 -3.724106571787050E-004
                    82  1.564801617420900E-005
                    83  8.046485930458500E-004
                    84  5.911932718323730E-005
                    85  3.441411691821381E-005
                    86  1.051817610562184E-004
                    87  1.731778384487061E-005
                    88 -2.869188261648960E-005
                    89 -2.346818871787950E-005
                    90 -2.613410941787335E-005
                    91  4.965541240610974E-006
                    92  1.857938101488680E-002
                    93 -1.660672647970220E-003
                    94 -3.375227188880540E-004
                    95  3.347930063084020E-003
                    96 -2.808089778731630E-004
                    97  2.164346832075080E-005
                    98 -3.724209778937490E-004
                    99 -1.112711380155780E-004
                   100  8.049829567623790E-005
                   101 -7.692451927386450E-004
                   102  3.373853969604040E-004
                   103 -1.291079998655390E-004
                   104  1.539292133042490E-003
                   105  1.099274455441993E-005
                   106 -3.284810171732200E-006
                   107  2.030006775462040E-006
                   108 -2.512440554366680E-005
                   109 -8.117990173600349E-009
                   110 -1.785056236948844E-004
                   111  5.004563998214540E-004
                   112 -3.475093421024850E-005
                   113  6.160294982210540E-004
                   114 -3.745056997020360E-005
                   115 -4.564770540173396E-005
                   116  8.589725499776090E-005
                   117 -1.097147674410046E-005
                   118  1.886085190366808E-005
                   119 -1.380526936268000E-005
                   120 -2.925200009866581E-005
                   121 -8.794344300552512E-007
                   122 -6.412974745352100E-005
                   123 -7.502596003583200E-004
                   124  2.441515398253450E-004
                   125 -3.902813376564700E-004
                   126 -7.543457987006600E-005
                   127  6.349421223255250E-006
                   128 -5.523504545870520E-005
                   129  6.233780264858730E-004
                   130  2.330795223815550E-006
                   131  5.867379362384220E-005
                   132  3.589369616898010E-004
                   133 -4.534480636941700E-005
                   134  3.973501739089250E-004
                   135  1.840155903333238E-006
                   136  3.551947974997270E-005
                   137  4.368072806334530E-006
                   138 -3.945493519055340E-005
                   139 -5.066130133088080E-006
                   140  1.881125358261808E-004
                   141 -2.870962113983540E-004
                   142 -1.490440421147590E-005
                   143 -2.255257596933020E-004
                   144  2.573522054401980E-005
                   145 -8.932486024493418E-006
                   146  1.163039245098910E-005
                   147 -1.886065844916662E-006
                   148 -2.188237418190200E-006
                   149 -4.031072410654140E-006
                   150 -2.001558666118776E-005
                   151  1.509651692917485E-006
                   152  8.237267171756430E-006
                   153 -7.938541602837290E-004
                   154  2.297531640211790E-004
                   155 -1.455076250424800E-004
                   156 -8.146020085838329E-005
                   157 -7.049150649082970E-006
                   158  3.843715419140580E-005
                   159  4.822858047569400E-004
                   160  1.443979328608660E-005