[Molden Format]
[Atoms] AU
  N     1    7    -0.0042246300   -0.0011810900   -4.3725266100        
  C     2    6    -0.0026486800   -0.0030742900   -1.7238168100        
  C     3    6     0.1128936300   -2.3173577500   -0.4156815900        
  C     4    6    -0.1166323100    2.3093367000   -0.4122380400        
  C     5    6     0.2042997300   -2.2853689000    2.1827268700        
  C     6    6    -0.2049462900    2.2736333100    2.1862289800        
  C     7    6     0.0004461400   -0.0067921000    3.4776379900        
  H     8    1    -1.5451251600   -0.6636386500   -5.3893363800        
  H     9    1     1.5354654000    0.6627306700   -5.3902212500        
  H    10    1     0.2197208100   -4.0449410500   -1.4566786600        
  H    11    1    -0.2246967200    4.0384062700   -1.4506365600        
  H    12    1     0.3995126100   -4.0192104000    3.2105185600        
  H    13    1    -0.3989345000    4.0060036200    3.2167297600        
  H    14    1     0.0016532400   -0.0082421400    5.5063510500        
[5D]
[7F]
[GTO]
  1  0
   s    12 1.00
  0.114200D+05  0.172695D-04
  0.171200D+04  0.134411D-03
  0.389300D+03  0.694561D-03
  0.110000D+03  0.278531D-02
  0.355700D+02  0.863457D-02
  0.125400D+02  0.199805D-01
  0.464400D+01  0.262908D-01
  0.129300D+01 -0.243845D-01
  0.511800D+00 -0.924934D-01
  0.178700D+00 -0.339683D+00
  0.246240D-01  0.345111D+00
  0.112530D-01  0.752750D+00
   s    10 1.00
  0.114200D+05  0.523000D-03
  0.171200D+04  0.404500D-02
  0.389300D+03  0.207750D-01
  0.110000D+03  0.807269D-01
  0.355700D+02  0.233074D+00
  0.125400D+02  0.433501D+00
  0.464400D+01  0.347472D+00
  0.129300D+01  0.412620D-01
  0.511800D+00 -0.850799D-02
  0.178700D+00  0.238400D-02
   s    10 1.00
  0.114200D+05 -0.115000D-03
  0.171200D+04 -0.895000D-03
  0.389300D+03 -0.462400D-02
  0.110000D+03 -0.185280D-01
  0.355700D+02 -0.573390D-01
  0.125400D+02 -0.132076D+00
  0.464400D+01 -0.172510D+00
  0.129300D+01  0.151814D+00
  0.511800D+00  0.599944D+00
  0.178700D+00  0.387462D+00
   s     1 1.00
  0.129300D+01  0.100000D+01
   s     1 1.00
  0.178700D+00  0.100000D+01
   p     5 1.00
  0.266300D+02  0.146700D-01
  0.594800D+01  0.917640D-01
  0.174200D+01  0.298683D+00
  0.555000D+00  0.498487D+00
  0.172500D+00  0.337023D+00
   p     1 1.00
  0.174200D+01  0.100000D+01
   p     1 1.00
  0.555000D+00  0.100000D+01
   d     1 1.00
  0.165400D+01  0.100000D+01
   d     1 1.00
  0.469000D+00  0.100000D+01
   f     1 1.00
  0.109300D+01  0.100000D+01
  
  2  0
   s    10 1.00
  0.823600D+04  0.531000D-03
  0.123500D+04  0.410800D-02
  0.280800D+03  0.210870D-01
  0.792700D+02  0.818530D-01
  0.255900D+02  0.234817D+00
  0.899700D+01  0.434401D+00
  0.331900D+01  0.346129D+00
  0.905900D+00  0.393780D-01
  0.364300D+00 -0.898300D-02
  0.128500D+00  0.238500D-02
   s    10 1.00
  0.823600D+04 -0.113000D-03
  0.123500D+04 -0.878000D-03
  0.280800D+03 -0.454000D-02
  0.792700D+02 -0.181330D-01
  0.255900D+02 -0.557600D-01
  0.899700D+01 -0.126895D+00
  0.331900D+01 -0.170352D+00
  0.905900D+00  0.140382D+00
  0.364300D+00  0.598684D+00
  0.128500D+00  0.395389D+00
   s     1 1.00
  0.905900D+00  0.100000D+01
   s     1 1.00
  0.364300D+00  0.100000D+01
   p     5 1.00
  0.187100D+02  0.140310D-01
  0.413300D+01  0.868660D-01
  0.120000D+01  0.290216D+00
  0.382700D+00  0.501008D+00
  0.120900D+00  0.343406D+00
   p     1 1.00
  0.382700D+00  0.100000D+01
   p     1 1.00
  0.120900D+00  0.100000D+01
   d     1 1.00
  0.109700D+01  0.100000D+01
   d     1 1.00
  0.318000D+00  0.100000D+01
   f     1 1.00
  0.761000D+00  0.100000D+01
  
  3  0
   s    10 1.00
  0.823600D+04  0.531000D-03
  0.123500D+04  0.410800D-02
  0.280800D+03  0.210870D-01
  0.792700D+02  0.818530D-01
  0.255900D+02  0.234817D+00
  0.899700D+01  0.434401D+00
  0.331900D+01  0.346129D+00
  0.905900D+00  0.393780D-01
  0.364300D+00 -0.898300D-02
  0.128500D+00  0.238500D-02
   s    10 1.00
  0.823600D+04 -0.113000D-03
  0.123500D+04 -0.878000D-03
  0.280800D+03 -0.454000D-02
  0.792700D+02 -0.181330D-01
  0.255900D+02 -0.557600D-01
  0.899700D+01 -0.126895D+00
  0.331900D+01 -0.170352D+00
  0.905900D+00  0.140382D+00
  0.364300D+00  0.598684D+00
  0.128500D+00  0.395389D+00
   s     1 1.00
  0.905900D+00  0.100000D+01
   s     1 1.00
  0.364300D+00  0.100000D+01
   p     5 1.00
  0.187100D+02  0.140310D-01
  0.413300D+01  0.868660D-01
  0.120000D+01  0.290216D+00
  0.382700D+00  0.501008D+00
  0.120900D+00  0.343406D+00
   p     1 1.00
  0.382700D+00  0.100000D+01
   p     1 1.00
  0.120900D+00  0.100000D+01
   d     1 1.00
  0.109700D+01  0.100000D+01
   d     1 1.00
  0.318000D+00  0.100000D+01
   f     1 1.00
  0.761000D+00  0.100000D+01
  
  4  0
   s    10 1.00
  0.823600D+04  0.531000D-03
  0.123500D+04  0.410800D-02
  0.280800D+03  0.210870D-01
  0.792700D+02  0.818530D-01
  0.255900D+02  0.234817D+00
  0.899700D+01  0.434401D+00
  0.331900D+01  0.346129D+00
  0.905900D+00  0.393780D-01
  0.364300D+00 -0.898300D-02
  0.128500D+00  0.238500D-02
   s    10 1.00
  0.823600D+04 -0.113000D-03
  0.123500D+04 -0.878000D-03
  0.280800D+03 -0.454000D-02
  0.792700D+02 -0.181330D-01
  0.255900D+02 -0.557600D-01
  0.899700D+01 -0.126895D+00
  0.331900D+01 -0.170352D+00
  0.905900D+00  0.140382D+00
  0.364300D+00  0.598684D+00
  0.128500D+00  0.395389D+00
   s     1 1.00
  0.905900D+00  0.100000D+01
   s     1 1.00
  0.364300D+00  0.100000D+01
   p     5 1.00
  0.187100D+02  0.140310D-01
  0.413300D+01  0.868660D-01
  0.120000D+01  0.290216D+00
  0.382700D+00  0.501008D+00
  0.120900D+00  0.343406D+00
   p     1 1.00
  0.382700D+00  0.100000D+01
   p     1 1.00
  0.120900D+00  0.100000D+01
   d     1 1.00
  0.109700D+01  0.100000D+01
   d     1 1.00
  0.318000D+00  0.100000D+01
   f     1 1.00
  0.761000D+00  0.100000D+01
  
  5  0
   s    10 1.00
  0.823600D+04  0.531000D-03
  0.123500D+04  0.410800D-02
  0.280800D+03  0.210870D-01
  0.792700D+02  0.818530D-01
  0.255900D+02  0.234817D+00
  0.899700D+01  0.434401D+00
  0.331900D+01  0.346129D+00
  0.905900D+00  0.393780D-01
  0.364300D+00 -0.898300D-02
  0.128500D+00  0.238500D-02
   s    10 1.00
  0.823600D+04 -0.113000D-03
  0.123500D+04 -0.878000D-03
  0.280800D+03 -0.454000D-02
  0.792700D+02 -0.181330D-01
  0.255900D+02 -0.557600D-01
  0.899700D+01 -0.126895D+00
  0.331900D+01 -0.170352D+00
  0.905900D+00  0.140382D+00
  0.364300D+00  0.598684D+00
  0.128500D+00  0.395389D+00
   s     1 1.00
  0.905900D+00  0.100000D+01
   s     1 1.00
  0.364300D+00  0.100000D+01
   p     5 1.00
  0.187100D+02  0.140310D-01
  0.413300D+01  0.868660D-01
  0.120000D+01  0.290216D+00
  0.382700D+00  0.501008D+00
  0.120900D+00  0.343406D+00
   p     1 1.00
  0.382700D+00  0.100000D+01
   p     1 1.00
  0.120900D+00  0.100000D+01
   d     1 1.00
  0.109700D+01  0.100000D+01
   d     1 1.00
  0.318000D+00  0.100000D+01
   f     1 1.00
  0.761000D+00  0.100000D+01
  
  6  0
   s    10 1.00
  0.823600D+04  0.531000D-03
  0.123500D+04  0.410800D-02
  0.280800D+03  0.210870D-01
  0.792700D+02  0.818530D-01
  0.255900D+02  0.234817D+00
  0.899700D+01  0.434401D+00
  0.331900D+01  0.346129D+00
  0.905900D+00  0.393780D-01
  0.364300D+00 -0.898300D-02
  0.128500D+00  0.238500D-02
   s    10 1.00
  0.823600D+04 -0.113000D-03
  0.123500D+04 -0.878000D-03
  0.280800D+03 -0.454000D-02
  0.792700D+02 -0.181330D-01
  0.255900D+02 -0.557600D-01
  0.899700D+01 -0.126895D+00
  0.331900D+01 -0.170352D+00
  0.905900D+00  0.140382D+00
  0.364300D+00  0.598684D+00
  0.128500D+00  0.395389D+00
   s     1 1.00
  0.905900D+00  0.100000D+01
   s     1 1.00
  0.364300D+00  0.100000D+01
   p     5 1.00
  0.187100D+02  0.140310D-01
  0.413300D+01  0.868660D-01
  0.120000D+01  0.290216D+00
  0.382700D+00  0.501008D+00
  0.120900D+00  0.343406D+00
   p     1 1.00
  0.382700D+00  0.100000D+01
   p     1 1.00
  0.120900D+00  0.100000D+01
   d     1 1.00
  0.109700D+01  0.100000D+01
   d     1 1.00
  0.318000D+00  0.100000D+01
   f     1 1.00
  0.761000D+00  0.100000D+01
  
  7  0
   s    10 1.00
  0.823600D+04  0.531000D-03
  0.123500D+04  0.410800D-02
  0.280800D+03  0.210870D-01
  0.792700D+02  0.818530D-01
  0.255900D+02  0.234817D+00
  0.899700D+01  0.434401D+00
  0.331900D+01  0.346129D+00
  0.905900D+00  0.393780D-01
  0.364300D+00 -0.898300D-02
  0.128500D+00  0.238500D-02
   s    10 1.00
  0.823600D+04 -0.113000D-03
  0.123500D+04 -0.878000D-03
  0.280800D+03 -0.454000D-02
  0.792700D+02 -0.181330D-01
  0.255900D+02 -0.557600D-01
  0.899700D+01 -0.126895D+00
  0.331900D+01 -0.170352D+00
  0.905900D+00  0.140382D+00
  0.364300D+00  0.598684D+00
  0.128500D+00  0.395389D+00
   s     1 1.00
  0.905900D+00  0.100000D+01
   s     1 1.00
  0.364300D+00  0.100000D+01
   p     5 1.00
  0.187100D+02  0.140310D-01
  0.413300D+01  0.868660D-01
  0.120000D+01  0.290216D+00
  0.382700D+00  0.501008D+00
  0.120900D+00  0.343406D+00
   p     1 1.00
  0.382700D+00  0.100000D+01
   p     1 1.00
  0.120900D+00  0.100000D+01
   d     1 1.00
  0.109700D+01  0.100000D+01
   d     1 1.00
  0.318000D+00  0.100000D+01
   f     1 1.00
  0.761000D+00  0.100000D+01
  
  8  0
   s     4 1.00
  0.130100D+02  0.196850D-01
  0.196200D+01  0.137977D+00
  0.444600D+00  0.478148D+00
  0.122000D+00  0.501240D+00
   s     1 1.00
  0.122000D+00  0.100000D+01
   p     1 1.00
  0.727000D+00  0.100000D+01
  
  9  0
   s     4 1.00
  0.130100D+02  0.196850D-01
  0.196200D+01  0.137977D+00
  0.444600D+00  0.478148D+00
  0.122000D+00  0.501240D+00
   s     1 1.00
  0.122000D+00  0.100000D+01
   p     1 1.00
  0.727000D+00  0.100000D+01
  
 10  0
   s     4 1.00
  0.130100D+02  0.196850D-01
  0.196200D+01  0.137977D+00
  0.444600D+00  0.478148D+00
  0.122000D+00  0.501240D+00
   s     1 1.00
  0.122000D+00  0.100000D+01
   p     1 1.00
  0.727000D+00  0.100000D+01
  
 11  0
   s     4 1.00
  0.130100D+02  0.196850D-01
  0.196200D+01  0.137977D+00
  0.444600D+00  0.478148D+00
  0.122000D+00  0.501240D+00
   s     1 1.00
  0.122000D+00  0.100000D+01
   p     1 1.00
  0.727000D+00  0.100000D+01
  
 12  0
   s     4 1.00
  0.130100D+02  0.196850D-01
  0.196200D+01  0.137977D+00
  0.444600D+00  0.478148D+00
  0.122000D+00  0.501240D+00
   s     1 1.00
  0.122000D+00  0.100000D+01
   p     1 1.00
  0.727000D+00  0.100000D+01
  
 13  0
   s     4 1.00
  0.130100D+02  0.196850D-01
  0.196200D+01  0.137977D+00
  0.444600D+00  0.478148D+00
  0.122000D+00  0.501240D+00
   s     1 1.00
  0.122000D+00  0.100000D+01
   p     1 1.00
  0.727000D+00  0.100000D+01
  
 14  0
   s     4 1.00
  0.130100D+02  0.196850D-01
  0.196200D+01  0.137977D+00
  0.444600D+00  0.478148D+00
  0.122000D+00  0.501240D+00
   s     1 1.00
  0.122000D+00  0.100000D+01
   p     1 1.00
  0.727000D+00  0.100000D+01
  
[MO]
 Sym= __1_A__
 Ene=  0.000000000000000E+000
 Spin= Alpha
 Occup=    2.00000000000000     
                     1  6.387121284849359E-005
                     2  0.997762422739385     
                     3  1.215723931161934E-002
                     4  2.166739647304615E-003
                     5  1.022100226644114E-003
                     6  1.884666257579570E-006
                     7 -2.268883149875370E-006
                     8  3.154180469866993E-003
                     9 -1.800990690531750E-007
                    10  2.216005858032778E-007
                    11 -2.957028455859007E-004
                    12 -3.682342105286205E-007
                    13  4.129347619096487E-007
                    14 -6.152125517732308E-004
                    15  1.370212362430940E-004
                    16  1.652716746344409E-007
                    17 -2.505792177133047E-007
                    18  5.112563523507176E-005
                    19  7.508751544401947E-005
                    20  1.803372684994973E-005
                    21 -4.429666298216821E-008
                    22  4.338290127879526E-007
                    23 -3.542932249471980E-004
                    24 -3.754058333855648E-004
                    25 -1.607002115929643E-004
                    26  1.968111726894937E-007
                    27 -2.004963679992134E-007
                    28 -2.701412991040542E-005
                    29 -5.497079114441190E-005
                    30  6.790013327620405E-008
                    31 -1.667297331192629E-008
                    32 -1.723871882899705E-004
                    33  2.657661933159842E-003
                    34  7.320912962285283E-005
                    35 -5.605441708434611E-004
                    36 -3.776301408908563E-006
                    37  4.548668479660669E-006
                    38 -6.338666925009459E-003
                    39 -1.761105022039647E-007
                    40  1.722078038879974E-007
                    41 -3.158086172954579E-004
                    42  2.131290536210597E-006
                    43 -2.526838263354793E-006
                    44  3.600214552086410E-003
                    45  3.768597893440809E-004
                    46  3.276486438274952E-007
                    47 -5.226448281269949E-007
                    48  9.614076775879594E-005
                    49 -5.797519147186351E-006
                    50  7.232032140346625E-004
                    51  7.415175708009708E-007
                    52 -1.156845876100113E-006
                    53  1.069089004116524E-004
                    54  8.431771685289273E-005
                    55 -4.130610117455460E-005
                    56  5.964578825440955E-009
                    57 -1.155524897957429E-007
                    58  4.452096346759528E-005
                    59 -1.164042454824985E-005
                    60 -2.232661394963750E-008
                    61 -5.106635720302139E-008
                    62 -1.808139784031499E-004
                    63 -1.646075423404402E-003
                    64 -7.712701129213234E-006
                    65  8.181277619201472E-004
                    66  3.070581530956885E-005
                    67 -8.608956286700262E-004
                    68  1.185799758172191E-003
                    69  3.627898214737980E-005
                    70  1.283564168879405E-004
                    71  9.669626294876776E-005
                    72  4.249830959809340E-005
                    73 -5.706893960515693E-004
                    74 -3.304159853521678E-004
                    75  8.991874471664042E-005
                    76  2.884270086044572E-006
                    77 -1.334894306471757E-005
                    78  3.099361849519696E-005
                    79  1.810615800194337E-006
                    80  3.586070193061464E-005
                    81 -9.849903314270755E-006
                    82 -3.311295136574963E-005
                    83  1.272723321621839E-005
                    84  2.381135873823123E-005
                    85 -7.237493874634072E-005
                    86  6.281967616047439E-006
                    87 -5.592116121204866E-006
                    88  2.119492912275280E-005
                    89 -3.241595992421267E-006
                    90  3.106487735241690E-006
                    91  2.171541147911679E-005
                    92 -1.807795189394050E-004
                    93 -1.645937688226140E-003
                    94 -7.558259730268002E-006
                    95  8.176502512569208E-004
                    96 -2.929792912277279E-005
                    97  8.592183528015151E-004
                    98  1.187169165455002E-003
                    99 -3.613800445894798E-005
                   100 -1.286326871218561E-004
                   101  9.598332887479279E-005
                   102 -4.284836951008688E-005
                   103  5.706154091220277E-004
                   104 -3.293827283262980E-004
                   105  8.992783686680595E-005
                   106 -2.732183501194212E-006
                   107  1.309603382233747E-005
                   108  3.101057703613910E-005
                   109  1.829522327021099E-006
                   110  3.550191673062679E-005
                   111  9.966649626912169E-006
                   112  3.287108171460679E-005
                   113  1.270260876897561E-005
                   114  2.383321226242570E-005
                   115 -7.234639119728178E-005
                   116 -6.113855030600677E-006
                   117  5.300862812267850E-006
                   118  2.114836658130694E-005
                   119 -3.192486551683952E-006
                   120 -3.132150349401614E-006
                   121 -2.175588634292832E-005
                   122 -1.506404051789666E-004
                   123  2.495840295916332E-005
                   124  7.064637365809814E-005
                   125  2.814621904426716E-004
                   126 -7.210601412272971E-005
                   127  5.107596473000361E-005
                   128 -8.385976274499545E-004
                   129 -4.843891551841921E-006
                   130  2.704465059903770E-005
                   131  1.890412563294584E-004
                   132  1.615367811659484E-005
                   133 -4.091540079037840E-005
                   134  5.288812736004466E-004
                   135  3.956667601909882E-007
                   136  1.250145701183398E-006
                   137  5.335255681073188E-006
                   138 -2.785784858732074E-006
                   139  1.212976355541140E-006
                   140 -1.180976743595293E-004
                   141 -1.200547929180723E-005
                   142  9.046958399911922E-005
                   143  3.934280891190410E-005
                   144 -3.426822204869444E-006
                   145 -2.283333801935717E-005
                   146  9.675882503582011E-008
                   147 -5.014067408820519E-006
                   148 -8.580315923185576E-006
                   149 -1.328107445327836E-006
                   150 -1.072131452683925E-006
                   151 -2.301762612704224E-006
                   152 -1.510962730243670E-004
                   153  2.333815260996549E-005
                   154  7.016282687424042E-005
                   155  2.844333684135797E-004
                   156  7.109507172015612E-005
                   157 -4.981587507012516E-005
                   158 -8.387290655955516E-004
                   159  5.133720205534524E-006
                   160 -2.771245375081499E-005
                   161  1.887036476504082E-004
                   162 -1.558014903206878E-005
                   163  4.066336699540888E-005
                   164  5.291345406351931E-004
                   165  4.354134940279887E-007
                   166 -1.247348142813312E-006
                   167 -5.343636365733782E-006
                   168 -2.846620376969960E-006
                   169  1.197592616753982E-006
                   170 -1.182381427702290E-004
                   171  1.171947429812056E-005
                   172 -9.049088160577670E-005
                   173  3.916779237357990E-005
                   174 -3.556075758140607E-006
                   175 -2.276551656150928E-005
                   176 -1.182183453892305E-008
                   177  4.960805984244207E-006
                   178 -8.616045858539480E-006
                   179 -1.330319860054650E-006
                   180  1.088737231650333E-006
                   181  2.325332558918827E-006
                   182 -1.226102245182614E-004
                   183 -3.346775707736557E-004
                   184  2.334423383170368E-005
                   185  2.372360906035312E-004
                   186 -3.503114063136047E-008
                   187  1.188038616582190E-007
                   188 -4.034963372628711E-005
                   189  5.222390037991117E-008
                   190 -4.746985891306814E-007
                   191  8.668682313411868E-006
                   192 -2.285581430028050E-008
                   193 -1.660808356893603E-008
                   194 -5.160105432295936E-005
                   195  2.187031449835392E-005
                   196  1.709444853222556E-008
                   197 -8.443743513356588E-009
                   198  7.391323512111350E-006
                   199  2.355828209327136E-006
                   200  2.484600272469775E-005
                   201 -6.534209646490984E-009
                   202  1.787860512372918E-007
                   203  2.420772884078812E-005
                   204  1.500504639515264E-006
                   205 -9.564929043093640E-006
                   206  1.546748760839193E-008
                   207 -2.616049099313660E-008
                   208  1.026398951587716E-006
                   209  1.428214791380641E-006
                   210  5.368169753799427E-009
                   211  2.805841079636342E-008
                   212  5.837778971978269E-003
                   213 -3.211860630635983E-003
                   214  5.773560572188145E-004
                   215  2.397005758648735E-004
                   216  4.162117547809297E-004
                   217  5.837754266229590E-003
                   218 -3.211850532822245E-003
                   219 -5.768575461208715E-004
                   220 -2.402977991856742E-004
                   221  4.165542575149610E-004
                   222 -6.545656847257402E-004
                   223 -1.933876458788172E-004
                   224  4.395843727414311E-006
                   225 -3.817426040849258E-005
                   226 -4.573714908506137E-005
                   227 -6.546275692549276E-004
                   228 -1.930293539532737E-004
                   229 -4.449937716506014E-006
                   230  3.822190011858810E-005
                   231 -4.570207482383526E-005
                   232 -2.618234479269363E-004
                   233 -2.202751995516555E-004
                   234 -2.322476005325212E-006
                   235 -1.419046637846518E-005
                   236 -2.837014746751376E-006
                   237 -2.618655738976827E-004
                   238 -2.204194415549240E-004
                   239  2.313757700912424E-006
                   240  1.423883544985882E-005
                   241 -2.770591019113229E-006
                   242  1.149693003839295E-004
                   243 -1.749756683072367E-005
                   244  8.641515128817255E-009
                   245 -3.194964199034631E-008
                   246  1.267465628187472E-005
 Sym= __2_A__
 Ene=  0.000000000000000E+000
 Spin= Alpha
 Occup=    2.00000000000000     
                     1 -1.104062049395242E-005
                     2 -5.978863959656114E-005
                     3  1.845306694914056E-003
                     4  1.636928555188725E-005
                     5  1.090378721399027E-003
                     6  1.148469428563378E-006
                     7 -1.385212473135160E-006
                     8  1.941881249502077E-003
                     9 -6.865119469644311E-008
                    10  8.363752288182159E-008
                    11 -1.201261745514958E-004
                    12  2.327157192015642E-008
                    13 -2.052820720559063E-008
                    14  3.412088218173709E-005
                    15  6.186317881977508E-005
                    16  4.509183512191578E-008
                    17 -7.402913597366374E-008
                    18  1.084446712338515E-005
                    19 -1.651841144630963E-005
                    20 -5.826068208512176E-005
                    21  1.328928034553419E-008
                    22  6.259708569943210E-008
                    23 -4.015793641521828E-005
                    24  6.585092212726660E-005
                    25  1.897327068250420E-004
                    26 -2.485907290405354E-007
                    27  4.081200610463923E-007
                    28 -5.224275013919420E-005
                    29 -1.984251209654924E-005
                    30  5.558353981164901E-008
                    31  3.163984718073100E-008
                    32   1.00098716735539     
                    33  8.887293719629902E-003
                    34  2.660855235712529E-003
                    35 -8.108738165194692E-003
                    36 -1.777821902813550E-006
                    37  2.128995922709366E-006
                    38 -2.987170734691981E-003
                    39  8.116999379032859E-007
                    40 -9.711347965375626E-007
                    41  1.366760376661287E-003
                    42  2.087633055084475E-006
                    43 -2.564506089552306E-006
                    44  3.496032297813067E-003
                    45  2.323729671701089E-004
                    46  4.699849756820022E-007
                    47  7.793590327052194E-009
                    48 -4.052991349551784E-004
                    49 -1.456397326868394E-005
                    50  4.340052665046673E-004
                    51 -4.939060567738117E-008
                    52 -1.211044881838319E-006
                    53  9.130094034350816E-004
                    54  6.266049455474508E-005
                    55  2.732708764910863E-004
                    56 -2.329394310651312E-007
                    57  6.831366180839666E-007
                    58 -1.785721960918363E-004
                    59 -1.809769380150879E-006
                    60  1.319239347759723E-007
                    61  1.567765919790402E-007
                    62  1.389442610645811E-002
                    63 -1.771742760062617E-003
                    64 -2.890788585382345E-004
                    65  3.001060006249386E-003
                    66 -8.875967049816287E-006
                    67  2.729919835835471E-004
                    68 -1.228479310357024E-004
                    69 -2.135837095396747E-005
                    70  4.803800916605160E-004
                    71  2.716788816434056E-005
                    72  1.212137935196823E-004
                    73 -1.851397668561328E-003
                    74  1.290209512224029E-004
                    75 -2.683878195535061E-005
                    76  1.578990754494766E-006
                    77  2.450281396222305E-005
                    78  2.171236195686160E-005
                    79  1.614518731533965E-006
                    80  8.380705059172427E-004
                    81  4.809016639309521E-005
                    82 -5.132100131974154E-004
                    83  5.013200814693184E-006
                    84 -1.256045722187048E-005
                    85  4.385079050708696E-005
                    86  1.822729782680857E-006
                    87  3.267791255906172E-005
                    88 -9.944337944661150E-005
                    89 -5.067545363410686E-006
                    90  7.666126054991780E-006
                    91  5.628747145784861E-005
                    92  1.389439956373322E-002
                    93 -1.771819097420819E-003
                    94 -2.891252360977043E-004
                    95  3.001253233837915E-003
                    96  8.730247462619098E-006
                    97 -2.728179303306813E-004
                    98 -1.232756280381700E-004
                    99  2.138451371296993E-005
                   100 -4.804087474759783E-004
                   101  2.660074465659432E-005
                   102 -1.210706067732384E-004
                   103  1.851357222301708E-003
                   104  1.316639057996702E-004
                   105 -2.688255769518493E-005
                   106 -1.658388969745759E-006
                   107 -2.447533252109373E-005
                   108  2.167411475318392E-005
                   109  1.588024525184801E-006
                   110  8.395181080835379E-004
                   111 -4.639157264268809E-005
                   112  5.111875448932664E-004
                   113  5.711298772009212E-006
                   114 -1.188222277204615E-005
                   115  4.394296411345808E-005
                   116 -1.776010298171232E-006
                   117 -3.228893964919066E-005
                   118 -9.962740823630448E-005
                   119 -5.055534720339935E-006
                   120 -7.511887297852747E-006
                   121 -5.612001241636823E-005
                   122 -1.051539934844565E-004
                   123 -7.570169998996299E-004
                   124  2.329950437774797E-004
                   125 -2.312761517260647E-004
                   126 -9.852086601880382E-006
                   127 -5.439013359431284E-005
                   128 -1.758750767829117E-004
                   129  2.835120585574485E-005
                   130  7.419015539309582E-005
                   131  5.611553065980311E-004
                   132 -1.879142803843868E-005
                   133  3.448272765486955E-004
                   134  5.931215770279976E-004
                   135 -2.544042003527925E-005
                   136 -5.053359850137863E-006
                   137  4.908254924741620E-005
                   138  1.645799698734524E-005
                   139  6.536396284484563E-006
                   140 -3.145205720870327E-004
                   141 -8.355773641710741E-006
                   142 -3.027223763642215E-004
                   143 -3.579896657643616E-005
                   144 -3.689133001043049E-005
                   145 -9.291230768932375E-006
                   146  6.650596320370481E-006
                   147 -1.957446507336809E-005
                   148 -2.185225221364356E-005
                   149 -5.021171318383755E-006
                   150 -4.432723138671319E-007
                   151 -8.336668657901680E-006
                   152 -1.048732337434251E-004
                   153 -7.560884150883810E-004
                   154  2.330874277127968E-004
                   155 -2.323621644962596E-004
                   156  9.645297226473516E-006
                   157  5.462733022221188E-005
                   158 -1.758125847310876E-004
                   159 -2.769723330677864E-005
                   160 -7.491361747638161E-005