[Molden Format]
[Atoms] AU
  N     1    7    -4.4575939100    0.1554248300   -0.0942276800        
  C     2    6    -1.7702173200   -0.0161912600   -0.0405430900        
  C     3    6    -0.4100154000    0.0423396700   -2.3004627500        
  C     4    6    -0.4468628100   -0.0558462800    2.2354699400        
  C     5    6     2.2021325800    0.0315428500   -2.2681927900        
  C     6    6     2.1726846500   -0.0370643500    2.2450681600        
  C     7    6     3.5122596800   -0.0008988700    0.0009113900        
  H     8    1    -5.1899926500   -1.1074979300   -1.3617121400        
  H     9    1    -5.1776571100   -0.2994471500    1.6419838500        
  H    10    1    -1.4048308700    0.1058059900   -4.0662794100        
  H    11    1    -1.4616307900   -0.1055677600    3.9912073100        
  H    12    1     3.2198342300    0.0640860200   -4.0234062500        
  H    13    1     3.1610343300   -0.0672052600    4.0170830000        
  H    14    1     5.5401759400    0.0021727100    0.0146823200        
[5D]
[7F]
[GTO]
  1  0
   s    12 1.00
  0.114200D+05  0.172695D-04
  0.171200D+04  0.134411D-03
  0.389300D+03  0.694561D-03
  0.110000D+03  0.278531D-02
  0.355700D+02  0.863457D-02
  0.125400D+02  0.199805D-01
  0.464400D+01  0.262908D-01
  0.129300D+01 -0.243845D-01
  0.511800D+00 -0.924934D-01
  0.178700D+00 -0.339683D+00
  0.246240D-01  0.345111D+00
  0.112530D-01  0.752750D+00
   s    10 1.00
  0.114200D+05  0.523000D-03
  0.171200D+04  0.404500D-02
  0.389300D+03  0.207750D-01
  0.110000D+03  0.807269D-01
  0.355700D+02  0.233074D+00
  0.125400D+02  0.433501D+00
  0.464400D+01  0.347472D+00
  0.129300D+01  0.412620D-01
  0.511800D+00 -0.850799D-02
  0.178700D+00  0.238400D-02
   s    10 1.00
  0.114200D+05 -0.115000D-03
  0.171200D+04 -0.895000D-03
  0.389300D+03 -0.462400D-02
  0.110000D+03 -0.185280D-01
  0.355700D+02 -0.573390D-01
  0.125400D+02 -0.132076D+00
  0.464400D+01 -0.172510D+00
  0.129300D+01  0.151814D+00
  0.511800D+00  0.599944D+00
  0.178700D+00  0.387462D+00
   s     1 1.00
  0.129300D+01  0.100000D+01
   s     1 1.00
  0.178700D+00  0.100000D+01
   p     5 1.00
  0.266300D+02  0.146700D-01
  0.594800D+01  0.917640D-01
  0.174200D+01  0.298683D+00
  0.555000D+00  0.498487D+00
  0.172500D+00  0.337023D+00
   p     1 1.00
  0.174200D+01  0.100000D+01
   p     1 1.00
  0.555000D+00  0.100000D+01
   d     1 1.00
  0.165400D+01  0.100000D+01
   d     1 1.00
  0.469000D+00  0.100000D+01
   f     1 1.00
  0.109300D+01  0.100000D+01
  
  2  0
   s    10 1.00
  0.823600D+04  0.531000D-03
  0.123500D+04  0.410800D-02
  0.280800D+03  0.210870D-01
  0.792700D+02  0.818530D-01
  0.255900D+02  0.234817D+00
  0.899700D+01  0.434401D+00
  0.331900D+01  0.346129D+00
  0.905900D+00  0.393780D-01
  0.364300D+00 -0.898300D-02
  0.128500D+00  0.238500D-02
   s    10 1.00
  0.823600D+04 -0.113000D-03
  0.123500D+04 -0.878000D-03
  0.280800D+03 -0.454000D-02
  0.792700D+02 -0.181330D-01
  0.255900D+02 -0.557600D-01
  0.899700D+01 -0.126895D+00
  0.331900D+01 -0.170352D+00
  0.905900D+00  0.140382D+00
  0.364300D+00  0.598684D+00
  0.128500D+00  0.395389D+00
   s     1 1.00
  0.905900D+00  0.100000D+01
   s     1 1.00
  0.364300D+00  0.100000D+01
   p     5 1.00
  0.187100D+02  0.140310D-01
  0.413300D+01  0.868660D-01
  0.120000D+01  0.290216D+00
  0.382700D+00  0.501008D+00
  0.120900D+00  0.343406D+00
   p     1 1.00
  0.382700D+00  0.100000D+01
   p     1 1.00
  0.120900D+00  0.100000D+01
   d     1 1.00
  0.109700D+01  0.100000D+01
   d     1 1.00
  0.318000D+00  0.100000D+01
   f     1 1.00
  0.761000D+00  0.100000D+01
  
  3  0
   s    10 1.00
  0.823600D+04  0.531000D-03
  0.123500D+04  0.410800D-02
  0.280800D+03  0.210870D-01
  0.792700D+02  0.818530D-01
  0.255900D+02  0.234817D+00
  0.899700D+01  0.434401D+00
  0.331900D+01  0.346129D+00
  0.905900D+00  0.393780D-01
  0.364300D+00 -0.898300D-02
  0.128500D+00  0.238500D-02
   s    10 1.00
  0.823600D+04 -0.113000D-03
  0.123500D+04 -0.878000D-03
  0.280800D+03 -0.454000D-02
  0.792700D+02 -0.181330D-01
  0.255900D+02 -0.557600D-01
  0.899700D+01 -0.126895D+00
  0.331900D+01 -0.170352D+00
  0.905900D+00  0.140382D+00
  0.364300D+00  0.598684D+00
  0.128500D+00  0.395389D+00
   s     1 1.00
  0.905900D+00  0.100000D+01
   s     1 1.00
  0.364300D+00  0.100000D+01
   p     5 1.00
  0.187100D+02  0.140310D-01
  0.413300D+01  0.868660D-01
  0.120000D+01  0.290216D+00
  0.382700D+00  0.501008D+00
  0.120900D+00  0.343406D+00
   p     1 1.00
  0.382700D+00  0.100000D+01
   p     1 1.00
  0.120900D+00  0.100000D+01
   d     1 1.00
  0.109700D+01  0.100000D+01
   d     1 1.00
  0.318000D+00  0.100000D+01
   f     1 1.00
  0.761000D+00  0.100000D+01
  
  4  0
   s    10 1.00
  0.823600D+04  0.531000D-03
  0.123500D+04  0.410800D-02
  0.280800D+03  0.210870D-01
  0.792700D+02  0.818530D-01
  0.255900D+02  0.234817D+00
  0.899700D+01  0.434401D+00
  0.331900D+01  0.346129D+00
  0.905900D+00  0.393780D-01
  0.364300D+00 -0.898300D-02
  0.128500D+00  0.238500D-02
   s    10 1.00
  0.823600D+04 -0.113000D-03
  0.123500D+04 -0.878000D-03
  0.280800D+03 -0.454000D-02
  0.792700D+02 -0.181330D-01
  0.255900D+02 -0.557600D-01
  0.899700D+01 -0.126895D+00
  0.331900D+01 -0.170352D+00
  0.905900D+00  0.140382D+00
  0.364300D+00  0.598684D+00
  0.128500D+00  0.395389D+00
   s     1 1.00
  0.905900D+00  0.100000D+01
   s     1 1.00
  0.364300D+00  0.100000D+01
   p     5 1.00
  0.187100D+02  0.140310D-01
  0.413300D+01  0.868660D-01
  0.120000D+01  0.290216D+00
  0.382700D+00  0.501008D+00
  0.120900D+00  0.343406D+00
   p     1 1.00
  0.382700D+00  0.100000D+01
   p     1 1.00
  0.120900D+00  0.100000D+01
   d     1 1.00
  0.109700D+01  0.100000D+01
   d     1 1.00
  0.318000D+00  0.100000D+01
   f     1 1.00
  0.761000D+00  0.100000D+01
  
  5  0
   s    10 1.00
  0.823600D+04  0.531000D-03
  0.123500D+04  0.410800D-02
  0.280800D+03  0.210870D-01
  0.792700D+02  0.818530D-01
  0.255900D+02  0.234817D+00
  0.899700D+01  0.434401D+00
  0.331900D+01  0.346129D+00
  0.905900D+00  0.393780D-01
  0.364300D+00 -0.898300D-02
  0.128500D+00  0.238500D-02
   s    10 1.00
  0.823600D+04 -0.113000D-03
  0.123500D+04 -0.878000D-03
  0.280800D+03 -0.454000D-02
  0.792700D+02 -0.181330D-01
  0.255900D+02 -0.557600D-01
  0.899700D+01 -0.126895D+00
  0.331900D+01 -0.170352D+00
  0.905900D+00  0.140382D+00
  0.364300D+00  0.598684D+00
  0.128500D+00  0.395389D+00
   s     1 1.00
  0.905900D+00  0.100000D+01
   s     1 1.00
  0.364300D+00  0.100000D+01
   p     5 1.00
  0.187100D+02  0.140310D-01
  0.413300D+01  0.868660D-01
  0.120000D+01  0.290216D+00
  0.382700D+00  0.501008D+00
  0.120900D+00  0.343406D+00
   p     1 1.00
  0.382700D+00  0.100000D+01
   p     1 1.00
  0.120900D+00  0.100000D+01
   d     1 1.00
  0.109700D+01  0.100000D+01
   d     1 1.00
  0.318000D+00  0.100000D+01
   f     1 1.00
  0.761000D+00  0.100000D+01
  
  6  0
   s    10 1.00
  0.823600D+04  0.531000D-03
  0.123500D+04  0.410800D-02
  0.280800D+03  0.210870D-01
  0.792700D+02  0.818530D-01
  0.255900D+02  0.234817D+00
  0.899700D+01  0.434401D+00
  0.331900D+01  0.346129D+00
  0.905900D+00  0.393780D-01
  0.364300D+00 -0.898300D-02
  0.128500D+00  0.238500D-02
   s    10 1.00
  0.823600D+04 -0.113000D-03
  0.123500D+04 -0.878000D-03
  0.280800D+03 -0.454000D-02
  0.792700D+02 -0.181330D-01
  0.255900D+02 -0.557600D-01
  0.899700D+01 -0.126895D+00
  0.331900D+01 -0.170352D+00
  0.905900D+00  0.140382D+00
  0.364300D+00  0.598684D+00
  0.128500D+00  0.395389D+00
   s     1 1.00
  0.905900D+00  0.100000D+01
   s     1 1.00
  0.364300D+00  0.100000D+01
   p     5 1.00
  0.187100D+02  0.140310D-01
  0.413300D+01  0.868660D-01
  0.120000D+01  0.290216D+00
  0.382700D+00  0.501008D+00
  0.120900D+00  0.343406D+00
   p     1 1.00
  0.382700D+00  0.100000D+01
   p     1 1.00
  0.120900D+00  0.100000D+01
   d     1 1.00
  0.109700D+01  0.100000D+01
   d     1 1.00
  0.318000D+00  0.100000D+01
   f     1 1.00
  0.761000D+00  0.100000D+01
  
  7  0
   s    10 1.00
  0.823600D+04  0.531000D-03
  0.123500D+04  0.410800D-02
  0.280800D+03  0.210870D-01
  0.792700D+02  0.818530D-01
  0.255900D+02  0.234817D+00
  0.899700D+01  0.434401D+00
  0.331900D+01  0.346129D+00
  0.905900D+00  0.393780D-01
  0.364300D+00 -0.898300D-02
  0.128500D+00  0.238500D-02
   s    10 1.00
  0.823600D+04 -0.113000D-03
  0.123500D+04 -0.878000D-03
  0.280800D+03 -0.454000D-02
  0.792700D+02 -0.181330D-01
  0.255900D+02 -0.557600D-01
  0.899700D+01 -0.126895D+00
  0.331900D+01 -0.170352D+00
  0.905900D+00  0.140382D+00
  0.364300D+00  0.598684D+00
  0.128500D+00  0.395389D+00
   s     1 1.00
  0.905900D+00  0.100000D+01
   s     1 1.00
  0.364300D+00  0.100000D+01
   p     5 1.00
  0.187100D+02  0.140310D-01
  0.413300D+01  0.868660D-01
  0.120000D+01  0.290216D+00
  0.382700D+00  0.501008D+00
  0.120900D+00  0.343406D+00
   p     1 1.00
  0.382700D+00  0.100000D+01
   p     1 1.00
  0.120900D+00  0.100000D+01
   d     1 1.00
  0.109700D+01  0.100000D+01
   d     1 1.00
  0.318000D+00  0.100000D+01
   f     1 1.00
  0.761000D+00  0.100000D+01
  
  8  0
   s     4 1.00
  0.130100D+02  0.196850D-01
  0.196200D+01  0.137977D+00
  0.444600D+00  0.478148D+00
  0.122000D+00  0.501240D+00
   s     1 1.00
  0.122000D+00  0.100000D+01
   p     1 1.00
  0.727000D+00  0.100000D+01
  
  9  0
   s     4 1.00
  0.130100D+02  0.196850D-01
  0.196200D+01  0.137977D+00
  0.444600D+00  0.478148D+00
  0.122000D+00  0.501240D+00
   s     1 1.00
  0.122000D+00  0.100000D+01
   p     1 1.00
  0.727000D+00  0.100000D+01
  
 10  0
   s     4 1.00
  0.130100D+02  0.196850D-01
  0.196200D+01  0.137977D+00
  0.444600D+00  0.478148D+00
  0.122000D+00  0.501240D+00
   s     1 1.00
  0.122000D+00  0.100000D+01
   p     1 1.00
  0.727000D+00  0.100000D+01
  
 11  0
   s     4 1.00
  0.130100D+02  0.196850D-01
  0.196200D+01  0.137977D+00
  0.444600D+00  0.478148D+00
  0.122000D+00  0.501240D+00
   s     1 1.00
  0.122000D+00  0.100000D+01
   p     1 1.00
  0.727000D+00  0.100000D+01
  
 12  0
   s     4 1.00
  0.130100D+02  0.196850D-01
  0.196200D+01  0.137977D+00
  0.444600D+00  0.478148D+00
  0.122000D+00  0.501240D+00
   s     1 1.00
  0.122000D+00  0.100000D+01
   p     1 1.00
  0.727000D+00  0.100000D+01
  
 13  0
   s     4 1.00
  0.130100D+02  0.196850D-01
  0.196200D+01  0.137977D+00
  0.444600D+00  0.478148D+00
  0.122000D+00  0.501240D+00
   s     1 1.00
  0.122000D+00  0.100000D+01
   p     1 1.00
  0.727000D+00  0.100000D+01
  
 14  0
   s     4 1.00
  0.130100D+02  0.196850D-01
  0.196200D+01  0.137977D+00
  0.444600D+00  0.478148D+00
  0.122000D+00  0.501240D+00
   s     1 1.00
  0.122000D+00  0.100000D+01
   p     1 1.00
  0.727000D+00  0.100000D+01
  
[MO]
 Sym= __1_A__
 Ene=  0.000000000000000E+000
 Spin= Alpha
 Occup=    2.00000000000000     
                     1  2.255024904057992E-004
                     2  0.998069637032917     
                     3  3.748167753198538E-003
                     4  1.922887822853599E-003
                     5  5.575849483969062E-003
                     6  5.504764136705890E-003
                     7 -4.661040728791059E-003
                     8  1.661992913555344E-003
                     9 -7.710633128030119E-004
                    10  2.510629332288553E-004
                    11 -1.880575898006774E-004
                    12 -1.394086328855551E-003
                    13  3.038760537267360E-003
                    14 -1.005922920863447E-003
                    15 -7.028137970449110E-006
                    16 -2.707855207427872E-005
                    17  1.682380914621925E-007
                    18  7.319160446142813E-005
                    19  6.138879055773064E-005
                    20 -3.599320852925972E-004
                    21  1.971689377590480E-004
                    22 -9.880336758814362E-005
                    23  6.068147744784648E-005
                    24 -4.671367123145993E-004
                    25 -4.155403188716521E-005
                    26 -1.386974847764314E-004
                    27 -4.742297716839186E-005
                    28  4.621844069060286E-005
                    29 -1.757193064282715E-005
                    30 -1.018764236149276E-004
                    31 -4.952093862506424E-005
                    32 -3.837300248884681E-004
                    33  9.253033577272297E-004
                    34  2.426173379813919E-004
                    35 -1.043565044577852E-004
                    36 -4.363017282727804E-003
                    37 -1.965422518377041E-005
                    38 -9.901812799877973E-005
                    39  2.073555720877390E-004
                    40 -2.044089711319365E-005
                    41  2.948412851430164E-004
                    42  4.844757096837497E-003
                    43  7.793030926110672E-004
                    44 -1.422730519423969E-003
                    45 -2.220725756342891E-004
                    46  1.538793170938142E-005
                    47  4.785108681272662E-006
                    48  2.063172726579352E-004
                    49  4.698744685326106E-005
                    50  4.719890050532206E-004
                    51  2.241454183061500E-004
                    52 -3.317791389387294E-005
                    53 -5.762384739198884E-005
                    54 -3.509614141472956E-004
                    55  1.599024857783432E-005
                    56 -5.980215119647147E-005
                    57  8.754759232597657E-006
                    58  1.180002005798699E-005
                    59  1.298241835201039E-006
                    60 -3.486691367082478E-005
                    61  3.429336568427600E-005
                    62 -4.877073558183392E-004
                    63 -2.210870478060720E-003
                    64  4.072936778195109E-005
                    65  1.459888785790235E-003
                    66  5.273909203640646E-004
                    67 -9.101458216159568E-005
                    68 -6.265054580940007E-004
                    69  7.415570670744347E-004
                    70  7.149579759762695E-005
                    71  2.815874965490923E-004
                    72  4.001950060905899E-004
                    73 -3.174538419107198E-004
                    74 -1.145106988349504E-003
                    75 -7.487698025856461E-005
                    76 -1.829490689631697E-005
                    77  1.944203577265244E-005
                    78  7.019404191353716E-005
                    79 -8.254300039305180E-006
                    80  2.550093004111394E-004
                    81  1.884011858886224E-004
                    82 -3.883277716423666E-005
                    83 -7.290573976069384E-005
                    84  4.069189014294305E-005
                    85 -1.467409473342366E-005
                    86 -8.876266025884266E-005
                    87  2.079748624635714E-005
                    88 -6.112711809618770E-006
                    89  1.320601069686405E-005
                    90 -5.870814195112010E-005
                    91 -1.209305049270714E-005
                    92 -2.265080436901961E-004
                    93 -1.354260676196990E-003
                    94  1.573882367658568E-004
                    95  2.008086531102884E-004
                    96  6.195873383717842E-004
                    97 -9.363705360672348E-005
                    98  5.401151911553527E-004
                    99  4.449288185997087E-004
                   100  8.583540025529364E-005
                   101  6.549405929082281E-005
                   102 -1.317561639626257E-003
                   103 -3.415605171264768E-004
                   104  4.507430532259699E-004
                   105 -7.323525418185310E-005
                   106  7.848550153878534E-006
                   107 -1.532933931570966E-005
                   108  5.402082423357928E-005
                   109 -1.012128588806023E-005
                   110  1.020630083074076E-004
                   111 -1.904830113243408E-004
                   112  1.620554940562977E-005
                   113 -1.706804198109516E-004
                   114  5.990221918470124E-005
                   115 -1.274460230425461E-006
                   116 -2.136248296935575E-005
                   117  2.017329632335484E-005
                   118  1.546525881263599E-005
                   119 -1.191116393448322E-005
                   120 -3.297479290651303E-005
                   121 -9.040690635431311E-006
                   122 -2.304165084424503E-004
                   123 -4.466748552130004E-004
                   124  8.208373419412744E-005
                   125  6.353532917109311E-004
                   126 -5.591077803411032E-004
                   127 -3.773182357604497E-005
                   128  3.657555178044140E-006
                   129  3.918865543163134E-004
                   130 -2.305470607473157E-005
                   131  1.215346852231989E-004
                   132  1.695429134752368E-003
                   133  1.500652389523542E-004
                   134  7.996686694611925E-005
                   135  1.446318205852603E-005
                   136  1.730949256730522E-006
                   137 -4.217109953615148E-006
                   138 -7.175664879743404E-006
                   139  9.596899410140109E-006
                   140  1.561148036130567E-004
                   141  2.610837816388799E-004
                   142  9.725874600489847E-006
                   143 -2.701062572145480E-004
                   144 -2.162919471772401E-005
                   145 -2.114080995360892E-005
                   146 -1.796950715092966E-005
                   147  1.535066144187726E-006
                   148 -7.474532805556484E-006
                   149 -2.696028513696439E-006
                   150 -6.047799901178704E-005
                   151 -1.126178303534212E-006
                   152 -1.558489884338030E-004
                   153 -2.047695318226405E-004
                   154  2.156578943874768E-005
                   155  4.898376323539712E-004
                   156 -5.174666698936484E-004
                   157 -3.360882840563975E-005
                   158 -4.432714131916362E-005
                   159  4.632025632781892E-005
                   160 -2.962054029562013E-005
                   161  1.037820926848703E-004
                   162 -8.957629687974590E-006
                   163  1.244889226367063E-004
                   164  6.064840037929937E-004
                   165 -5.562304487457649E-006
                   166  3.069073531931563E-006
                   167  3.424294924846777E-006
                   168  7.499141533837284E-006
                   169  7.807036009484308E-006
                   170 -3.505879772456842E-006
                   171 -1.246802787435023E-004
                   172 -3.698777726637216E-006
                   173 -9.270237434923258E-005
                   174 -4.930710826359395E-006
                   175  1.336933727794443E-006
                   176 -1.150012976895802E-005
                   177  2.813323732756103E-006
                   178  7.475086726830046E-007
                   179  8.695128368873666E-007
                   180 -2.796556091072071E-005
                   181 -2.828767871810598E-006
                   182 -1.293719332277268E-004
                   183 -4.003321781211892E-004
                   184  2.855833705063342E-005
                   185  1.586843928629404E-004
                   186 -1.699010511322513E-005
                   187 -4.202509461155593E-005
                   188 -4.022686418750111E-005
                   189  9.291748517071918E-005
                   190  1.803020561507727E-005
                   191  1.725844581055641E-004
                   192 -3.732272913187443E-004
                   193 -1.138362982571931E-004
                   194  9.380203454015498E-004
                   195 -9.943888429971744E-006
                   196  1.455862753435669E-006
                   197 -2.686139386125637E-008
                   198  3.904192897211090E-006
                   199 -1.981087275041882E-006
                   200 -1.164230130360761E-004
                   201 -1.423455060659281E-004
                   202  2.287718483620228E-006
                   203  6.452533360745521E-005
                   204  1.747794050556647E-005
                   205  1.634961383892244E-006
                   206  1.112531282180458E-006
                   207  2.663894438200385E-006
                   208  1.126200799498191E-005
                   209 -5.507060212439618E-007
                   210 -5.464004357869081E-006
                   211 -2.618897802874832E-006
                   212  2.571906036114383E-003
                   213 -2.093301764954554E-003
                   214  1.667372058380024E-004
                   215  3.722656964757138E-004
                   216  2.590255843565571E-004
                   217  2.842008288348784E-003
                   218 -2.228426093546212E-003
                   219  1.933448145107721E-004
                   220  1.947123582956464E-004
                   221 -4.526234546629337E-004
                   222 -5.200370097022677E-004
                   223 -2.813905292069809E-004
                   224 -7.185589514387212E-005
                   225  8.691153646025583E-006
                   226  3.481934905546083E-005
                   227 -4.615162389302793E-004
                   228 -3.471238659827171E-004
                   229 -5.061568346998196E-005
                   230  1.241832262482976E-005
                   231 -4.164330137441585E-005
                   232 -9.229887102004364E-005
                   233 -5.491380876969092E-004
                   234  1.666818221872949E-006
                   235 -1.134001011607206E-006
                   236 -5.263030445001495E-006
                   237 -1.348747272839001E-004
                   238 -3.896986636665480E-004
                   239  9.814134672490393E-006
                   240 -2.372191472460788E-006
                   241  1.396988972133171E-005
                   242  1.532806329307937E-005
                   243  1.157631089865011E-004
                   244  2.979288326451039E-005
                   245  1.758753818096685E-006
                   246  1.112754801976409E-006
 Sym= __2_A__
 Ene=  0.000000000000000E+000
 Spin= Alpha
 Occup=    2.00000000000000     
                     1 -1.830151912813104E-005
                     2 -8.387665582017638E-005
                     3  1.939652096189736E-003
                     4 -1.378846761856296E-005
                     5  1.238775005461523E-003
                     6  1.908806283395484E-003
                     7  2.617293338739247E-004
                     8 -1.306912672081877E-004
                     9 -1.502093535431164E-004
                    10  9.894906573258908E-005
                    11 -1.391726605910397E-005
                    12  5.468380486308015E-005
                    13  6.277337825343665E-005
                    14  4.596160366392960E-005
                    15 -7.101842059835152E-005
                    16  7.424866199536809E-006
                    17 -5.843995101033526E-006
                    18  4.079819099264728E-005
                    19 -2.625086002938953E-006
                    20  1.776117294407964E-004
                    21 -4.382590316544035E-005
                    22  1.884067189964212E-005
                    23  1.021681024756747E-004
                    24 -4.577091687933621E-005
                    25 -3.863465406490277E-005
                    26  1.377487996121180E-004
                    27 -4.533008794213768E-005
                    28  1.244026001073315E-007
                    29  7.730781096558932E-007
                    30  1.284762461562168E-004
                    31  3.616273332764347E-005
                    32   1.00096263010344     
                    33  8.773319313264777E-003
                    34  2.789432942874130E-003
                    35 -8.238642839266473E-003
                    36 -2.554130411619037E-003
                    37  6.718344839044428E-004
                    38  7.453956384139776E-006
                    39  1.097652404150416E-003
                    40 -2.215055987267510E-004
                    41 -5.706608749854652E-005
                    42  3.408215881227959E-003
                    43 -1.253237322312055E-004
                    44 -1.240998798378991E-004
                    45  2.973540558075602E-004
                    46  1.295038321092755E-005
                    47 -1.021385096835610E-005
                    48  4.130416154824450E-004
                    49 -2.219344338893272E-005
                    50 -1.039889405290909E-003
                    51 -8.888440577996433E-005
                    52  4.510810035183810E-005
                    53 -1.173656242547791E-004
                    54  2.915691930770029E-005
                    55 -5.722233541004976E-006
                    56  3.090661048759662E-004
                    57 -8.930084851031189E-006
                    58 -8.686849227920276E-006
                    59 -2.664837397169573E-006
                    60  8.096035760384223E-005
                    61  1.777652810425953E-005
                    62  1.240727516719888E-002
                    63 -1.872164672775941E-003
                    64 -2.980268472306343E-004
                    65  3.073275039084274E-003
                    66 -1.416590677593355E-004
                    67  1.106204950138092E-004
                    68  2.694666481933497E-004
                    69  3.230372807473794E-005
                    70 -8.210455632087357E-006
                    71  4.612210256313394E-004
                    72  2.929836082614165E-004
                    73  1.181996640088385E-005
                    74 -1.856427593535058E-003
                    75 -1.039828818814450E-005
                    76  2.598352085277134E-005
                    77  9.335962021377080E-006
                    78 -3.716048390644916E-005
                    79 -4.601890377941092E-006
                    80 -4.414607033890344E-004
                    81 -4.468600845737134E-004
                    82  4.912074859307619E-006
                    83  7.741050764570738E-004
                    84  1.159528088202318E-006
                    85  4.939139393956374E-005
                    86  1.103893949394807E-004
                    87  5.323169007631536E-006
                    88 -1.580291094138368E-005
                    89 -1.129555201063283E-005
                    90 -2.657616073056008E-005
                    91  3.899668850632878E-006
                    92  1.318696024869666E-002
                    93 -1.819715597116154E-003
                    94 -3.269351768998211E-004
                    95  3.216394725934093E-003
                    96 -1.649919690252416E-004
                    97  1.243805511890306E-004
                    98 -2.597152758273956E-004
                    99  1.389161938427357E-005
                   100  1.546171263265476E-005
                   101 -5.788691468712284E-004
                   102  4.944758018840705E-005
                   103 -6.468299605291959E-005
                   104  1.798908576059349E-003
                   105 -7.521165851397850E-006
                   106 -2.186870832920160E-005
                   107 -6.433756368672871E-006
                   108 -3.454282674201930E-005
                   109 -4.438167375349538E-006
                   110 -3.885760426032453E-004
                   111  4.829948142776607E-004
                   112 -4.151224483995502E-006
                   113  7.407949639777726E-004
                   114 -8.656000660930933E-006
                   115 -5.151959511455030E-005
                   116  1.030797465050966E-004
                   117 -2.662025642717578E-006
                   118  1.829530437910848E-005
                   119  2.630051178486964E-006
                   120 -3.212115437466283E-005
                   121  5.094711983298907E-006
                   122 -1.517909660271149E-004
                   123 -7.362636963231640E-004
                   124  2.465203745601807E-004
                   125 -2.902338551308190E-004
                   126 -1.892883685379531E-004
                   127  2.471236815806080E-005
                   128 -4.842703413944702E-005
                   129  6.032490157991647E-004
                   130 -7.344692709445657E-006
                   131  6.384832376725128E-005
                   132  6.767875013973020E-004
                   133 -4.136976342514617E-006
                   134  3.793183403283725E-004
                   135  1.530882371513151E-008
                   136  4.177324002601561E-005
                   137  2.405027734304650E-007
                   138 -3.255777454244984E-005
                   139 -2.018129082287476E-006
                   140  1.971230644169173E-004
                   141 -2.614283383895575E-004
                   142  3.134623754276604E-006
                   143 -2.626321997170328E-004
                   144  3.425998686715602E-006
                   145 -1.849220321974532E-005
                   146  1.495926053294665E-005
                   147 -4.850013082668758E-007
                   148 -1.238500016777190E-005
                   149 -2.627140513801676E-006
                   150 -2.395609263516114E-005
                   151 -2.169054064411800E-007
                   152 -1.329592146994024E-004
                   153 -7.031398439408850E-004
                   154  2.563487274523092E-004
                   155 -3.443402384937875E-004
                   156 -1.809206535243061E-004
                   157  1.638646469567020E-005
                   158  3.719959421888523E-005
                   159  5.896551824872045E-004
                   160  3.668431373116260E-006