[Molden Format]
[Atoms] AU
  N     1    7    -4.4575939100    0.1554248300   -0.0942276800        
  C     2    6    -1.7702173200   -0.0161912600   -0.0405430900        
  C     3    6    -0.4100154000    0.0423396700   -2.3004627500        
  C     4    6    -0.4468628100   -0.0558462800    2.2354699400        
  C     5    6     2.2021325800    0.0315428500   -2.2681927900        
  C     6    6     2.1726846500   -0.0370643500    2.2450681600        
  C     7    6     3.5122596800   -0.0008988700    0.0009113900        
  H     8    1    -5.1899926500   -1.1074979300   -1.3617121400        
  H     9    1    -5.1776571100   -0.2994471500    1.6419838500        
  H    10    1    -1.4048308700    0.1058059900   -4.0662794100        
  H    11    1    -1.4616307900   -0.1055677600    3.9912073100        
  H    12    1     3.2198342300    0.0640860200   -4.0234062500        
  H    13    1     3.1610343300   -0.0672052600    4.0170830000        
  H    14    1     5.5401759400    0.0021727100    0.0146823200        
[5D]
[7F]
[GTO]
  1  0
   s    12 1.00
  0.114200D+05  0.172695D-04
  0.171200D+04  0.134411D-03
  0.389300D+03  0.694561D-03
  0.110000D+03  0.278531D-02
  0.355700D+02  0.863457D-02
  0.125400D+02  0.199805D-01
  0.464400D+01  0.262908D-01
  0.129300D+01 -0.243845D-01
  0.511800D+00 -0.924934D-01
  0.178700D+00 -0.339683D+00
  0.246240D-01  0.345111D+00
  0.112530D-01  0.752750D+00
   s    10 1.00
  0.114200D+05  0.523000D-03
  0.171200D+04  0.404500D-02
  0.389300D+03  0.207750D-01
  0.110000D+03  0.807269D-01
  0.355700D+02  0.233074D+00
  0.125400D+02  0.433501D+00
  0.464400D+01  0.347472D+00
  0.129300D+01  0.412620D-01
  0.511800D+00 -0.850799D-02
  0.178700D+00  0.238400D-02
   s    10 1.00
  0.114200D+05 -0.115000D-03
  0.171200D+04 -0.895000D-03
  0.389300D+03 -0.462400D-02
  0.110000D+03 -0.185280D-01
  0.355700D+02 -0.573390D-01
  0.125400D+02 -0.132076D+00
  0.464400D+01 -0.172510D+00
  0.129300D+01  0.151814D+00
  0.511800D+00  0.599944D+00
  0.178700D+00  0.387462D+00
   s     1 1.00
  0.129300D+01  0.100000D+01
   s     1 1.00
  0.178700D+00  0.100000D+01
   p     5 1.00
  0.266300D+02  0.146700D-01
  0.594800D+01  0.917640D-01
  0.174200D+01  0.298683D+00
  0.555000D+00  0.498487D+00
  0.172500D+00  0.337023D+00
   p     1 1.00
  0.174200D+01  0.100000D+01
   p     1 1.00
  0.555000D+00  0.100000D+01
   d     1 1.00
  0.165400D+01  0.100000D+01
   d     1 1.00
  0.469000D+00  0.100000D+01
   f     1 1.00
  0.109300D+01  0.100000D+01
  
  2  0
   s    10 1.00
  0.823600D+04  0.531000D-03
  0.123500D+04  0.410800D-02
  0.280800D+03  0.210870D-01
  0.792700D+02  0.818530D-01
  0.255900D+02  0.234817D+00
  0.899700D+01  0.434401D+00
  0.331900D+01  0.346129D+00
  0.905900D+00  0.393780D-01
  0.364300D+00 -0.898300D-02
  0.128500D+00  0.238500D-02
   s    10 1.00
  0.823600D+04 -0.113000D-03
  0.123500D+04 -0.878000D-03
  0.280800D+03 -0.454000D-02
  0.792700D+02 -0.181330D-01
  0.255900D+02 -0.557600D-01
  0.899700D+01 -0.126895D+00
  0.331900D+01 -0.170352D+00
  0.905900D+00  0.140382D+00
  0.364300D+00  0.598684D+00
  0.128500D+00  0.395389D+00
   s     1 1.00
  0.905900D+00  0.100000D+01
   s     1 1.00
  0.364300D+00  0.100000D+01
   p     5 1.00
  0.187100D+02  0.140310D-01
  0.413300D+01  0.868660D-01
  0.120000D+01  0.290216D+00
  0.382700D+00  0.501008D+00
  0.120900D+00  0.343406D+00
   p     1 1.00
  0.382700D+00  0.100000D+01
   p     1 1.00
  0.120900D+00  0.100000D+01
   d     1 1.00
  0.109700D+01  0.100000D+01
   d     1 1.00
  0.318000D+00  0.100000D+01
   f     1 1.00
  0.761000D+00  0.100000D+01
  
  3  0
   s    10 1.00
  0.823600D+04  0.531000D-03
  0.123500D+04  0.410800D-02
  0.280800D+03  0.210870D-01
  0.792700D+02  0.818530D-01
  0.255900D+02  0.234817D+00
  0.899700D+01  0.434401D+00
  0.331900D+01  0.346129D+00
  0.905900D+00  0.393780D-01
  0.364300D+00 -0.898300D-02
  0.128500D+00  0.238500D-02
   s    10 1.00
  0.823600D+04 -0.113000D-03
  0.123500D+04 -0.878000D-03
  0.280800D+03 -0.454000D-02
  0.792700D+02 -0.181330D-01
  0.255900D+02 -0.557600D-01
  0.899700D+01 -0.126895D+00
  0.331900D+01 -0.170352D+00
  0.905900D+00  0.140382D+00
  0.364300D+00  0.598684D+00
  0.128500D+00  0.395389D+00
   s     1 1.00
  0.905900D+00  0.100000D+01
   s     1 1.00
  0.364300D+00  0.100000D+01
   p     5 1.00
  0.187100D+02  0.140310D-01
  0.413300D+01  0.868660D-01
  0.120000D+01  0.290216D+00
  0.382700D+00  0.501008D+00
  0.120900D+00  0.343406D+00
   p     1 1.00
  0.382700D+00  0.100000D+01
   p     1 1.00
  0.120900D+00  0.100000D+01
   d     1 1.00
  0.109700D+01  0.100000D+01
   d     1 1.00
  0.318000D+00  0.100000D+01
   f     1 1.00
  0.761000D+00  0.100000D+01
  
  4  0
   s    10 1.00
  0.823600D+04  0.531000D-03
  0.123500D+04  0.410800D-02
  0.280800D+03  0.210870D-01
  0.792700D+02  0.818530D-01
  0.255900D+02  0.234817D+00
  0.899700D+01  0.434401D+00
  0.331900D+01  0.346129D+00
  0.905900D+00  0.393780D-01
  0.364300D+00 -0.898300D-02
  0.128500D+00  0.238500D-02
   s    10 1.00
  0.823600D+04 -0.113000D-03
  0.123500D+04 -0.878000D-03
  0.280800D+03 -0.454000D-02
  0.792700D+02 -0.181330D-01
  0.255900D+02 -0.557600D-01
  0.899700D+01 -0.126895D+00
  0.331900D+01 -0.170352D+00
  0.905900D+00  0.140382D+00
  0.364300D+00  0.598684D+00
  0.128500D+00  0.395389D+00
   s     1 1.00
  0.905900D+00  0.100000D+01
   s     1 1.00
  0.364300D+00  0.100000D+01
   p     5 1.00
  0.187100D+02  0.140310D-01
  0.413300D+01  0.868660D-01
  0.120000D+01  0.290216D+00
  0.382700D+00  0.501008D+00
  0.120900D+00  0.343406D+00
   p     1 1.00
  0.382700D+00  0.100000D+01
   p     1 1.00
  0.120900D+00  0.100000D+01
   d     1 1.00
  0.109700D+01  0.100000D+01
   d     1 1.00
  0.318000D+00  0.100000D+01
   f     1 1.00
  0.761000D+00  0.100000D+01
  
  5  0
   s    10 1.00
  0.823600D+04  0.531000D-03
  0.123500D+04  0.410800D-02
  0.280800D+03  0.210870D-01
  0.792700D+02  0.818530D-01
  0.255900D+02  0.234817D+00
  0.899700D+01  0.434401D+00
  0.331900D+01  0.346129D+00
  0.905900D+00  0.393780D-01
  0.364300D+00 -0.898300D-02
  0.128500D+00  0.238500D-02
   s    10 1.00
  0.823600D+04 -0.113000D-03
  0.123500D+04 -0.878000D-03
  0.280800D+03 -0.454000D-02
  0.792700D+02 -0.181330D-01
  0.255900D+02 -0.557600D-01
  0.899700D+01 -0.126895D+00
  0.331900D+01 -0.170352D+00
  0.905900D+00  0.140382D+00
  0.364300D+00  0.598684D+00
  0.128500D+00  0.395389D+00
   s     1 1.00
  0.905900D+00  0.100000D+01
   s     1 1.00
  0.364300D+00  0.100000D+01
   p     5 1.00
  0.187100D+02  0.140310D-01
  0.413300D+01  0.868660D-01
  0.120000D+01  0.290216D+00
  0.382700D+00  0.501008D+00
  0.120900D+00  0.343406D+00
   p     1 1.00
  0.382700D+00  0.100000D+01
   p     1 1.00
  0.120900D+00  0.100000D+01
   d     1 1.00
  0.109700D+01  0.100000D+01
   d     1 1.00
  0.318000D+00  0.100000D+01
   f     1 1.00
  0.761000D+00  0.100000D+01
  
  6  0
   s    10 1.00
  0.823600D+04  0.531000D-03
  0.123500D+04  0.410800D-02
  0.280800D+03  0.210870D-01
  0.792700D+02  0.818530D-01
  0.255900D+02  0.234817D+00
  0.899700D+01  0.434401D+00
  0.331900D+01  0.346129D+00
  0.905900D+00  0.393780D-01
  0.364300D+00 -0.898300D-02
  0.128500D+00  0.238500D-02
   s    10 1.00
  0.823600D+04 -0.113000D-03
  0.123500D+04 -0.878000D-03
  0.280800D+03 -0.454000D-02
  0.792700D+02 -0.181330D-01
  0.255900D+02 -0.557600D-01
  0.899700D+01 -0.126895D+00
  0.331900D+01 -0.170352D+00
  0.905900D+00  0.140382D+00
  0.364300D+00  0.598684D+00
  0.128500D+00  0.395389D+00
   s     1 1.00
  0.905900D+00  0.100000D+01
   s     1 1.00
  0.364300D+00  0.100000D+01
   p     5 1.00
  0.187100D+02  0.140310D-01
  0.413300D+01  0.868660D-01
  0.120000D+01  0.290216D+00
  0.382700D+00  0.501008D+00
  0.120900D+00  0.343406D+00
   p     1 1.00
  0.382700D+00  0.100000D+01
   p     1 1.00
  0.120900D+00  0.100000D+01
   d     1 1.00
  0.109700D+01  0.100000D+01
   d     1 1.00
  0.318000D+00  0.100000D+01
   f     1 1.00
  0.761000D+00  0.100000D+01
  
  7  0
   s    10 1.00
  0.823600D+04  0.531000D-03
  0.123500D+04  0.410800D-02
  0.280800D+03  0.210870D-01
  0.792700D+02  0.818530D-01
  0.255900D+02  0.234817D+00
  0.899700D+01  0.434401D+00
  0.331900D+01  0.346129D+00
  0.905900D+00  0.393780D-01
  0.364300D+00 -0.898300D-02
  0.128500D+00  0.238500D-02
   s    10 1.00
  0.823600D+04 -0.113000D-03
  0.123500D+04 -0.878000D-03
  0.280800D+03 -0.454000D-02
  0.792700D+02 -0.181330D-01
  0.255900D+02 -0.557600D-01
  0.899700D+01 -0.126895D+00
  0.331900D+01 -0.170352D+00
  0.905900D+00  0.140382D+00
  0.364300D+00  0.598684D+00
  0.128500D+00  0.395389D+00
   s     1 1.00
  0.905900D+00  0.100000D+01
   s     1 1.00
  0.364300D+00  0.100000D+01
   p     5 1.00
  0.187100D+02  0.140310D-01
  0.413300D+01  0.868660D-01
  0.120000D+01  0.290216D+00
  0.382700D+00  0.501008D+00
  0.120900D+00  0.343406D+00
   p     1 1.00
  0.382700D+00  0.100000D+01
   p     1 1.00
  0.120900D+00  0.100000D+01
   d     1 1.00
  0.109700D+01  0.100000D+01
   d     1 1.00
  0.318000D+00  0.100000D+01
   f     1 1.00
  0.761000D+00  0.100000D+01
  
  8  0
   s     4 1.00
  0.130100D+02  0.196850D-01
  0.196200D+01  0.137977D+00
  0.444600D+00  0.478148D+00
  0.122000D+00  0.501240D+00
   s     1 1.00
  0.122000D+00  0.100000D+01
   p     1 1.00
  0.727000D+00  0.100000D+01
  
  9  0
   s     4 1.00
  0.130100D+02  0.196850D-01
  0.196200D+01  0.137977D+00
  0.444600D+00  0.478148D+00
  0.122000D+00  0.501240D+00
   s     1 1.00
  0.122000D+00  0.100000D+01
   p     1 1.00
  0.727000D+00  0.100000D+01
  
 10  0
   s     4 1.00
  0.130100D+02  0.196850D-01
  0.196200D+01  0.137977D+00
  0.444600D+00  0.478148D+00
  0.122000D+00  0.501240D+00
   s     1 1.00
  0.122000D+00  0.100000D+01
   p     1 1.00
  0.727000D+00  0.100000D+01
  
 11  0
   s     4 1.00
  0.130100D+02  0.196850D-01
  0.196200D+01  0.137977D+00
  0.444600D+00  0.478148D+00
  0.122000D+00  0.501240D+00
   s     1 1.00
  0.122000D+00  0.100000D+01
   p     1 1.00
  0.727000D+00  0.100000D+01
  
 12  0
   s     4 1.00
  0.130100D+02  0.196850D-01
  0.196200D+01  0.137977D+00
  0.444600D+00  0.478148D+00
  0.122000D+00  0.501240D+00
   s     1 1.00
  0.122000D+00  0.100000D+01
   p     1 1.00
  0.727000D+00  0.100000D+01
  
 13  0
   s     4 1.00
  0.130100D+02  0.196850D-01
  0.196200D+01  0.137977D+00
  0.444600D+00  0.478148D+00
  0.122000D+00  0.501240D+00
   s     1 1.00
  0.122000D+00  0.100000D+01
   p     1 1.00
  0.727000D+00  0.100000D+01
  
 14  0
   s     4 1.00
  0.130100D+02  0.196850D-01
  0.196200D+01  0.137977D+00
  0.444600D+00  0.478148D+00
  0.122000D+00  0.501240D+00
   s     1 1.00
  0.122000D+00  0.100000D+01
   p     1 1.00
  0.727000D+00  0.100000D+01
  
[MO]
 Sym= __1_a__
 Ene=  0.000000000000000E+000
 Spin= Alpha
 Occup=    2.00000000000000     
                     1  2.255024904271280E-004
                     2  0.998069637032886     
                     3  3.748167753208480E-003
                     4  1.922887822853980E-003
                     5  5.575849483998980E-003
                     6  5.504764136636290E-003
                     7 -4.661040728744090E-003
                     8  1.661992913498900E-003
                     9 -7.710633127953870E-004
                    10  2.510629332183810E-004
                    11 -1.880575897904100E-004
                    12 -1.394086328874770E-003
                    13  3.038760537264260E-003
                    14 -1.005922920851450E-003
                    15 -7.028137970834310E-006
                    16 -2.707855206916460E-005
                    17  1.682380924324610E-007
                    18  7.319160446422159E-005
                    19  6.138879055920409E-005
                    20 -3.599320852879928E-004
                    21  1.971689377389460E-004
                    22 -9.880336758999309E-005
                    23  6.068147746513020E-005
                    24 -4.671367123127340E-004
                    25 -4.155403188800389E-005
                    26 -1.386974847783373E-004
                    27 -4.742297716964333E-005
                    28  4.621844068993140E-005
                    29 -1.757193064275040E-005
                    30 -1.018764236193171E-004
                    31 -4.952093862574872E-005
                    32 -3.837300273121230E-004
                    33  9.253033589254610E-004
                    34  2.426173379760040E-004
                    35 -1.043565046212670E-004
                    36 -4.363017282622060E-003
                    37 -1.965422514038290E-005
                    38 -9.901812743278860E-005
                    39  2.073555720806140E-004
                    40 -2.044089711841150E-005
                    41  2.948412852851020E-004
                    42  4.844757097190900E-003
                    43  7.793030926191850E-004
                    44 -1.422730519042960E-003
                    45 -2.220725755678723E-004
                    46  1.538793173747650E-005
                    47  4.785108679223650E-006
                    48  2.063172726313860E-004
                    49  4.698744685310850E-005
                    50  4.719890050968222E-004
                    51  2.241454183199080E-004
                    52 -3.317791389417710E-005
                    53 -5.762384736520720E-005
                    54 -3.509614141427650E-004
                    55  1.599024857773005E-005
                    56 -5.980215117871482E-005
                    57  8.754759234149628E-006
                    58  1.180002005731006E-005
                    59  1.298241833495380E-006
                    60 -3.486691366620624E-005
                    61  3.429336568515125E-005
                    62 -4.877073559870550E-004
                    63 -2.210870477381650E-003
                    64  4.072936777866750E-005
                    65  1.459888785839040E-003
                    66  5.273909162351670E-004
                    67 -9.101458203486210E-005
                    68 -6.265054602478460E-004
                    69  7.415570675391080E-004
                    70  7.149579758865890E-005
                    71  2.815874968083910E-004
                    72  4.001950065683970E-004
                    73 -3.174538419325420E-004
                    74 -1.145106988749630E-003
                    75 -7.487698013923120E-005
                    76 -1.829490676532690E-005
                    77  1.944203576860250E-005
                    78  7.019404185148080E-005
                    79 -8.254300042858520E-006
                    80  2.550093002675806E-004
                    81  1.884011856755250E-004
                    82 -3.883277715485730E-005
                    83 -7.290573973113760E-005
                    84  4.069189016013360E-005
                    85 -1.467409471495740E-005
                    86 -8.876266026581429E-005
                    87  2.079748624679609E-005
                    88 -6.112711796877020E-006
                    89  1.320601069756820E-005
                    90 -5.870814191978286E-005
                    91 -1.209305049272662E-005
                    92 -2.265080434061360E-004
                    93 -1.354260676551970E-003
                    94  1.573882368030010E-004
                    95  2.008086529305760E-004
                    96  6.195873379609440E-004
                    97 -9.363705356008790E-005
                    98  5.401151903370360E-004
                    99  4.449288184966330E-004
                   100  8.583540025103470E-005
                   101  6.549405936238860E-005
                   102 -1.317561639283750E-003
                   103 -3.415605171211130E-004
                   104  4.507430528160530E-004
                   105 -7.323525418974231E-005
                   106  7.848550297722130E-006
                   107 -1.532933931524760E-005
                   108  5.402082422240000E-005
                   109 -1.012128589191840E-005
                   110  1.020630084368188E-004
                   111 -1.904830113125020E-004
                   112  1.620554940228110E-005
                   113 -1.706804198587012E-004
                   114  5.990221918391340E-005
                   115 -1.274460209849161E-006
                   116 -2.136248296033549E-005
                   117  2.017329632408516E-005
                   118  1.546525883366844E-005
                   119 -1.191116393430930E-005
                   120 -3.297479290435260E-005
                   121 -9.040690635886111E-006
                   122 -2.304165084504140E-004
                   123 -4.466748547056590E-004
                   124  8.208373421798760E-005
                   125  6.353532914144050E-004
                   126 -5.591077759086980E-004
                   127 -3.773182368655270E-005
                   128  3.657561284070130E-006
                   129  3.918865541937080E-004
                   130 -2.305470607340930E-005
                   131  1.215346847286170E-004
                   132  1.695429133567640E-003
                   133  1.500652389632160E-004
                   134  7.996686654051569E-005
                   135  1.446318211456288E-005
                   136  1.730949511340970E-006
                   137 -4.217109954824480E-006
                   138 -7.175664916602460E-006
                   139  9.596899405446090E-006
                   140  1.561148038224543E-004
                   141  2.610837815994000E-004
                   142  9.725874592675691E-006
                   143 -2.701062572570060E-004
                   144 -2.162919471624830E-005
                   145 -2.114080994902477E-005
                   146 -1.796950712727076E-005
                   147  1.535066143122975E-006
                   148 -7.474532754974080E-006
                   149 -2.696028515029190E-006
                   150 -6.047799905336831E-005
                   151 -1.126178305059942E-006
                   152 -1.558489884825720E-004
                   153 -2.047695328093740E-004
                   154  2.156578947955130E-005
                   155  4.898376324449050E-004
                   156 -5.174666700958800E-004
                   157 -3.360882856102260E-005
                   158 -4.432713331063790E-005
                   159  4.632025609388340E-005
                   160 -2.962054028471510E-005
                   161  1.037820919192870E-004
                   162 -8.957629240531339E-006
                   163  1.244889226466050E-004
                   164  6.064840030720090E-004
                   165 -5.562304462445939E-006
                   166  3.069073797537030E-006
                   167  3.424294925375230E-006
                   168  7.499141497137420E-006
                   169  7.807036003944380E-006
                   170 -3.505879966427061E-006
                   171 -1.246802788461260E-004
                   172 -3.698777722205830E-006
                   173 -9.270237437440581E-005
                   174 -4.930710826001970E-006
                   175  1.336933719574517E-006
                   176 -1.150012981569108E-005
                   177  2.813323730772558E-006
                   178  7.475087212679900E-007
                   179  8.695128390346150E-007
                   180 -2.796556090664355E-005
                   181 -2.828767872811546E-006
                   182 -1.293719332201720E-004
                   183 -4.003321769249540E-004
                   184  2.855833704894540E-005
                   185  1.586843927219570E-004
                   186 -1.699010403299010E-005
                   187 -4.202509452563750E-005
                   188 -4.022687279540990E-005
                   189  9.291748502421880E-005
                   190  1.803020560791410E-005
                   191  1.725844585371670E-004
                   192 -3.732272917578610E-004
                   193 -1.138362982825190E-004
                   194  9.380203468784750E-004
                   195 -9.943888389918636E-006
                   196  1.455863046391070E-006
                   197 -2.686139448225060E-008
                   198  3.904192887995180E-006
                   199 -1.981087278669420E-006
                   200 -1.164230129211870E-004
                   201 -1.423455057809970E-004
                   202  2.287718482596250E-006
                   203  6.452533356948540E-005
                   204  1.747794050071730E-005
                   205  1.634961415032543E-006
                   206  1.112531269335841E-006
                   207  2.663894440234547E-006
                   208  1.126200793705928E-005
                   209 -5.507060211751390E-007
                   210 -5.464004365381512E-006
                   211 -2.618897801982779E-006
                   212  2.571906036240540E-003
                   213 -2.093301764903880E-003
                   214  1.667372058410770E-004
                   215  3.722656964826120E-004
                   216  2.590255843571790E-004
                   217  2.842008288305760E-003
                   218 -2.228426093546740E-003
                   219  1.933448145055690E-004
                   220  1.947123582931490E-004
                   221 -4.526234546578570E-004
                   222 -5.200370049172280E-004
                   223 -2.813905309283850E-004
                   224 -7.185589505575230E-005
                   225  8.691153635360631E-006
                   226  3.481934930289090E-005
                   227 -4.615162404059170E-004
                   228 -3.471238655303440E-004
                   229 -5.061568349729510E-005
                   230  1.241832262428250E-005
                   231 -4.164330132151610E-005
                   232 -9.229887461359351E-005
                   233 -5.491380864988340E-004
                   234  1.666818397558960E-006
                   235 -1.134001009853870E-006
                   236 -5.263030546633740E-006
                   237 -1.348747204012690E-004
                   238 -3.896986659731490E-004
                   239  9.814134434146289E-006
                   240 -2.372191467917980E-006
                   241  1.396988942173020E-005
                   242  1.532806441087830E-005
                   243  1.157631084820570E-004
                   244  2.979288317704100E-005
                   245  1.758753819051950E-006
                   246  1.112754688553440E-006
 Sym= __2_a__
 Ene=  0.000000000000000E+000
 Spin= Alpha
 Occup=    2.00000000000000     
                     1 -1.830151910586890E-005
                     2 -8.387665343869770E-005
                     3  1.939652096195400E-003
                     4 -1.378846761750500E-005
                     5  1.238775005551150E-003
                     6  1.908806283404350E-003
                     7  2.617293339038500E-004
                     8 -1.306912672220200E-004
                     9 -1.502093535601910E-004
                    10  9.894906572111899E-005
                    11 -1.391726604417800E-005
                    12  5.468380484964990E-005
                    13  6.277337826216100E-005
                    14  4.596160360967590E-005
                    15 -7.101842059922010E-005
                    16  7.424866202607280E-006
                    17 -5.843995099952930E-006
                    18  4.079819099277040E-005
                    19 -2.625086002393120E-006
                    20  1.776117294524704E-004
                    21 -4.382590323275220E-005
                    22  1.884067189317850E-005
                    23  1.021681024963556E-004
                    24 -4.577091687866200E-005
                    25 -3.863465407543519E-005
                    26  1.377487996166547E-004
                    27 -4.533008794200979E-005
                    28  1.244025897087846E-007
                    29  7.730781121841880E-007
                    30  1.284762461516729E-004
                    31  3.616273332641845E-005
                    32   1.00096263010669     
                    33  8.773319313987759E-003
                    34  2.789432942989790E-003
                    35 -8.238642840126310E-003
                    36 -2.554130411688410E-003
                    37  6.718344839239600E-004
                    38  7.453956425035860E-006
                    39  1.097652404036000E-003
                    40 -2.215055987336240E-004
                    41 -5.706608730751150E-005
                    42  3.408215881523760E-003
                    43 -1.253237322278270E-004
                    44 -1.240998799631850E-004
                    45  2.973540558403124E-004
                    46  1.295038322525690E-005
                    47 -1.021385097102160E-005
                    48  4.130416154798900E-004
                    49 -2.219344338956920E-005
                    50 -1.039889405498429E-003
                    51 -8.888440591021790E-005
                    52  4.510810037137950E-005
                    53 -1.173656242685026E-004
                    54  2.915691931558920E-005
                    55 -5.722233524601506E-006
                    56  3.090661049086289E-004
                    57 -8.930084848954837E-006
                    58 -8.686849244643439E-006
                    59 -2.664837401479520E-006
                    60  8.096035760755876E-005
                    61  1.777652810460670E-005
                    62  1.240727490970290E-002
                    63 -1.872164674696060E-003
                    64 -2.980268480497430E-004
                    65  3.073275041292430E-003
                    66 -1.416590690324280E-004
                    67  1.106204950883170E-004
                    68  2.694666475578320E-004
                    69  3.230372826316550E-005
                    70 -8.210455664982440E-006
                    71  4.612210259120300E-004
                    72  2.929836083657440E-004
                    73  1.181996639162410E-005
                    74 -1.856427593795640E-003
                    75 -1.039828819460949E-005
                    76  2.598352089642690E-005
                    77  9.335962024336550E-006
                    78 -3.716048403251620E-005
                    79 -4.601890377091660E-006
                    80 -4.414607034952843E-004
                    81 -4.468600848916360E-004
                    82  4.912074861802470E-006
                    83  7.741050766634940E-004
                    84  1.159528094896710E-006
                    85  4.939139392833536E-005
                    86  1.103893950117172E-004
                    87  5.323169004511484E-006
                    88 -1.580291091974424E-005
                    89 -1.129555201410470E-005
                    90 -2.657616071245966E-005
                    91  3.899668849836142E-006
                    92  1.318696026755260E-002
                    93 -1.819715597190720E-003
                    94 -3.269351768924570E-004
                    95  3.216394725899840E-003
                    96 -1.649919696150740E-004
                    97  1.243805511963030E-004
                    98 -2.597152757755050E-004
                    99  1.389161930531910E-005
                   100  1.546171262882190E-005
                   101 -5.788691470042710E-004
                   102  4.944758026105940E-005
                   103 -6.468299605250471E-005
                   104  1.798908575924470E-003
                   105 -7.521165825074817E-006
                   106 -2.186870831042320E-005
                   107 -6.433756370155860E-006
                   108 -3.454282674746720E-005
                   109 -4.438167376333750E-006
                   110 -3.885760425733411E-004
                   111  4.829948143354470E-004
                   112 -4.151224480495200E-006
                   113  7.407949639652900E-004
                   114 -8.656000658578199E-006
                   115 -5.151959510963566E-005
                   116  1.030797465113811E-004
                   117 -2.662025642444183E-006
                   118  1.829530438136712E-005
                   119  2.630051177881920E-006
                   120 -3.212115436324870E-005
                   121  5.094711982696979E-006
                   122 -1.517909720386280E-004
                   123 -7.362636961257690E-004
                   124  2.465203746543630E-004
                   125 -2.902338559385080E-004
                   126 -1.892883672786500E-004
                   127  2.471236814836170E-005
                   128 -4.842703334944840E-005
                   129  6.032490159307830E-004
                   130 -7.344692708499980E-006
                   131  6.384832366447840E-005
                   132  6.767875008902480E-004
                   133 -4.136976344405980E-006
                   134  3.793183404252970E-004
                   135  1.530884826892353E-008
                   136  4.177324006994870E-005
                   137  2.405027727261810E-007
                   138 -3.255777455534040E-005
                   139 -2.018129083385840E-006
                   140  1.971230644251962E-004
                   141 -2.614283385779040E-004
                   142  3.134623756878240E-006
                   143 -2.626321998479500E-004
                   144  3.425998688594260E-006
                   145 -1.849220321662377E-005
                   146  1.495926055292051E-005
                   147 -4.850013082594814E-007
                   148 -1.238500017124558E-005
                   149 -2.627140514242440E-006
                   150 -2.395609261788112E-005
                   151 -2.169054055850487E-007
                   152 -1.329592155979360E-004
                   153 -7.031398442216360E-004
                   154  2.563487274540750E-004
                   155 -3.443402386007530E-004
                   156 -1.809206530223720E-004
                   157  1.638646467956030E-005
                   158  3.719959524862710E-005
                   159  5.896551823882470E-004
                   160  3.668431373940490E-006