[Molden Format]
[Atoms] AU
  N     1    7    -4.4698667800    0.1414553700    0.0000000000        
  C     2    6    -1.7663812700    0.0042993000    0.0000000000        
  C     3    6    -0.4409178200    0.0035752700   -2.2674809000        
  C     4    6    -0.4409178200    0.0035752700    2.2674809000        
  C     5    6     2.2049318400   -0.0016722100   -2.2625113700        
  C     6    6     2.2049318400   -0.0016722100    2.2625113700        
  C     7    6     3.5291861200   -0.0041302000    0.0000000000        
  H     8    1    -5.2452362900   -0.7091996300   -1.5675329200        
  H     9    1    -5.2452362900   -0.7091996300    1.5675329200        
  H    10    1    -1.4442330400    0.0160151700   -4.0314227600        
  H    11    1    -1.4442330400    0.0160151700    4.0314227600        
  H    12    1     3.2030294600   -0.0071247000   -4.0293732300        
  H    13    1     3.2030294600   -0.0071247000    4.0293732300        
  H    14    1     5.5578190400   -0.0125884400    0.0000000000        
[5D]
[7F]
[GTO]
  1  0
   s    12 1.00
  0.114200D+05  0.172695D-04
  0.171200D+04  0.134411D-03
  0.389300D+03  0.694561D-03
  0.110000D+03  0.278531D-02
  0.355700D+02  0.863457D-02
  0.125400D+02  0.199805D-01
  0.464400D+01  0.262908D-01
  0.129300D+01 -0.243845D-01
  0.511800D+00 -0.924934D-01
  0.178700D+00 -0.339683D+00
  0.246240D-01  0.345111D+00
  0.112530D-01  0.752750D+00
   s    10 1.00
  0.114200D+05  0.523000D-03
  0.171200D+04  0.404500D-02
  0.389300D+03  0.207750D-01
  0.110000D+03  0.807269D-01
  0.355700D+02  0.233074D+00
  0.125400D+02  0.433501D+00
  0.464400D+01  0.347472D+00
  0.129300D+01  0.412620D-01
  0.511800D+00 -0.850799D-02
  0.178700D+00  0.238400D-02
   s    10 1.00
  0.114200D+05 -0.115000D-03
  0.171200D+04 -0.895000D-03
  0.389300D+03 -0.462400D-02
  0.110000D+03 -0.185280D-01
  0.355700D+02 -0.573390D-01
  0.125400D+02 -0.132076D+00
  0.464400D+01 -0.172510D+00
  0.129300D+01  0.151814D+00
  0.511800D+00  0.599944D+00
  0.178700D+00  0.387462D+00
   s     1 1.00
  0.129300D+01  0.100000D+01
   s     1 1.00
  0.178700D+00  0.100000D+01
   p     5 1.00
  0.266300D+02  0.146700D-01
  0.594800D+01  0.917640D-01
  0.174200D+01  0.298683D+00
  0.555000D+00  0.498487D+00
  0.172500D+00  0.337023D+00
   p     1 1.00
  0.174200D+01  0.100000D+01
   p     1 1.00
  0.555000D+00  0.100000D+01
   d     1 1.00
  0.165400D+01  0.100000D+01
   d     1 1.00
  0.469000D+00  0.100000D+01
   f     1 1.00
  0.109300D+01  0.100000D+01
  
  2  0
   s    10 1.00
  0.823600D+04  0.531000D-03
  0.123500D+04  0.410800D-02
  0.280800D+03  0.210870D-01
  0.792700D+02  0.818530D-01
  0.255900D+02  0.234817D+00
  0.899700D+01  0.434401D+00
  0.331900D+01  0.346129D+00
  0.905900D+00  0.393780D-01
  0.364300D+00 -0.898300D-02
  0.128500D+00  0.238500D-02
   s    10 1.00
  0.823600D+04 -0.113000D-03
  0.123500D+04 -0.878000D-03
  0.280800D+03 -0.454000D-02
  0.792700D+02 -0.181330D-01
  0.255900D+02 -0.557600D-01
  0.899700D+01 -0.126895D+00
  0.331900D+01 -0.170352D+00
  0.905900D+00  0.140382D+00
  0.364300D+00  0.598684D+00
  0.128500D+00  0.395389D+00
   s     1 1.00
  0.905900D+00  0.100000D+01
   s     1 1.00
  0.364300D+00  0.100000D+01
   p     5 1.00
  0.187100D+02  0.140310D-01
  0.413300D+01  0.868660D-01
  0.120000D+01  0.290216D+00
  0.382700D+00  0.501008D+00
  0.120900D+00  0.343406D+00
   p     1 1.00
  0.382700D+00  0.100000D+01
   p     1 1.00
  0.120900D+00  0.100000D+01
   d     1 1.00
  0.109700D+01  0.100000D+01
   d     1 1.00
  0.318000D+00  0.100000D+01
   f     1 1.00
  0.761000D+00  0.100000D+01
  
  3  0
   s    10 1.00
  0.823600D+04  0.531000D-03
  0.123500D+04  0.410800D-02
  0.280800D+03  0.210870D-01
  0.792700D+02  0.818530D-01
  0.255900D+02  0.234817D+00
  0.899700D+01  0.434401D+00
  0.331900D+01  0.346129D+00
  0.905900D+00  0.393780D-01
  0.364300D+00 -0.898300D-02
  0.128500D+00  0.238500D-02
   s    10 1.00
  0.823600D+04 -0.113000D-03
  0.123500D+04 -0.878000D-03
  0.280800D+03 -0.454000D-02
  0.792700D+02 -0.181330D-01
  0.255900D+02 -0.557600D-01
  0.899700D+01 -0.126895D+00
  0.331900D+01 -0.170352D+00
  0.905900D+00  0.140382D+00
  0.364300D+00  0.598684D+00
  0.128500D+00  0.395389D+00
   s     1 1.00
  0.905900D+00  0.100000D+01
   s     1 1.00
  0.364300D+00  0.100000D+01
   p     5 1.00
  0.187100D+02  0.140310D-01
  0.413300D+01  0.868660D-01
  0.120000D+01  0.290216D+00
  0.382700D+00  0.501008D+00
  0.120900D+00  0.343406D+00
   p     1 1.00
  0.382700D+00  0.100000D+01
   p     1 1.00
  0.120900D+00  0.100000D+01
   d     1 1.00
  0.109700D+01  0.100000D+01
   d     1 1.00
  0.318000D+00  0.100000D+01
   f     1 1.00
  0.761000D+00  0.100000D+01
  
  4  0
   s    10 1.00
  0.823600D+04  0.531000D-03
  0.123500D+04  0.410800D-02
  0.280800D+03  0.210870D-01
  0.792700D+02  0.818530D-01
  0.255900D+02  0.234817D+00
  0.899700D+01  0.434401D+00
  0.331900D+01  0.346129D+00
  0.905900D+00  0.393780D-01
  0.364300D+00 -0.898300D-02
  0.128500D+00  0.238500D-02
   s    10 1.00
  0.823600D+04 -0.113000D-03
  0.123500D+04 -0.878000D-03
  0.280800D+03 -0.454000D-02
  0.792700D+02 -0.181330D-01
  0.255900D+02 -0.557600D-01
  0.899700D+01 -0.126895D+00
  0.331900D+01 -0.170352D+00
  0.905900D+00  0.140382D+00
  0.364300D+00  0.598684D+00
  0.128500D+00  0.395389D+00
   s     1 1.00
  0.905900D+00  0.100000D+01
   s     1 1.00
  0.364300D+00  0.100000D+01
   p     5 1.00
  0.187100D+02  0.140310D-01
  0.413300D+01  0.868660D-01
  0.120000D+01  0.290216D+00
  0.382700D+00  0.501008D+00
  0.120900D+00  0.343406D+00
   p     1 1.00
  0.382700D+00  0.100000D+01
   p     1 1.00
  0.120900D+00  0.100000D+01
   d     1 1.00
  0.109700D+01  0.100000D+01
   d     1 1.00
  0.318000D+00  0.100000D+01
   f     1 1.00
  0.761000D+00  0.100000D+01
  
  5  0
   s    10 1.00
  0.823600D+04  0.531000D-03
  0.123500D+04  0.410800D-02
  0.280800D+03  0.210870D-01
  0.792700D+02  0.818530D-01
  0.255900D+02  0.234817D+00
  0.899700D+01  0.434401D+00
  0.331900D+01  0.346129D+00
  0.905900D+00  0.393780D-01
  0.364300D+00 -0.898300D-02
  0.128500D+00  0.238500D-02
   s    10 1.00
  0.823600D+04 -0.113000D-03
  0.123500D+04 -0.878000D-03
  0.280800D+03 -0.454000D-02
  0.792700D+02 -0.181330D-01
  0.255900D+02 -0.557600D-01
  0.899700D+01 -0.126895D+00
  0.331900D+01 -0.170352D+00
  0.905900D+00  0.140382D+00
  0.364300D+00  0.598684D+00
  0.128500D+00  0.395389D+00
   s     1 1.00
  0.905900D+00  0.100000D+01
   s     1 1.00
  0.364300D+00  0.100000D+01
   p     5 1.00
  0.187100D+02  0.140310D-01
  0.413300D+01  0.868660D-01
  0.120000D+01  0.290216D+00
  0.382700D+00  0.501008D+00
  0.120900D+00  0.343406D+00
   p     1 1.00
  0.382700D+00  0.100000D+01
   p     1 1.00
  0.120900D+00  0.100000D+01
   d     1 1.00
  0.109700D+01  0.100000D+01
   d     1 1.00
  0.318000D+00  0.100000D+01
   f     1 1.00
  0.761000D+00  0.100000D+01
  
  6  0
   s    10 1.00
  0.823600D+04  0.531000D-03
  0.123500D+04  0.410800D-02
  0.280800D+03  0.210870D-01
  0.792700D+02  0.818530D-01
  0.255900D+02  0.234817D+00
  0.899700D+01  0.434401D+00
  0.331900D+01  0.346129D+00
  0.905900D+00  0.393780D-01
  0.364300D+00 -0.898300D-02
  0.128500D+00  0.238500D-02
   s    10 1.00
  0.823600D+04 -0.113000D-03
  0.123500D+04 -0.878000D-03
  0.280800D+03 -0.454000D-02
  0.792700D+02 -0.181330D-01
  0.255900D+02 -0.557600D-01
  0.899700D+01 -0.126895D+00
  0.331900D+01 -0.170352D+00
  0.905900D+00  0.140382D+00
  0.364300D+00  0.598684D+00
  0.128500D+00  0.395389D+00
   s     1 1.00
  0.905900D+00  0.100000D+01
   s     1 1.00
  0.364300D+00  0.100000D+01
   p     5 1.00
  0.187100D+02  0.140310D-01
  0.413300D+01  0.868660D-01
  0.120000D+01  0.290216D+00
  0.382700D+00  0.501008D+00
  0.120900D+00  0.343406D+00
   p     1 1.00
  0.382700D+00  0.100000D+01
   p     1 1.00
  0.120900D+00  0.100000D+01
   d     1 1.00
  0.109700D+01  0.100000D+01
   d     1 1.00
  0.318000D+00  0.100000D+01
   f     1 1.00
  0.761000D+00  0.100000D+01
  
  7  0
   s    10 1.00
  0.823600D+04  0.531000D-03
  0.123500D+04  0.410800D-02
  0.280800D+03  0.210870D-01
  0.792700D+02  0.818530D-01
  0.255900D+02  0.234817D+00
  0.899700D+01  0.434401D+00
  0.331900D+01  0.346129D+00
  0.905900D+00  0.393780D-01
  0.364300D+00 -0.898300D-02
  0.128500D+00  0.238500D-02
   s    10 1.00
  0.823600D+04 -0.113000D-03
  0.123500D+04 -0.878000D-03
  0.280800D+03 -0.454000D-02
  0.792700D+02 -0.181330D-01
  0.255900D+02 -0.557600D-01
  0.899700D+01 -0.126895D+00
  0.331900D+01 -0.170352D+00
  0.905900D+00  0.140382D+00
  0.364300D+00  0.598684D+00
  0.128500D+00  0.395389D+00
   s     1 1.00
  0.905900D+00  0.100000D+01
   s     1 1.00
  0.364300D+00  0.100000D+01
   p     5 1.00
  0.187100D+02  0.140310D-01
  0.413300D+01  0.868660D-01
  0.120000D+01  0.290216D+00
  0.382700D+00  0.501008D+00
  0.120900D+00  0.343406D+00
   p     1 1.00
  0.382700D+00  0.100000D+01
   p     1 1.00
  0.120900D+00  0.100000D+01
   d     1 1.00
  0.109700D+01  0.100000D+01
   d     1 1.00
  0.318000D+00  0.100000D+01
   f     1 1.00
  0.761000D+00  0.100000D+01
  
  8  0
   s     4 1.00
  0.130100D+02  0.196850D-01
  0.196200D+01  0.137977D+00
  0.444600D+00  0.478148D+00
  0.122000D+00  0.501240D+00
   s     1 1.00
  0.122000D+00  0.100000D+01
   p     1 1.00
  0.727000D+00  0.100000D+01
  
  9  0
   s     4 1.00
  0.130100D+02  0.196850D-01
  0.196200D+01  0.137977D+00
  0.444600D+00  0.478148D+00
  0.122000D+00  0.501240D+00
   s     1 1.00
  0.122000D+00  0.100000D+01
   p     1 1.00
  0.727000D+00  0.100000D+01
  
 10  0
   s     4 1.00
  0.130100D+02  0.196850D-01
  0.196200D+01  0.137977D+00
  0.444600D+00  0.478148D+00
  0.122000D+00  0.501240D+00
   s     1 1.00
  0.122000D+00  0.100000D+01
   p     1 1.00
  0.727000D+00  0.100000D+01
  
 11  0
   s     4 1.00
  0.130100D+02  0.196850D-01
  0.196200D+01  0.137977D+00
  0.444600D+00  0.478148D+00
  0.122000D+00  0.501240D+00
   s     1 1.00
  0.122000D+00  0.100000D+01
   p     1 1.00
  0.727000D+00  0.100000D+01
  
 12  0
   s     4 1.00
  0.130100D+02  0.196850D-01
  0.196200D+01  0.137977D+00
  0.444600D+00  0.478148D+00
  0.122000D+00  0.501240D+00
   s     1 1.00
  0.122000D+00  0.100000D+01
   p     1 1.00
  0.727000D+00  0.100000D+01
  
 13  0
   s     4 1.00
  0.130100D+02  0.196850D-01
  0.196200D+01  0.137977D+00
  0.444600D+00  0.478148D+00
  0.122000D+00  0.501240D+00
   s     1 1.00
  0.122000D+00  0.100000D+01
   p     1 1.00
  0.727000D+00  0.100000D+01
  
 14  0
   s     4 1.00
  0.130100D+02  0.196850D-01
  0.196200D+01  0.137977D+00
  0.444600D+00  0.478148D+00
  0.122000D+00  0.501240D+00
   s     1 1.00
  0.122000D+00  0.100000D+01
   p     1 1.00
  0.727000D+00  0.100000D+01
  
[MO]
 Sym= __1_A__
 Ene=   1.00000000000000     
 Spin= Alpha
 Occup=    1.00000000000000     
                     1  1.406697158656740E-004
                     2  0.998287134914532     
                     3 -3.958239906508420E-003
                     4  1.953192170918079E-003
                     5  6.149269715091673E-003
                     6  4.532384843627636E-003
                     7 -3.757738638383212E-003
                     8 -1.483023898826154E-009
                     9 -5.559730826335882E-004
                    10  3.558884607961636E-004
                    11  6.901195924447528E-010
                    12 -1.390899765055000E-003
                    13  2.884244177644041E-003
                    14 -3.741355950867813E-009
                    15 -3.433095120763155E-005
                    16 -8.353322061785003E-010
                    17  1.800649835122277E-011
                    18  4.199680453681032E-005
                    19  3.352009247032127E-005
                    20 -1.975187378897342E-004
                    21  5.224139197910925E-009
                    22  2.388685696947261E-009
                    23 -1.078593185174666E-004
                    24 -3.718076330193015E-004
                    25  3.994202866775714E-009
                    26 -7.871203453080255E-005
                    27 -4.093009071706539E-005
                    28  5.838040210191978E-009
                    29 -1.164087689167053E-009
                    30 -4.293152040178938E-005
                    31 -3.767243147828968E-005
                    32 -2.524536255547110E-004
                    33  1.553874923049067E-004
                    34  1.392684315929202E-004
                    35  1.298445715915944E-004
                    36 -1.747527004209507E-003
                    37 -4.577718349139610E-005
                    38  1.990785992619170E-009
                    39 -3.193748109769862E-004
                    40  2.181636837763219E-005
                    41  1.384330818615852E-009
                    42  3.948544608544841E-003
                    43  6.884336873586303E-004
                    44  3.714098263893887E-008
                    45 -1.374339211831922E-004
                    46  1.006327700558620E-009
                    47  2.443563134636147E-011
                    48  1.268572135616327E-004
                    49  4.302829170106722E-005
                    50  2.527138253729100E-004
                    51 -2.279458105442818E-010
                    52 -5.128138655317654E-010
                    53  6.007076845552660E-005
                    54 -3.145093349122749E-004
                    55 -3.955678257803788E-009
                    56 -5.131912772658318E-005
                    57  5.965557760262326E-006
                    58 -3.119870226881190E-009
                    59  4.707079391508502E-010
                    60 -2.863478347510063E-005
                    61  3.797259904754635E-005
                    62 -3.073619987735584E-004
                    63 -1.122875924024075E-003
                    64  5.765007807405351E-005
                    65  7.822294577630887E-004
                    66 -2.364527446158344E-005
                    67 -8.719488244775685E-005
                    68 -2.072509064060156E-004
                    69  4.930318517305077E-004
                    70  7.017385909351881E-005
                    71  9.878271784272040E-005
                    72 -4.738392351064933E-004
                    73 -3.079436199551399E-004
                    74 -7.738697367264161E-004
                    75 -3.092298405828571E-005
                    76 -1.165091796183074E-005
                    77  1.729167439113811E-005
                    78  4.516968840040098E-005
                    79 -7.629608578851975E-006
                    80  1.420933519947627E-004
                    81  3.016335203255794E-005
                    82 -2.958305884607017E-005
                    83 -8.281857740084229E-005
                    84  4.393356290108095E-005
                    85 -1.721082469644242E-005
                    86 -6.388765628206481E-005
                    87  1.770067150526199E-005
                    88 -1.595976943843988E-005
                    89  1.151487444817009E-005
                    90 -4.546179922420684E-005
                    91 -9.178686473850128E-006
                    92 -3.073561881381602E-004
                    93 -1.122854324429995E-003
                    94  5.766664546065696E-005
                    95  7.821688227136386E-004
                    96 -2.363605076492961E-005
                    97 -8.719509284017554E-005
                    98  2.072509151942064E-004
                    99  4.929880006446276E-004
                   100  7.017428435443138E-005
                   101 -9.878448975529111E-005
                   102 -4.737665993095932E-004
                   103 -3.079438536057467E-004
                   104  7.738213583342525E-004
                   105 -3.092087323166181E-005
                   106  1.165223633358383E-005
                   107 -1.729158529865302E-005
                   108  4.516625058369422E-005
                   109 -7.629565052641129E-006
                   110  1.421150265263352E-004
                   111 -3.018344926737913E-005
                   112  2.958301998411873E-005
                   113 -8.284630437622891E-005
                   114  4.393345156173270E-005
                   115  1.721331397159483E-005
                   116 -6.388200627860944E-005
                   117  1.770050275773959E-005
                   118  1.596112147376158E-005
                   119 -1.151486513156532E-005
                   120 -4.545682642284850E-005
                   121 -9.178625219053570E-006
                   122 -1.497477591326874E-004
                   123 -4.171105361029297E-004
                   124  4.596762317614898E-005
                   125  4.539425767383867E-004
                   126 -1.415778640147378E-004
                   127 -1.748883432123758E-005
                   128 -9.067987384604596E-006
                   129  1.893993723242132E-004
                   130 -1.937178199133114E-005
                   131  7.817232306433659E-005
                   132  6.841062595765554E-004
                   133  1.290790424466770E-004
                   134 -2.756733958495779E-004
                   135  1.211323552079574E-005
                   136 -6.863522223905036E-006
                   137 -2.823754069721803E-006
                   138 -5.587972362971452E-006
                   139  8.644558921229100E-006
                   140  7.086092418595661E-005
                   141  1.271270591301803E-004
                   142  7.378637389278603E-006
                   143 -1.783096505975365E-004
                   144 -1.315744156633753E-005
                   145 -3.938017879899980E-006
                   146 -1.944467889389711E-005
                   147  2.581993285867374E-006
                   148  4.907521431862804E-006
                   149 -2.278542677896405E-006
                   150 -4.429794842874171E-005
                   151 -1.873935331351630E-006
                   152 -1.498282433368796E-004
                   153 -4.173897594301164E-004
                   154  4.591275500387930E-005
                   155  4.543569015455953E-004
                   156 -1.415798459830673E-004
                   157 -1.748879362790015E-005
                   158  9.077627360396551E-006
                   159  1.893949921841707E-004
                   160 -1.937182478943643E-005
                   161 -7.823271266196272E-005
                   162  6.841685113866611E-004
                   163  1.290788862019565E-004
                   164  2.757257163995522E-004
                   165  1.211703672686854E-005
                   166  6.862217272612125E-006
                   167  2.823406360020724E-006
                   168 -5.579208408781406E-006
                   169  8.644446129145808E-006
                   170  7.086853747123070E-005
                   171 -1.271649396102834E-004
                   172 -7.378221695343774E-006
                   173 -1.783012369523503E-004
                   174 -1.315759417904361E-005
                   175  3.937943468134924E-006
                   176 -1.943188476969720E-005
                   177  2.581957923059965E-006
                   178 -4.909435759765374E-006
                   179  2.278573366282628E-006
                   180 -4.429476312972118E-005
                   181 -1.873933836979323E-006
                   182 -8.230862578362984E-005
                   183 -2.437507841299170E-004
                   184  2.601789996771740E-005
                   185  8.387634111844097E-005
                   186 -3.827987813224952E-005
                   187 -1.733003498498938E-005
                   188  1.289134053656955E-008
                   189  1.022220973858165E-004
                   190  2.081674609395708E-005
                   191 -6.979237224459068E-008
                   192 -3.437320377524968E-004
                   193 -9.045381897961450E-005
                   194 -2.235754509098277E-008
                   195 -3.891897532182308E-006
                   196  4.061632158079703E-009
                   197 -3.250374491237270E-011
                   198  1.483988094332813E-006
                   199 -2.704788070283490E-006
                   200 -9.361172221491069E-005
                   201  3.355306946615777E-008
                   202  7.589124297666908E-011
                   203  3.443571470670556E-005
                   204  1.489169694092560E-005
                   205  3.103235334329575E-009
                   206  6.712283654173191E-006
                   207  3.403615885660092E-006
                   208 -2.824716283397818E-009
                   209  1.320730468284948E-011
                   210 -4.829455858413459E-006
                   211 -2.298167590226252E-006
                   212 -2.275593506291811E-004
                   213 -7.074761309074541E-004
                   214  7.038424022036215E-005
                   215  1.666601656794525E-004
                   216  1.266157385665235E-004
                   217 -2.275493063892763E-004
                   218 -7.074825608050635E-004
                   219  7.038730619174568E-005
                   220  1.666613762906022E-004
                   221 -1.266184417517882E-004
                   222 -1.336133328305848E-004
                   223 -4.092581339423230E-004
                   224 -4.847619083742079E-005
                   225  8.104180328093499E-006
                   226  4.675524426050663E-005
                   227 -1.336209733104791E-004
                   228 -4.092112397721395E-004
                   229 -4.847738877759816E-005
                   230  8.104183856239251E-006
                   231 -4.675579322699543E-005
                   232  2.964899589127947E-005
                   233 -4.223095981324213E-004
                   234  5.114946567551502E-007
                   235 -1.387607425398764E-006
                   236  3.578017231758878E-006
                   237  2.964079941303410E-005
                   238 -4.223302288833979E-004
                   239  5.188384887180325E-007
                   240 -1.387662692258123E-006
                   241 -3.571762489835355E-006
                   242 -3.981157874311079E-005
                   243  1.071123829697718E-004
                   244  2.476264813584475E-005
                   245  1.723982749823032E-006
                   246 -3.382236388361698E-009
 Sym= __2_A__
 Ene=   2.00000000000000     
 Spin= Alpha
 Occup=    1.00000000000000     
                     1 -2.746803255539270E-005
                     2 -8.484503337089062E-005
                     3  1.730121320828197E-003
                     4 -4.444716788527845E-005
                     5  1.212943657910652E-003
                     6  1.946881280308355E-003
                     7  1.292621231889848E-004
                     8  3.144620945871237E-009
                     9 -1.790936013796640E-004
                    10  9.276426303002764E-005
                    11 -2.326514664011051E-009
                    12  7.736663526006626E-005
                    13  2.432649951138284E-005
                    14  3.793930631239237E-009
                    15 -7.849703874944680E-005
                    16  6.219647179124693E-010
                    17 -2.896058604926010E-011
                    18  4.514718062999588E-005
                    19 -3.794795163135944E-006
                    20  1.861093098390041E-004
                    21 -5.114932591862752E-009
                    22 -2.241108690603080E-009
                    23  1.079612799250490E-004
                    24 -4.628486485110563E-005
                    25 -3.172741280797459E-009
                    26  1.418946595129368E-004
                    27 -5.501686908652070E-005
                    28 -5.247221051657348E-009
                    29  1.006113161102074E-009
                    30  1.282024351898009E-004
                    31  2.800952874487362E-005
                    32   1.00097190409742     
                    33  8.751148093594046E-003
                    34  2.867357286903106E-003
                    35 -8.293419194413962E-003
                    36 -2.866079934104117E-003
                    37  5.509605478611100E-004
                    38 -4.877142496252090E-009
                    39  1.522876419996402E-003
                    40 -2.374252752718311E-004
                    41  4.759739355526413E-010
                    42  3.482834980684166E-003
                    43 -1.351118681542349E-004
                    44 -5.100105767506050E-008
                    45  3.197462688304692E-004
                    46 -1.469579089210043E-009
                    47  4.242445220347946E-011
                    48  3.897401154843790E-004
                    49 -1.210389333219198E-005
                    50 -1.120785412857562E-003
                    51  4.184440542549327E-010
                    52  3.020423860951979E-010
                    53 -1.068410306287323E-004
                    54  2.043011370780162E-005
                    55  3.391157109469258E-009
                    56  3.090836250179251E-004
                    57 -9.319443801491908E-006
                    58  2.073941459607392E-009
                    59 -3.541142318169556E-010
                    60  5.665873041945880E-005
                    61  1.041691422250973E-005
                    62  1.141585902105456E-002
                    63 -1.863921885402622E-003
                    64 -3.168687843879802E-004
                    65  3.181487270339542E-003
                    66 -1.809387612158776E-004
                    67  7.632686948173114E-005
                    68  2.904767140128398E-004
                    69 -2.237088600277473E-005
                    70  9.819457327610056E-006
                    71  4.718720121283682E-004
                    72  1.659878583813109E-004
                    73 -1.696145140053525E-005
                    74 -1.861246814410712E-003
                    75 -8.039257734087047E-006
                    76  3.123361904702145E-005
                    77  5.689496153922445E-006
                    78 -3.960324550593034E-005
                    79 -3.334053112473260E-006
                    80 -4.727656299760217E-004
                    81 -5.332258023627509E-004
                    82  8.690703813410240E-006
                    83  7.941553720763728E-004
                    84 -9.084933934805708E-006
                    85  5.945186640629930E-005
                    86  9.679535934288428E-005
                    87  1.390657178099136E-006
                    88 -1.260614609999779E-005
                    89 -5.439252713719080E-006
                    90 -2.767914040634990E-005
                    91  3.686174066643245E-006
                    92  1.141585090449195E-002
                    93 -1.863968145746648E-003
                    94 -3.168946204979022E-004
                    95  3.181598693761841E-003
                    96 -1.809531597993932E-004
                    97  7.632697830906696E-005
                    98 -2.904767158738225E-004
                    99 -2.230235443431389E-005
                   100  9.819243783153944E-006
                   101 -4.718728554019289E-004
                   102  1.658841208371512E-004
                   103 -1.696116285769392E-005
                   104  1.861323532312175E-003
                   105 -8.042574601362781E-006
                   106 -3.123662611966372E-005
                   107 -5.689571337205728E-006
                   108 -3.959631476272228E-005
                   109 -3.334109078948589E-006
                   110 -4.727945035600753E-004
                   111  5.332560423082487E-004
                   112 -8.690732882428806E-006
                   113  7.941855425551686E-004
                   114 -9.084841052224481E-006
                   115 -5.945289922806835E-005
                   116  9.678790823714237E-005
                   117  1.390781155358691E-006
                   118  1.260548889048139E-005
                   119  5.439286373315950E-006
                   120 -2.768556539696562E-005
                   121  3.686126406676459E-006
                   122 -1.875985922909725E-004
                   123 -7.247672139796380E-004
                   124  2.580752977916048E-004
                   125 -3.504195801077309E-004
                   126 -1.537570560649877E-004
                   127  1.552234203766998E-005
                   128 -5.341422664928894E-005
                   129  5.871558781547954E-004
                   130 -4.271999440881855E-006
                   131  6.287980002438848E-005
                   132  5.338358500851542E-004
                   133 -1.818854895437339E-007
                   134  3.818084592307410E-004
                   135  2.245293211782535E-008
                   136  4.264123020301639E-005
                   137  2.360791301164604E-007
                   138 -3.523767508679364E-005
                   139 -6.394832006432237E-007
                   140  2.098092561514141E-004
                   141 -3.063851631288232E-004
                   142 -7.629288852576056E-007
                   143 -2.729720928725462E-004
                   144 -6.404448534967613E-007
                   145 -1.580982605100601E-005
                   146  6.303403057829420E-006
                   147  2.706476827790666E-008
                   148 -1.049179466373786E-005
                   149 -8.508451973150467E-007
                   150 -2.412671222442661E-005
                   151 -1.053065976472402E-006
                   152 -1.874171860782803E-004
                   153 -7.241594617366131E-004
                   154  2.581270233126715E-004
                   155 -3.511003447571974E-004
                   156 -1.537570073681375E-004
                   157  1.552230950926596E-005
                   158  5.340491619941535E-005
                   159  5.871730755615066E-004
                   160 -4.271970707567473E-006