[Molden Format]
[Atoms] AU
  N     1    7    -4.4698667800    0.1414553700    0.0000000000        
  C     2    6    -1.7663812700    0.0042993000    0.0000000000        
  C     3    6    -0.4409178200    0.0035752700   -2.2674809000        
  C     4    6    -0.4409178200    0.0035752700    2.2674809000        
  C     5    6     2.2049318400   -0.0016722100   -2.2625113700        
  C     6    6     2.2049318400   -0.0016722100    2.2625113700        
  C     7    6     3.5291861200   -0.0041302000    0.0000000000        
  H     8    1    -5.2452362900   -0.7091996300   -1.5675329200        
  H     9    1    -5.2452362900   -0.7091996300    1.5675329200        
  H    10    1    -1.4442330400    0.0160151700   -4.0314227600        
  H    11    1    -1.4442330400    0.0160151700    4.0314227600        
  H    12    1     3.2030294600   -0.0071247000   -4.0293732300        
  H    13    1     3.2030294600   -0.0071247000    4.0293732300        
  H    14    1     5.5578190400   -0.0125884400    0.0000000000        
[5D]
[7F]
[GTO]
  1  0
   s    12 1.00
  0.114200D+05  0.172695D-04
  0.171200D+04  0.134411D-03
  0.389300D+03  0.694561D-03
  0.110000D+03  0.278531D-02
  0.355700D+02  0.863457D-02
  0.125400D+02  0.199805D-01
  0.464400D+01  0.262908D-01
  0.129300D+01 -0.243845D-01
  0.511800D+00 -0.924934D-01
  0.178700D+00 -0.339683D+00
  0.246240D-01  0.345111D+00
  0.112530D-01  0.752750D+00
   s    10 1.00
  0.114200D+05  0.523000D-03
  0.171200D+04  0.404500D-02
  0.389300D+03  0.207750D-01
  0.110000D+03  0.807269D-01
  0.355700D+02  0.233074D+00
  0.125400D+02  0.433501D+00
  0.464400D+01  0.347472D+00
  0.129300D+01  0.412620D-01
  0.511800D+00 -0.850799D-02
  0.178700D+00  0.238400D-02
   s    10 1.00
  0.114200D+05 -0.115000D-03
  0.171200D+04 -0.895000D-03
  0.389300D+03 -0.462400D-02
  0.110000D+03 -0.185280D-01
  0.355700D+02 -0.573390D-01
  0.125400D+02 -0.132076D+00
  0.464400D+01 -0.172510D+00
  0.129300D+01  0.151814D+00
  0.511800D+00  0.599944D+00
  0.178700D+00  0.387462D+00
   s     1 1.00
  0.129300D+01  0.100000D+01
   s     1 1.00
  0.178700D+00  0.100000D+01
   p     5 1.00
  0.266300D+02  0.146700D-01
  0.594800D+01  0.917640D-01
  0.174200D+01  0.298683D+00
  0.555000D+00  0.498487D+00
  0.172500D+00  0.337023D+00
   p     1 1.00
  0.174200D+01  0.100000D+01
   p     1 1.00
  0.555000D+00  0.100000D+01
   d     1 1.00
  0.165400D+01  0.100000D+01
   d     1 1.00
  0.469000D+00  0.100000D+01
   f     1 1.00
  0.109300D+01  0.100000D+01
  
  2  0
   s    10 1.00
  0.823600D+04  0.531000D-03
  0.123500D+04  0.410800D-02
  0.280800D+03  0.210870D-01
  0.792700D+02  0.818530D-01
  0.255900D+02  0.234817D+00
  0.899700D+01  0.434401D+00
  0.331900D+01  0.346129D+00
  0.905900D+00  0.393780D-01
  0.364300D+00 -0.898300D-02
  0.128500D+00  0.238500D-02
   s    10 1.00
  0.823600D+04 -0.113000D-03
  0.123500D+04 -0.878000D-03
  0.280800D+03 -0.454000D-02
  0.792700D+02 -0.181330D-01
  0.255900D+02 -0.557600D-01
  0.899700D+01 -0.126895D+00
  0.331900D+01 -0.170352D+00
  0.905900D+00  0.140382D+00
  0.364300D+00  0.598684D+00
  0.128500D+00  0.395389D+00
   s     1 1.00
  0.905900D+00  0.100000D+01
   s     1 1.00
  0.364300D+00  0.100000D+01
   p     5 1.00
  0.187100D+02  0.140310D-01
  0.413300D+01  0.868660D-01
  0.120000D+01  0.290216D+00
  0.382700D+00  0.501008D+00
  0.120900D+00  0.343406D+00
   p     1 1.00
  0.382700D+00  0.100000D+01
   p     1 1.00
  0.120900D+00  0.100000D+01
   d     1 1.00
  0.109700D+01  0.100000D+01
   d     1 1.00
  0.318000D+00  0.100000D+01
   f     1 1.00
  0.761000D+00  0.100000D+01
  
  3  0
   s    10 1.00
  0.823600D+04  0.531000D-03
  0.123500D+04  0.410800D-02
  0.280800D+03  0.210870D-01
  0.792700D+02  0.818530D-01
  0.255900D+02  0.234817D+00
  0.899700D+01  0.434401D+00
  0.331900D+01  0.346129D+00
  0.905900D+00  0.393780D-01
  0.364300D+00 -0.898300D-02
  0.128500D+00  0.238500D-02
   s    10 1.00
  0.823600D+04 -0.113000D-03
  0.123500D+04 -0.878000D-03
  0.280800D+03 -0.454000D-02
  0.792700D+02 -0.181330D-01
  0.255900D+02 -0.557600D-01
  0.899700D+01 -0.126895D+00
  0.331900D+01 -0.170352D+00
  0.905900D+00  0.140382D+00
  0.364300D+00  0.598684D+00
  0.128500D+00  0.395389D+00
   s     1 1.00
  0.905900D+00  0.100000D+01
   s     1 1.00
  0.364300D+00  0.100000D+01
   p     5 1.00
  0.187100D+02  0.140310D-01
  0.413300D+01  0.868660D-01
  0.120000D+01  0.290216D+00
  0.382700D+00  0.501008D+00
  0.120900D+00  0.343406D+00
   p     1 1.00
  0.382700D+00  0.100000D+01
   p     1 1.00
  0.120900D+00  0.100000D+01
   d     1 1.00
  0.109700D+01  0.100000D+01
   d     1 1.00
  0.318000D+00  0.100000D+01
   f     1 1.00
  0.761000D+00  0.100000D+01
  
  4  0
   s    10 1.00
  0.823600D+04  0.531000D-03
  0.123500D+04  0.410800D-02
  0.280800D+03  0.210870D-01
  0.792700D+02  0.818530D-01
  0.255900D+02  0.234817D+00
  0.899700D+01  0.434401D+00
  0.331900D+01  0.346129D+00
  0.905900D+00  0.393780D-01
  0.364300D+00 -0.898300D-02
  0.128500D+00  0.238500D-02
   s    10 1.00
  0.823600D+04 -0.113000D-03
  0.123500D+04 -0.878000D-03
  0.280800D+03 -0.454000D-02
  0.792700D+02 -0.181330D-01
  0.255900D+02 -0.557600D-01
  0.899700D+01 -0.126895D+00
  0.331900D+01 -0.170352D+00
  0.905900D+00  0.140382D+00
  0.364300D+00  0.598684D+00
  0.128500D+00  0.395389D+00
   s     1 1.00
  0.905900D+00  0.100000D+01
   s     1 1.00
  0.364300D+00  0.100000D+01
   p     5 1.00
  0.187100D+02  0.140310D-01
  0.413300D+01  0.868660D-01
  0.120000D+01  0.290216D+00
  0.382700D+00  0.501008D+00
  0.120900D+00  0.343406D+00
   p     1 1.00
  0.382700D+00  0.100000D+01
   p     1 1.00
  0.120900D+00  0.100000D+01
   d     1 1.00
  0.109700D+01  0.100000D+01
   d     1 1.00
  0.318000D+00  0.100000D+01
   f     1 1.00
  0.761000D+00  0.100000D+01
  
  5  0
   s    10 1.00
  0.823600D+04  0.531000D-03
  0.123500D+04  0.410800D-02
  0.280800D+03  0.210870D-01
  0.792700D+02  0.818530D-01
  0.255900D+02  0.234817D+00
  0.899700D+01  0.434401D+00
  0.331900D+01  0.346129D+00
  0.905900D+00  0.393780D-01
  0.364300D+00 -0.898300D-02
  0.128500D+00  0.238500D-02
   s    10 1.00
  0.823600D+04 -0.113000D-03
  0.123500D+04 -0.878000D-03
  0.280800D+03 -0.454000D-02
  0.792700D+02 -0.181330D-01
  0.255900D+02 -0.557600D-01
  0.899700D+01 -0.126895D+00
  0.331900D+01 -0.170352D+00
  0.905900D+00  0.140382D+00
  0.364300D+00  0.598684D+00
  0.128500D+00  0.395389D+00
   s     1 1.00
  0.905900D+00  0.100000D+01
   s     1 1.00
  0.364300D+00  0.100000D+01
   p     5 1.00
  0.187100D+02  0.140310D-01
  0.413300D+01  0.868660D-01
  0.120000D+01  0.290216D+00
  0.382700D+00  0.501008D+00
  0.120900D+00  0.343406D+00
   p     1 1.00
  0.382700D+00  0.100000D+01
   p     1 1.00
  0.120900D+00  0.100000D+01
   d     1 1.00
  0.109700D+01  0.100000D+01
   d     1 1.00
  0.318000D+00  0.100000D+01
   f     1 1.00
  0.761000D+00  0.100000D+01
  
  6  0
   s    10 1.00
  0.823600D+04  0.531000D-03
  0.123500D+04  0.410800D-02
  0.280800D+03  0.210870D-01
  0.792700D+02  0.818530D-01
  0.255900D+02  0.234817D+00
  0.899700D+01  0.434401D+00
  0.331900D+01  0.346129D+00
  0.905900D+00  0.393780D-01
  0.364300D+00 -0.898300D-02
  0.128500D+00  0.238500D-02
   s    10 1.00
  0.823600D+04 -0.113000D-03
  0.123500D+04 -0.878000D-03
  0.280800D+03 -0.454000D-02
  0.792700D+02 -0.181330D-01
  0.255900D+02 -0.557600D-01
  0.899700D+01 -0.126895D+00
  0.331900D+01 -0.170352D+00
  0.905900D+00  0.140382D+00
  0.364300D+00  0.598684D+00
  0.128500D+00  0.395389D+00
   s     1 1.00
  0.905900D+00  0.100000D+01
   s     1 1.00
  0.364300D+00  0.100000D+01
   p     5 1.00
  0.187100D+02  0.140310D-01
  0.413300D+01  0.868660D-01
  0.120000D+01  0.290216D+00
  0.382700D+00  0.501008D+00
  0.120900D+00  0.343406D+00
   p     1 1.00
  0.382700D+00  0.100000D+01
   p     1 1.00
  0.120900D+00  0.100000D+01
   d     1 1.00
  0.109700D+01  0.100000D+01
   d     1 1.00
  0.318000D+00  0.100000D+01
   f     1 1.00
  0.761000D+00  0.100000D+01
  
  7  0
   s    10 1.00
  0.823600D+04  0.531000D-03
  0.123500D+04  0.410800D-02
  0.280800D+03  0.210870D-01
  0.792700D+02  0.818530D-01
  0.255900D+02  0.234817D+00
  0.899700D+01  0.434401D+00
  0.331900D+01  0.346129D+00
  0.905900D+00  0.393780D-01
  0.364300D+00 -0.898300D-02
  0.128500D+00  0.238500D-02
   s    10 1.00
  0.823600D+04 -0.113000D-03
  0.123500D+04 -0.878000D-03
  0.280800D+03 -0.454000D-02
  0.792700D+02 -0.181330D-01
  0.255900D+02 -0.557600D-01
  0.899700D+01 -0.126895D+00
  0.331900D+01 -0.170352D+00
  0.905900D+00  0.140382D+00
  0.364300D+00  0.598684D+00
  0.128500D+00  0.395389D+00
   s     1 1.00
  0.905900D+00  0.100000D+01
   s     1 1.00
  0.364300D+00  0.100000D+01
   p     5 1.00
  0.187100D+02  0.140310D-01
  0.413300D+01  0.868660D-01
  0.120000D+01  0.290216D+00
  0.382700D+00  0.501008D+00
  0.120900D+00  0.343406D+00
   p     1 1.00
  0.382700D+00  0.100000D+01
   p     1 1.00
  0.120900D+00  0.100000D+01
   d     1 1.00
  0.109700D+01  0.100000D+01
   d     1 1.00
  0.318000D+00  0.100000D+01
   f     1 1.00
  0.761000D+00  0.100000D+01
  
  8  0
   s     4 1.00
  0.130100D+02  0.196850D-01
  0.196200D+01  0.137977D+00
  0.444600D+00  0.478148D+00
  0.122000D+00  0.501240D+00
   s     1 1.00
  0.122000D+00  0.100000D+01
   p     1 1.00
  0.727000D+00  0.100000D+01
  
  9  0
   s     4 1.00
  0.130100D+02  0.196850D-01
  0.196200D+01  0.137977D+00
  0.444600D+00  0.478148D+00
  0.122000D+00  0.501240D+00
   s     1 1.00
  0.122000D+00  0.100000D+01
   p     1 1.00
  0.727000D+00  0.100000D+01
  
 10  0
   s     4 1.00
  0.130100D+02  0.196850D-01
  0.196200D+01  0.137977D+00
  0.444600D+00  0.478148D+00
  0.122000D+00  0.501240D+00
   s     1 1.00
  0.122000D+00  0.100000D+01
   p     1 1.00
  0.727000D+00  0.100000D+01
  
 11  0
   s     4 1.00
  0.130100D+02  0.196850D-01
  0.196200D+01  0.137977D+00
  0.444600D+00  0.478148D+00
  0.122000D+00  0.501240D+00
   s     1 1.00
  0.122000D+00  0.100000D+01
   p     1 1.00
  0.727000D+00  0.100000D+01
  
 12  0
   s     4 1.00
  0.130100D+02  0.196850D-01
  0.196200D+01  0.137977D+00
  0.444600D+00  0.478148D+00
  0.122000D+00  0.501240D+00
   s     1 1.00
  0.122000D+00  0.100000D+01
   p     1 1.00
  0.727000D+00  0.100000D+01
  
 13  0
   s     4 1.00
  0.130100D+02  0.196850D-01
  0.196200D+01  0.137977D+00
  0.444600D+00  0.478148D+00
  0.122000D+00  0.501240D+00
   s     1 1.00
  0.122000D+00  0.100000D+01
   p     1 1.00
  0.727000D+00  0.100000D+01
  
 14  0
   s     4 1.00
  0.130100D+02  0.196850D-01
  0.196200D+01  0.137977D+00
  0.444600D+00  0.478148D+00
  0.122000D+00  0.501240D+00
   s     1 1.00
  0.122000D+00  0.100000D+01
   p     1 1.00
  0.727000D+00  0.100000D+01
  
[MO]
 Sym= __1_A__
 Ene=  0.000000000000000E+000
 Spin= Alpha
 Occup=    2.00000000000000     
                     1  1.406697158687023E-004
                     2  0.998287134914528     
                     3 -3.958239906481953E-003
                     4  1.953192170917673E-003
                     5  6.149269715065762E-003
                     6  4.532384843621750E-003
                     7 -3.757738638366778E-003
                     8 -1.483014808501092E-009
                     9 -5.559730826276232E-004
                    10  3.558884607928695E-004
                    11  6.901197495717382E-010
                    12 -1.390899765054530E-003
                    13  2.884244177641579E-003
                    14 -3.741353949789374E-009
                    15 -3.433095120786978E-005
                    16 -8.353279185506361E-010
                    17  1.800720335840912E-011
                    18  4.199680453800808E-005
                    19  3.352009247062150E-005
                    20 -1.975187378937888E-004
                    21  5.224156094508452E-009
                    22  2.388685038638613E-009
                    23 -1.078593185135453E-004
                    24 -3.718076330203178E-004
                    25  3.994204821197977E-009
                    26 -7.871203453057202E-005
                    27 -4.093009071701218E-005
                    28  5.838042756731618E-009
                    29 -1.164088552126530E-009
                    30 -4.293152040228138E-005
                    31 -3.767243147831566E-005
                    32 -2.524536257673452E-004
                    33  1.553874930517912E-004
                    34  1.392684315845191E-004
                    35  1.298445715629359E-004
                    36 -1.747527003915133E-003
                    37 -4.577718347976973E-005
                    38  1.991505919998672E-009
                    39 -3.193748109906331E-004
                    40  2.181636837685275E-005
                    41  1.384296905180403E-009
                    42  3.948544608553681E-003
                    43  6.884336873600870E-004
                    44  3.714084327658262E-008
                    45 -1.374339211664596E-004
                    46  1.006347332650514E-009
                    47  2.443611716863393E-011
                    48  1.268572135659319E-004
                    49  4.302829170119625E-005
                    50  2.527138253919809E-004
                    51 -2.279103390581633E-010
                    52 -5.128158556600049E-010
                    53  6.007076846779988E-005
                    54 -3.145093349115629E-004
                    55 -3.955683364561242E-009
                    56 -5.131912771305808E-005
                    57  5.965557760413860E-006
                    58 -3.119865750459124E-009
                    59  4.707077971841044E-010
                    60 -2.863478347471085E-005
                    61  3.797259904806899E-005
                    62 -3.073619979778226E-004
                    63 -1.122875923994561E-003
                    64  5.765007807722916E-005
                    65  7.822294577792134E-004
                    66 -2.364527436596361E-005
                    67 -8.719488244143921E-005
                    68 -2.072509065009953E-004
                    69  4.930318517461861E-004
                    70  7.017385909209764E-005
                    71  9.878271785888082E-005
                    72 -4.738392351228357E-004
                    73 -3.079436199549920E-004
                    74 -7.738697368152792E-004
                    75 -3.092298405373172E-005
                    76 -1.165091795555009E-005
                    77  1.729167439133370E-005
                    78  4.516968840001520E-005
                    79 -7.629608578919607E-006
                    80  1.420933519957409E-004
                    81  3.016335202966075E-005
                    82 -2.958305884650242E-005
                    83 -8.281857739724294E-005
                    84  4.393356290135520E-005
                    85 -1.721082469863952E-005
                    86 -6.388765628304601E-005
                    87  1.770067150526042E-005
                    88 -1.595976944093177E-005
                    89  1.151487444827000E-005
                    90 -4.546179922623174E-005
                    91 -9.178686473829640E-006
                    92 -3.073561890233976E-004
                    93 -1.122854324180718E-003
                    94  5.766664545629952E-005
                    95  7.821688227043794E-004
                    96 -2.363605137182373E-005
                    97 -8.719509283232510E-005
                    98  2.072509144584376E-004
                    99  4.929880007070053E-004
                   100  7.017428435529386E-005
                   101 -9.878448968389176E-005
                   102 -4.737665991256444E-004
                   103 -3.079438536076064E-004
                   104  7.738213585313721E-004
                   105 -3.092087321333607E-005
                   106  1.165223635986248E-005
                   107 -1.729158529902186E-005
                   108  4.516625057934544E-005
                   109 -7.629565052751475E-006
                   110  1.421150265386202E-004
                   111 -3.018344924911977E-005
                   112  2.958301998392662E-005
                   113 -8.284630436615375E-005
                   114  4.393345156157156E-005
                   115  1.721331397452952E-005
                   116 -6.388200628685028E-005
                   117  1.770050275786321E-005
                   118  1.596112146849456E-005
                   119 -1.151486513142243E-005
                   120 -4.545682641977252E-005
                   121 -9.178625218967430E-006
                   122 -1.497477575697986E-004
                   123 -4.171105360223337E-004
                   124  4.596762318366465E-005
                   125  4.539425767279086E-004
                   126 -1.415778640478489E-004
                   127 -1.748883432103977E-005
                   128 -9.067987363506146E-006
                   129  1.893993723368410E-004
                   130 -1.937178199116889E-005
                   131  7.817232307188393E-005
                   132  6.841062596358577E-004
                   133  1.290790424452989E-004
                   134 -2.756733958217350E-004
                   135  1.211323551924663E-005
                   136 -6.863522221437458E-006
                   137 -2.823754069759683E-006
                   138 -5.587972359668988E-006
                   139  8.644558921060081E-006
                   140  7.086092419296664E-005
                   141  1.271270591306743E-004
                   142  7.378637389313497E-006
                   143 -1.783096506010181E-004
                   144 -1.315744156635614E-005
                   145 -3.938017879397886E-006
                   146 -1.944467889233320E-005
                   147  2.581993285843163E-006
                   148  4.907521432770786E-006
                   149 -2.278542677942542E-006
                   150 -4.429794842888640E-005
                   151 -1.873935331307575E-006
                   152 -1.498282448916329E-004
                   153 -4.173897598243404E-004
                   154  4.591275501102805E-005
                   155  4.543569015811600E-004
                   156 -1.415798456823470E-004
                   157 -1.748879362818915E-005
                   158  9.077627440455718E-006
                   159  1.893949921788165E-004
                   160 -1.937182478954306E-005
                   161 -7.823271266907046E-005
                   162  6.841685114060963E-004
                   163  1.290788862021144E-004
                   164  2.757257164249423E-004
                   165  1.211703673155402E-005
                   166  6.862217284446404E-006
                   167  2.823406360022041E-006
                   168 -5.579208419016278E-006
                   169  8.644446129082797E-006
                   170  7.086853747645843E-005
                   171 -1.271649395956047E-004
                   172 -7.378221695431288E-006
                   173 -1.783012369689166E-004
                   174 -1.315759417934716E-005
                   175  3.937943464719749E-006
                   176 -1.943188477535860E-005
                   177  2.581957923070361E-006
                   178 -4.909435761875102E-006
                   179  2.278573366338345E-006
                   180 -4.429476313488750E-005
                   181 -1.873933836998271E-006
                   182 -8.230862579215968E-005
                   183 -2.437507841783339E-004
                   184  2.601789996939729E-005
                   185  8.387634113834807E-005
                   186 -3.827987805961757E-005
                   187 -1.733003498721633E-005
                   188  1.289124719638444E-008
                   189  1.022220973797209E-004
                   190  2.081674609391864E-005
                   191 -6.979236064835129E-008
                   192 -3.437320377742304E-004
                   193 -9.045381897994257E-005
                   194 -2.235751789154534E-008
                   195 -3.891897531614614E-006
                   196  4.061636634697093E-009
                   197 -3.250373113705455E-011
                   198  1.483988093729498E-006
                   199 -2.704788070283632E-006
                   200 -9.361172221384952E-005
                   201  3.355307376479320E-008
                   202  7.589118545052901E-011
                   203  3.443571470770362E-005
                   204  1.489169694090521E-005
                   205  3.103234991975286E-009
                   206  6.712283654014413E-006
                   207  3.403615885642778E-006
                   208 -2.824716771461324E-009
                   209  1.320730440286880E-011
                   210 -4.829455858780202E-006
                   211 -2.298167590236222E-006
                   212 -2.275593505883409E-004
                   213 -7.074761308781599E-004
                   214  7.038424021928794E-005
                   215  1.666601656801341E-004
                   216  1.266157385665416E-004
                   217 -2.275493064084262E-004
                   218 -7.074825608136740E-004
                   219  7.038730619243651E-005
                   220  1.666613762917793E-004
                   221 -1.266184417533417E-004
                   222 -1.336133327157468E-004
                   223 -4.092581340166912E-004
                   224 -4.847619083286714E-005
                   225  8.104180328023678E-006
                   226  4.675524426377307E-005
                   227 -1.336209735494875E-004
                   228 -4.092112397528895E-004
                   229 -4.847738879290276E-005
                   230  8.104183856692783E-006
                   231 -4.675579322258460E-005
                   232  2.964899587986226E-005
                   233 -4.223095981628295E-004
                   234  5.114946562377990E-007
                   235 -1.387607425375069E-006
                   236  3.578017231903114E-006
                   237  2.964079953087036E-005
                   238 -4.223302289144857E-004
                   239  5.188384919484842E-007
                   240 -1.387662692266453E-006
                   241 -3.571762492855867E-006
                   242 -3.981157870212528E-005
                   243  1.071123829340139E-004
                   244  2.476264813419711E-005
                   245  1.723982749779804E-006
                   246 -3.382236624088707E-009
 Sym= __2_A__
 Ene=  0.000000000000000E+000
 Spin= Alpha
 Occup=    2.00000000000000     
                     1 -2.746803255304692E-005
                     2 -8.484503317758018E-005
                     3  1.730121320777227E-003
                     4 -4.444716788529159E-005
                     5  1.212943657980305E-003
                     6  1.946881280313430E-003
                     7  1.292621231683344E-004
                     8  3.144610634912043E-009
                     9 -1.790936013926049E-004
                    10  9.276426303399834E-005
                    11 -2.326515323148473E-009
                    12  7.736663525671392E-005
                    13  2.432649951570643E-005
                    14  3.793931698035849E-009
                    15 -7.849703874966274E-005
                    16  6.219604047765191E-010
                    17 -2.896119838112394E-011
                    18  4.514718062803916E-005
                    19 -3.794795163456691E-006
                    20  1.861093098504882E-004
                    21 -5.114947022078879E-009
                    22 -2.241108399113777E-009
                    23  1.079612799242774E-004
                    24 -4.628486484912366E-005
                    25 -3.172742913143467E-009
                    26  1.418946595150770E-004
                    27 -5.501686908675011E-005
                    28 -5.247223379925306E-009
                    29  1.006113924059624E-009
                    30  1.282024351891146E-004
                    31  2.800952874456659E-005
                    32   1.00097190409857     
                    33  8.751148092805611E-003
                    34  2.867357286954389E-003
                    35 -8.293419194677434E-003
                    36 -2.866079934496924E-003
                    37  5.509605478477693E-004
                    38 -4.877854178162938E-009
                    39  1.522876419971185E-003
                    40 -2.374252752711527E-004
                    41  4.760245703551714E-010
                    42  3.482834980735296E-003
                    43 -1.351118681565006E-004
                    44 -5.100085154324457E-008
                    45  3.197462688151919E-004
                    46 -1.469597842173195E-009
                    47  4.242400401445454E-011
                    48  3.897401154800570E-004
                    49 -1.210389333243734E-005
                    50 -1.120785412957647E-003
                    51  4.184196326664262E-010
                    52  3.020438949851701E-010
                    53 -1.068410306535843E-004
                    54  2.043011370771691E-005
                    55  3.391162547307407E-009
                    56  3.090836250119759E-004
                    57 -9.319443801778493E-006
                    58  2.073938426823066E-009
                    59 -3.541140803888129E-010
                    60  5.665873042000013E-005
                    61  1.041691422164027E-005
                    62  1.141585898158832E-002
                    63 -1.863921885544404E-003
                    64 -3.168687845293799E-004
                    65  3.181487270671387E-003
                    66 -1.809387613342268E-004
                    67  7.632686947651321E-005
                    68  2.904767138087546E-004
                    69 -2.237088602995649E-005
                    70  9.819457327628870E-006
                    71  4.718720122107572E-004
                    72  1.659878583422636E-004
                    73 -1.696145140141310E-005
                    74 -1.861246814260581E-003
                    75 -8.039257741241548E-006
                    76  3.123361905012657E-005
                    77  5.689496153697591E-006
                    78 -3.960324551819834E-005
                    79 -3.334053112363900E-006
                    80 -4.727656299921048E-004
                    81 -5.332258024312776E-004
                    82  8.690703814046450E-006
                    83  7.941553721082050E-004
                    84 -9.084933934742892E-006
                    85  5.945186640542267E-005
                    86  9.679535935510673E-005
                    87  1.390657177943613E-006
                    88 -1.260614609570570E-005
                    89 -5.439252713875247E-006
                    90 -2.767914040244027E-005
                    91  3.686174066561489E-006
                    92  1.141585085521220E-002
                    93 -1.863968146789003E-003
                    94 -3.168946206547374E-004
                    95  3.181598694230602E-003
                    96 -1.809531592528907E-004
                    97  7.632697830160524E-005
                    98 -2.904767151844990E-004
                    99 -2.230235452881009E-005
                   100  9.819243781256214E-006
                   101 -4.718728555113880E-004
                   102  1.658841206511685E-004
                   103 -1.696116285586488E-005
                   104  1.861323532129157E-003
                   105 -8.042574628623149E-006
                   106 -3.123662614974839E-005
                   107 -5.689571336918910E-006
                   108 -3.959631478436124E-005
                   109 -3.334109078637960E-006
                   110 -4.727945035753298E-004
                   111  5.332560423318040E-004
                   112 -8.690732882282048E-006
                   113  7.941855425706252E-004
                   114 -9.084841052496949E-006
                   115 -5.945289922939949E-005
                   116  9.678790826577667E-005
                   117  1.390781155055018E-006
                   118  1.260548889175662E-005
                   119  5.439286373264838E-006
                   120 -2.768556539418862E-005
                   121  3.686126406540878E-006
                   122 -1.875985928051991E-004
                   123 -7.247672140632051E-004
                   124  2.580752978055647E-004
                   125 -3.504195802771850E-004
                   126 -1.537570561153084E-004
                   127  1.552234203684837E-005
                   128 -5.341422682289554E-005
                   129  5.871558781719588E-004
                   130 -4.271999441172161E-006
                   131  6.287980001951002E-005
                   132  5.338358499756207E-004
                   133 -1.818854877443542E-007
                   134  3.818084592795823E-004
                   135  2.245293118384122E-008
                   136  4.264123020035172E-005
                   137  2.360791301344454E-007
                   138 -3.523767508919362E-005
                   139 -6.394832004762427E-007
                   140  2.098092561402016E-004
                   141 -3.063851631694129E-004
                   142 -7.629288851665934E-007
                   143 -2.729720928922966E-004
                   144 -6.404448532903838E-007
                   145 -1.580982605162399E-005
                   146  6.303403055147757E-006
                   147  2.706476831450070E-008
                   148 -1.049179466819700E-005
                   149 -8.508451972503246E-007
                   150 -2.412671221955384E-005
                   151 -1.053065976505250E-006
                   152 -1.874171866158708E-004
                   153 -7.241594612722110E-004
                   154  2.581270233153939E-004
                   155 -3.511003449495008E-004
                   156 -1.537570073833297E-004
                   157  1.552230950747818E-005
                   158  5.340491599398270E-005
                   159  5.871730755614452E-004
                   160 -4.271970707376379E-006