[Molden Format]
[Atoms] AU
  N     1    7    -4.4534885800    0.1627052000   -0.0473189700        
  C     2    6    -1.7699182900   -0.0151065100   -0.0201661200        
  C     3    6    -0.4183824300    0.0171487200   -2.2851824400        
  C     4    6    -0.4368280300   -0.0308685600    2.2525111900        
  C     5    6     2.1956033900    0.0138760000   -2.2625468000        
  C     6    6     2.1811688700   -0.0187733200    2.2506890800        
  C     7    6     3.5141073300   -0.0003653700    0.0003680100        
  H     8    1    -5.1884423900   -0.9140829400   -1.4734259300        
  H     9    1    -5.1825265700   -0.5052960300    1.6130094900        
  H    10    1    -1.4171867500    0.0514997900   -4.0498955400        
  H    11    1    -1.4453788500   -0.0528070700    4.0122931500        
  H    12    1     3.2054699600    0.0284693400   -4.0225665400        
  H    13    1     3.1763891000   -0.0343743400    4.0190546700        
  H    14    1     5.5419828000    0.0018300500    0.0071312500        
[5D]
[7F]
[GTO]
  1  0
   s    12 1.00
  0.114200D+05  0.172695D-04
  0.171200D+04  0.134411D-03
  0.389300D+03  0.694561D-03
  0.110000D+03  0.278531D-02
  0.355700D+02  0.863457D-02
  0.125400D+02  0.199805D-01
  0.464400D+01  0.262908D-01
  0.129300D+01 -0.243845D-01
  0.511800D+00 -0.924934D-01
  0.178700D+00 -0.339683D+00
  0.246240D-01  0.345111D+00
  0.112530D-01  0.752750D+00
   s    10 1.00
  0.114200D+05  0.523000D-03
  0.171200D+04  0.404500D-02
  0.389300D+03  0.207750D-01
  0.110000D+03  0.807269D-01
  0.355700D+02  0.233074D+00
  0.125400D+02  0.433501D+00
  0.464400D+01  0.347472D+00
  0.129300D+01  0.412620D-01
  0.511800D+00 -0.850799D-02
  0.178700D+00  0.238400D-02
   s    10 1.00
  0.114200D+05 -0.115000D-03
  0.171200D+04 -0.895000D-03
  0.389300D+03 -0.462400D-02
  0.110000D+03 -0.185280D-01
  0.355700D+02 -0.573390D-01
  0.125400D+02 -0.132076D+00
  0.464400D+01 -0.172510D+00
  0.129300D+01  0.151814D+00
  0.511800D+00  0.599944D+00
  0.178700D+00  0.387462D+00
   s     1 1.00
  0.129300D+01  0.100000D+01
   s     1 1.00
  0.178700D+00  0.100000D+01
   p     5 1.00
  0.266300D+02  0.146700D-01
  0.594800D+01  0.917640D-01
  0.174200D+01  0.298683D+00
  0.555000D+00  0.498487D+00
  0.172500D+00  0.337023D+00
   p     1 1.00
  0.174200D+01  0.100000D+01
   p     1 1.00
  0.555000D+00  0.100000D+01
   d     1 1.00
  0.165400D+01  0.100000D+01
   d     1 1.00
  0.469000D+00  0.100000D+01
   f     1 1.00
  0.109300D+01  0.100000D+01
  
  2  0
   s    10 1.00
  0.823600D+04  0.531000D-03
  0.123500D+04  0.410800D-02
  0.280800D+03  0.210870D-01
  0.792700D+02  0.818530D-01
  0.255900D+02  0.234817D+00
  0.899700D+01  0.434401D+00
  0.331900D+01  0.346129D+00
  0.905900D+00  0.393780D-01
  0.364300D+00 -0.898300D-02
  0.128500D+00  0.238500D-02
   s    10 1.00
  0.823600D+04 -0.113000D-03
  0.123500D+04 -0.878000D-03
  0.280800D+03 -0.454000D-02
  0.792700D+02 -0.181330D-01
  0.255900D+02 -0.557600D-01
  0.899700D+01 -0.126895D+00
  0.331900D+01 -0.170352D+00
  0.905900D+00  0.140382D+00
  0.364300D+00  0.598684D+00
  0.128500D+00  0.395389D+00
   s     1 1.00
  0.905900D+00  0.100000D+01
   s     1 1.00
  0.364300D+00  0.100000D+01
   p     5 1.00
  0.187100D+02  0.140310D-01
  0.413300D+01  0.868660D-01
  0.120000D+01  0.290216D+00
  0.382700D+00  0.501008D+00
  0.120900D+00  0.343406D+00
   p     1 1.00
  0.382700D+00  0.100000D+01
   p     1 1.00
  0.120900D+00  0.100000D+01
   d     1 1.00
  0.109700D+01  0.100000D+01
   d     1 1.00
  0.318000D+00  0.100000D+01
   f     1 1.00
  0.761000D+00  0.100000D+01
  
  3  0
   s    10 1.00
  0.823600D+04  0.531000D-03
  0.123500D+04  0.410800D-02
  0.280800D+03  0.210870D-01
  0.792700D+02  0.818530D-01
  0.255900D+02  0.234817D+00
  0.899700D+01  0.434401D+00
  0.331900D+01  0.346129D+00
  0.905900D+00  0.393780D-01
  0.364300D+00 -0.898300D-02
  0.128500D+00  0.238500D-02
   s    10 1.00
  0.823600D+04 -0.113000D-03
  0.123500D+04 -0.878000D-03
  0.280800D+03 -0.454000D-02
  0.792700D+02 -0.181330D-01
  0.255900D+02 -0.557600D-01
  0.899700D+01 -0.126895D+00
  0.331900D+01 -0.170352D+00
  0.905900D+00  0.140382D+00
  0.364300D+00  0.598684D+00
  0.128500D+00  0.395389D+00
   s     1 1.00
  0.905900D+00  0.100000D+01
   s     1 1.00
  0.364300D+00  0.100000D+01
   p     5 1.00
  0.187100D+02  0.140310D-01
  0.413300D+01  0.868660D-01
  0.120000D+01  0.290216D+00
  0.382700D+00  0.501008D+00
  0.120900D+00  0.343406D+00
   p     1 1.00
  0.382700D+00  0.100000D+01
   p     1 1.00
  0.120900D+00  0.100000D+01
   d     1 1.00
  0.109700D+01  0.100000D+01
   d     1 1.00
  0.318000D+00  0.100000D+01
   f     1 1.00
  0.761000D+00  0.100000D+01
  
  4  0
   s    10 1.00
  0.823600D+04  0.531000D-03
  0.123500D+04  0.410800D-02
  0.280800D+03  0.210870D-01
  0.792700D+02  0.818530D-01
  0.255900D+02  0.234817D+00
  0.899700D+01  0.434401D+00
  0.331900D+01  0.346129D+00
  0.905900D+00  0.393780D-01
  0.364300D+00 -0.898300D-02
  0.128500D+00  0.238500D-02
   s    10 1.00
  0.823600D+04 -0.113000D-03
  0.123500D+04 -0.878000D-03
  0.280800D+03 -0.454000D-02
  0.792700D+02 -0.181330D-01
  0.255900D+02 -0.557600D-01
  0.899700D+01 -0.126895D+00
  0.331900D+01 -0.170352D+00
  0.905900D+00  0.140382D+00
  0.364300D+00  0.598684D+00
  0.128500D+00  0.395389D+00
   s     1 1.00
  0.905900D+00  0.100000D+01
   s     1 1.00
  0.364300D+00  0.100000D+01
   p     5 1.00
  0.187100D+02  0.140310D-01
  0.413300D+01  0.868660D-01
  0.120000D+01  0.290216D+00
  0.382700D+00  0.501008D+00
  0.120900D+00  0.343406D+00
   p     1 1.00
  0.382700D+00  0.100000D+01
   p     1 1.00
  0.120900D+00  0.100000D+01
   d     1 1.00
  0.109700D+01  0.100000D+01
   d     1 1.00
  0.318000D+00  0.100000D+01
   f     1 1.00
  0.761000D+00  0.100000D+01
  
  5  0
   s    10 1.00
  0.823600D+04  0.531000D-03
  0.123500D+04  0.410800D-02
  0.280800D+03  0.210870D-01
  0.792700D+02  0.818530D-01
  0.255900D+02  0.234817D+00
  0.899700D+01  0.434401D+00
  0.331900D+01  0.346129D+00
  0.905900D+00  0.393780D-01
  0.364300D+00 -0.898300D-02
  0.128500D+00  0.238500D-02
   s    10 1.00
  0.823600D+04 -0.113000D-03
  0.123500D+04 -0.878000D-03
  0.280800D+03 -0.454000D-02
  0.792700D+02 -0.181330D-01
  0.255900D+02 -0.557600D-01
  0.899700D+01 -0.126895D+00
  0.331900D+01 -0.170352D+00
  0.905900D+00  0.140382D+00
  0.364300D+00  0.598684D+00
  0.128500D+00  0.395389D+00
   s     1 1.00
  0.905900D+00  0.100000D+01
   s     1 1.00
  0.364300D+00  0.100000D+01
   p     5 1.00
  0.187100D+02  0.140310D-01
  0.413300D+01  0.868660D-01
  0.120000D+01  0.290216D+00
  0.382700D+00  0.501008D+00
  0.120900D+00  0.343406D+00
   p     1 1.00
  0.382700D+00  0.100000D+01
   p     1 1.00
  0.120900D+00  0.100000D+01
   d     1 1.00
  0.109700D+01  0.100000D+01
   d     1 1.00
  0.318000D+00  0.100000D+01
   f     1 1.00
  0.761000D+00  0.100000D+01
  
  6  0
   s    10 1.00
  0.823600D+04  0.531000D-03
  0.123500D+04  0.410800D-02
  0.280800D+03  0.210870D-01
  0.792700D+02  0.818530D-01
  0.255900D+02  0.234817D+00
  0.899700D+01  0.434401D+00
  0.331900D+01  0.346129D+00
  0.905900D+00  0.393780D-01
  0.364300D+00 -0.898300D-02
  0.128500D+00  0.238500D-02
   s    10 1.00
  0.823600D+04 -0.113000D-03
  0.123500D+04 -0.878000D-03
  0.280800D+03 -0.454000D-02
  0.792700D+02 -0.181330D-01
  0.255900D+02 -0.557600D-01
  0.899700D+01 -0.126895D+00
  0.331900D+01 -0.170352D+00
  0.905900D+00  0.140382D+00
  0.364300D+00  0.598684D+00
  0.128500D+00  0.395389D+00
   s     1 1.00
  0.905900D+00  0.100000D+01
   s     1 1.00
  0.364300D+00  0.100000D+01
   p     5 1.00
  0.187100D+02  0.140310D-01
  0.413300D+01  0.868660D-01
  0.120000D+01  0.290216D+00
  0.382700D+00  0.501008D+00
  0.120900D+00  0.343406D+00
   p     1 1.00
  0.382700D+00  0.100000D+01
   p     1 1.00
  0.120900D+00  0.100000D+01
   d     1 1.00
  0.109700D+01  0.100000D+01
   d     1 1.00
  0.318000D+00  0.100000D+01
   f     1 1.00
  0.761000D+00  0.100000D+01
  
  7  0
   s    10 1.00
  0.823600D+04  0.531000D-03
  0.123500D+04  0.410800D-02
  0.280800D+03  0.210870D-01
  0.792700D+02  0.818530D-01
  0.255900D+02  0.234817D+00
  0.899700D+01  0.434401D+00
  0.331900D+01  0.346129D+00
  0.905900D+00  0.393780D-01
  0.364300D+00 -0.898300D-02
  0.128500D+00  0.238500D-02
   s    10 1.00
  0.823600D+04 -0.113000D-03
  0.123500D+04 -0.878000D-03
  0.280800D+03 -0.454000D-02
  0.792700D+02 -0.181330D-01
  0.255900D+02 -0.557600D-01
  0.899700D+01 -0.126895D+00
  0.331900D+01 -0.170352D+00
  0.905900D+00  0.140382D+00
  0.364300D+00  0.598684D+00
  0.128500D+00  0.395389D+00
   s     1 1.00
  0.905900D+00  0.100000D+01
   s     1 1.00
  0.364300D+00  0.100000D+01
   p     5 1.00
  0.187100D+02  0.140310D-01
  0.413300D+01  0.868660D-01
  0.120000D+01  0.290216D+00
  0.382700D+00  0.501008D+00
  0.120900D+00  0.343406D+00
   p     1 1.00
  0.382700D+00  0.100000D+01
   p     1 1.00
  0.120900D+00  0.100000D+01
   d     1 1.00
  0.109700D+01  0.100000D+01
   d     1 1.00
  0.318000D+00  0.100000D+01
   f     1 1.00
  0.761000D+00  0.100000D+01
  
  8  0
   s     4 1.00
  0.130100D+02  0.196850D-01
  0.196200D+01  0.137977D+00
  0.444600D+00  0.478148D+00
  0.122000D+00  0.501240D+00
   s     1 1.00
  0.122000D+00  0.100000D+01
   p     1 1.00
  0.727000D+00  0.100000D+01
  
  9  0
   s     4 1.00
  0.130100D+02  0.196850D-01
  0.196200D+01  0.137977D+00
  0.444600D+00  0.478148D+00
  0.122000D+00  0.501240D+00
   s     1 1.00
  0.122000D+00  0.100000D+01
   p     1 1.00
  0.727000D+00  0.100000D+01
  
 10  0
   s     4 1.00
  0.130100D+02  0.196850D-01
  0.196200D+01  0.137977D+00
  0.444600D+00  0.478148D+00
  0.122000D+00  0.501240D+00
   s     1 1.00
  0.122000D+00  0.100000D+01
   p     1 1.00
  0.727000D+00  0.100000D+01
  
 11  0
   s     4 1.00
  0.130100D+02  0.196850D-01
  0.196200D+01  0.137977D+00
  0.444600D+00  0.478148D+00
  0.122000D+00  0.501240D+00
   s     1 1.00
  0.122000D+00  0.100000D+01
   p     1 1.00
  0.727000D+00  0.100000D+01
  
 12  0
   s     4 1.00
  0.130100D+02  0.196850D-01
  0.196200D+01  0.137977D+00
  0.444600D+00  0.478148D+00
  0.122000D+00  0.501240D+00
   s     1 1.00
  0.122000D+00  0.100000D+01
   p     1 1.00
  0.727000D+00  0.100000D+01
  
 13  0
   s     4 1.00
  0.130100D+02  0.196850D-01
  0.196200D+01  0.137977D+00
  0.444600D+00  0.478148D+00
  0.122000D+00  0.501240D+00
   s     1 1.00
  0.122000D+00  0.100000D+01
   p     1 1.00
  0.727000D+00  0.100000D+01
  
 14  0
   s     4 1.00
  0.130100D+02  0.196850D-01
  0.196200D+01  0.137977D+00
  0.444600D+00  0.478148D+00
  0.122000D+00  0.501240D+00
   s     1 1.00
  0.122000D+00  0.100000D+01
   p     1 1.00
  0.727000D+00  0.100000D+01
  
[MO]
 Sym= __1_A__
 Ene=  0.000000000000000E+000
 Spin= Alpha
 Occup=    2.00000000000000     
                     1  2.230774840424533E-004
                     2  0.998066970613726     
                     3  4.118696831536751E-003
                     4  1.920380979087279E-003
                     5  5.450728947720058E-003
                     6  5.458205860502755E-003
                     7 -4.738526721523910E-003
                     8  8.280876535886876E-004
                     9 -7.541588738747699E-004
                    10  2.399314767739066E-004
                    11 -9.260385709953602E-005
                    12 -1.343223151625956E-003
                    13  3.081746338587905E-003
                    14 -5.034945024286468E-004
                    15 -5.787921998049836E-006
                    16 -1.369537720715758E-005
                    17  1.010721812593244E-006
                    18  7.854404241010821E-005
                    19  6.366216160261020E-005
                    20 -3.793507436144800E-004
                    21  9.980994884854062E-005
                    22 -5.058330180843903E-005
                    23  4.987258798570400E-005
                    24 -4.810436883671171E-004
                    25 -2.312361592237749E-005
                    26 -1.449762905791052E-004
                    27 -6.657036754954108E-005
                    28  2.525167774788998E-005
                    29 -9.891692329905193E-006
                    30 -9.962209829747498E-005
                    31 -5.687755637840904E-005
                    32 -3.897579017346511E-004
                    33  9.662361488366932E-004
                    34  2.416396619244491E-004
                    35 -1.101823601400828E-004
                    36 -4.486254471713112E-003
                    37 -4.636812151225332E-006
                    38 -4.979686583020239E-005
                    39  2.041748251236306E-004
                    40 -1.425221002370356E-005
                    41  1.458421681360239E-004
                    42  4.853298167201186E-003
                    43  7.805598817151972E-004
                    44 -7.227075007091799E-004
                    45 -2.270712760297087E-004
                    46  7.981495307482382E-006
                    47  2.379006790441147E-006
                    48  2.093852090477218E-004
                    49  4.747577846852036E-005
                    50  4.638511249269279E-004
                    51  1.100046436895272E-004
                    52 -1.661047682689616E-005
                    53 -4.894430360442620E-005
                    54 -3.531836323662188E-004
                    55  8.177357596590365E-006
                    56 -6.180989690553217E-005
                    57  1.060669790367858E-005
                    58  5.720626091679972E-006
                    59  6.256464999629429E-007
                    60 -3.491588209921684E-005
                    61  3.584664558387849E-005
                    62 -4.222059286048332E-004
                    63 -2.020459955291442E-003
                    64  6.812474629426368E-005
                    65  1.152438047969834E-003
                    66  5.788755803804280E-004
                    67 -8.838823104123426E-005
                    68 -6.215050731846082E-004
                    69  6.729725714748866E-004
                    70  7.895426992686550E-005
                    71  1.961063206598078E-004
                    72 -3.298014576183134E-005
                    73 -3.443514972382087E-004
                    74 -9.773018350142805E-004
                    75 -7.606253503975267E-005
                    76 -1.522414121443551E-005
                    77  1.915110208927190E-005
                    78  6.656752707894797E-005
                    79 -9.121356887068129E-006
                    80  2.157658017924702E-004
                    81  1.860269132032234E-004
                    82 -3.281108546285204E-005
                    83 -9.295260636389546E-005
                    84  4.851280434818957E-005
                    85 -1.155098484063977E-005
                    86 -7.266392944367038E-005
                    87  2.121880531058977E-005
                    88 -9.152268855530114E-006
                    89  1.317768584023684E-005
                    90 -5.282416953269761E-005
                    91 -1.200945000827990E-005
                    92 -2.909039976287051E-004
                    93 -1.589592427975211E-003
                    94  1.266214983459153E-004
                    95  5.213928620942694E-004
                    96  6.261063213121379E-004
                    97 -8.906914018958086E-005
                    98  5.776675015479170E-004
                    99  5.181440335372252E-004
                   100  8.633967643674671E-005
                   101 -2.488054460744585E-005
                   102 -9.055450938335576E-004
                   103 -3.553472222356936E-004
                   104  6.153025386223213E-004
                   105 -7.524924032236913E-005
                   106  1.032961904903164E-005
                   107 -1.703041544352616E-005
                   108  5.855493754759992E-005
                   109 -1.007418115269380E-005
                   110  1.427656616059280E-004
                   111 -1.869699763293521E-004
                   112  2.134715769418361E-005
                   113 -1.448399105817577E-004
                   114  5.837829437467604E-005
                   115  3.527832491872968E-006
                   116 -3.867718247733684E-005
                   117  2.085841337261358E-005
                   118  1.369369334350993E-005
                   119 -1.256030918129007E-005
                   120 -3.956402048736705E-005
                   121 -1.035252860836184E-005
                   122 -2.078550399469565E-004
                   123 -3.620840446300973E-004
                   124  6.866663912242268E-005
                   125  5.823413479465307E-004
                   126 -5.682181588898505E-004
                   127 -3.450712806001096E-005
                   128  1.439643187092989E-005
                   129  3.120030033788260E-004
                   130 -2.397364656551384E-005
                   131  6.635331606878062E-005
                   132  1.275986540125408E-003
                   133  1.577712914625393E-004
                   134 -9.096145582641776E-005
                   135  9.349950450154288E-006
                   136  1.071931663985028E-006
                   137 -4.088587879462665E-006
                   138 -3.525131791002272E-006
                   139  9.496157699743729E-006
                   140  1.164937611426485E-004
                   141  2.261479774697699E-004
                   142  9.704344016057935E-006
                   143 -2.278059170652014E-004
                   144 -1.899567024645908E-005
                   145 -1.607951740508389E-005
                   146 -1.647973676245048E-005
                   147  2.157589059452340E-006
                   148 -5.770954891125712E-006
                   149 -2.172483339887909E-006
                   150 -5.274572525332109E-005
                   151 -1.218688713503479E-006
                   152 -1.701205043215854E-004
                   153 -2.396980144596138E-004
                   154  3.735417158844576E-005
                   155  5.126838418660600E-004
                   156 -5.470325487609867E-004
                   157 -3.243827329303177E-005
                   158 -3.516497502727418E-005
                   159  1.333628752496333E-004
                   160 -2.749101407114722E-005
                   161  4.834596671952834E-005
                   162  4.105127772860965E-004
                   163  1.446149025200557E-004
                   164  4.467902650013308E-004
                   165 -7.900454608395728E-007
                   166  1.431927491488119E-006
                   167  3.691110359836590E-006
                   168  4.064160754909678E-006
                   169  8.560114056269161E-006
                   170  3.403424903692377E-005
                   171 -1.580422659275792E-004
                   172 -6.651073904695613E-006
                   173 -1.372137866460307E-004
                   174 -1.037508014785793E-005
                   175  6.137006884948823E-006
                   176 -1.317217912461877E-005
                   177  2.811937215847119E-006
                   178  2.527293653609898E-006
                   179  1.247169515638402E-006
                   180 -3.623630055882741E-005
                   181 -2.143687854324506E-006
                   182 -1.255467910976191E-004
                   183 -3.885444470312919E-004
                   184  2.742390117861951E-005
                   185  1.519201575957399E-004
                   186 -1.655146263052767E-005
                   187 -4.295530878550148E-005
                   188 -2.059194885983052E-005
                   189  9.385971031451781E-005
                   190  2.105435488727471E-005
                   191  8.780833353149790E-005
                   192 -3.670695830872000E-004
                   193 -1.106118536728671E-004
                   194  4.767390891756791E-004
                   195 -1.033300582333180E-005
                   196  7.243597312954053E-007
                   197 -2.188719041170574E-008
                   198  4.116867581276236E-006
                   199 -2.283794625718297E-006
                   200 -1.141323327254272E-004
                   201 -7.254919905523794E-005
                   202  1.013492484488095E-006
                   203  6.406589222286168E-005
                   204  1.707573627540456E-005
                   205  8.260045651657213E-007
                   206  9.388633052347809E-007
                   207  3.018921536180550E-006
                   208  5.731248793064978E-006
                   209 -2.692528482482302E-007
                   210 -5.583816507486210E-006
                   211 -2.631375865443718E-006
                   212  2.763630719582439E-003
                   213 -2.183458523965005E-003
                   214  1.795704131865805E-004
                   215  3.438493778934919E-004
                   216  3.209526380913381E-004
                   217  2.897278025949117E-003
                   218 -2.251411455142218E-003
                   219  1.935580811415526E-004
                   220  2.513498673174817E-004
                   221 -4.210833780896264E-004
                   222 -5.193234552290763E-004
                   223 -2.949127954278907E-004
                   224 -6.627914653307020E-005
                   225  9.317203153089875E-006
                   226  3.571551404800455E-005
                   227 -4.913598416496257E-004
                   228 -3.222148310993151E-004
                   229 -5.619082901878265E-005
                   230  1.122449285526344E-005
                   231 -3.938114593552903E-005
                   232 -1.095962142863595E-004
                   233 -5.068147485257898E-004
                   234  3.211241664818232E-006
                   235 -1.311139384886126E-006
                   236 -7.436018114115424E-006
                   237 -1.302437754887101E-004
                   238 -4.295423240161737E-004
                   239  7.282063138669941E-006
                   240 -1.964609319743084E-006
                   241  1.175099839894356E-005
                   242  1.899859615750133E-005
                   243  1.155289099577345E-004
                   244  2.972396593370280E-005
                   245  1.785050670189289E-006
                   246  6.043446469523270E-007
 Sym= __2_A__
 Ene=  0.000000000000000E+000
 Spin= Alpha
 Occup=    2.00000000000000     
                     1 -2.066095963376989E-005
                     2 -8.372616978379217E-005
                     3  1.970046410000903E-003
                     4 -1.262238824588125E-005
                     5  1.246696067428789E-003
                     6  1.948730767899180E-003
                     7  3.005047207389958E-004
                     8 -6.847925107357462E-005
                     9 -1.491546758485109E-004
                    10  9.873739878106007E-005
                    11 -7.312846164379565E-006
                    12  3.900608466086508E-005
                    13  4.688171701526097E-005
                    14  2.542159545180802E-005
                    15 -7.254747959184726E-005
                    16  3.790204750350372E-006
                    17 -3.165876130988018E-006
                    18  3.990473123476874E-005
                    19 -2.968286247206423E-006
                    20  1.863660866241383E-004
                    21 -2.328927651856847E-005
                    22  9.724954249283452E-006
                    23  9.834394495349370E-005
                    24 -4.105576812541918E-005
                    25 -2.069775460233522E-005
                    26  1.393987947946679E-004
                    27 -5.489193662557542E-005
                    28  6.362193157107016E-007
                    29  6.178804102892264E-007
                    30  1.284757458054543E-004
                    31  3.620681913422618E-005
                    32   1.00096907274566     
                    33  8.777931186743332E-003
                    34  2.782163333895197E-003
                    35 -8.219697109147684E-003
                    36 -2.600587397893079E-003
                    37  7.001349198143594E-004
                    38  2.533419087377322E-006
                    39  1.097974828787264E-003
                    40 -2.266957122305102E-004
                    41 -2.799158656673911E-005
                    42  3.461162718539889E-003
                    43 -1.294283520174306E-004
                    44 -6.545642225951062E-005
                    45  2.962801825234941E-004
                    46  6.931898782808615E-006
                    47 -4.693512132095398E-006
                    48  4.188037749441892E-004
                    49 -2.463764851434642E-005
                    50 -1.046097716170121E-003
                    51 -4.531925986376620E-005
                    52  2.226174752990540E-005
                    53 -1.118072531088534E-004
                    54  3.188068066848321E-005
                    55 -2.897918832313962E-006
                    56  3.124617609336787E-004
                    57 -8.762154143338840E-006
                    58 -4.396506795984014E-006
                    59 -1.136850151436857E-006
                    60  8.221712203822825E-005
                    61  1.882506906867010E-005
                    62  1.227651738023336E-002
                    63 -1.875598505894674E-003
                    64 -3.051841785153100E-004
                    65  3.115553080595083E-003
                    66 -1.421634969284088E-004
                    67  1.214729141784265E-004
                    68  2.612327656173740E-004
                    69  3.114726821117257E-005
                    70 -3.072078945925317E-006
                    71  4.906319124474538E-004
                    72  2.234489138001702E-004
                    73 -1.264866812189890E-005
                    74 -1.854486380348848E-003
                    75 -1.071995480868069E-005
                    76  2.552726829296133E-005
                    77  9.266224872241771E-006
                    78 -3.643863300069372E-005
                    79 -4.851391948341025E-006
                    80 -4.313396474974720E-004
                    81 -4.592330973785006E-004
                    82  2.193786662160364E-006
                    83  7.682255720455802E-004
                    84 -7.279619315536463E-007
                    85  5.045856156167673E-005
                    86  1.092787046508816E-004
                    87  2.740688615403542E-006
                    88 -1.584750945839034E-005
                    89 -9.031562459667179E-006
                    90 -2.802536512209570E-005
                    91  4.604290508278916E-006
                    92  1.267520024085642E-002
                    93 -1.847868630009445E-003
                    94 -3.204591158969997E-004
                    95  3.189081999773193E-003
                    96 -1.544291163202298E-004
                    97  1.283149521239191E-004
                    98 -2.557543492377873E-004
                    99  2.312371659912504E-005
                   100  8.482668356783676E-006
                   101 -5.503525761370501E-004
                   102  9.598573315382257E-005
                   103 -5.004415111666420E-005
                   104  1.826154283514950E-003
                   105 -9.237538223816818E-006
                   106 -2.349275645212373E-005
                   107 -7.773660027501229E-006
                   108 -3.519437392200540E-005
                   109 -4.774556538103488E-006
                   110 -4.057299097416988E-004
                   111  4.772815406578418E-004
                   112 -1.716252737752030E-006
                   113  7.523737036951212E-004
                   114 -5.337942468801228E-006
                   115 -5.141653442209290E-005
                   116  1.053992257605730E-004
                   117 -1.222606048119792E-006
                   118  1.724344946917544E-005
                   119  4.767063124405526E-006
                   120 -3.101497271769324E-005
                   121  5.268789667636509E-006
                   122 -1.520497815348077E-004
                   123 -7.241774792064035E-004
                   124  2.497054227035021E-004
                   125 -3.066624070015551E-004
                   126 -1.911925868609574E-004
                   127  2.507824565174584E-005
                   128 -4.574624396047858E-005
                   129  6.021645296931115E-004
                   130 -4.747356694840504E-006
                   131  5.312782494606869E-005
                   132  6.315964073101012E-004
                   133 -2.670242513306664E-007
                   134  3.610427802476914E-004
                   135 -1.795547890230210E-008
                   136  4.193388535357738E-005
                   137  1.850935953740886E-007
                   138 -3.314246587776496E-005
                   139 -1.757199897611964E-006
                   140  1.960152555090892E-004
                   141 -2.623904434376297E-004
                   142  2.713249657153112E-006
                   143 -2.651056602560472E-004
                   144 -4.114577020389206E-007
                   145 -1.827359695601056E-005
                   146  1.412359508757505E-005
                   147 -1.135817241961115E-007
                   148 -1.273745198174838E-005
                   149 -2.333415751367941E-006
                   150 -2.485440288321594E-005
                   151 -5.003098561928074E-007
                   152 -1.424377837935000E-004
                   153 -7.058968995759028E-004
                   154  2.552161413197298E-004
                   155 -3.377415706853952E-004
                   156 -1.871807811163959E-004
                   157  2.078018226236427E-005
                   158  3.989031585078451E-005
                   159  5.968225744835206E-004
                   160  1.016865146879041E-006