[Molden Format]
[Atoms] AU
  N     1    7    -4.4634953500    0.1400043900   -0.1426300500        
  C     2    6    -1.7692630400   -0.0199025000   -0.0625193400        
  C     3    6    -0.4001112500    0.0645920800   -2.3157882900        
  C     4    6    -0.4564035100   -0.0803973700    2.2175520800        
  C     5    6     2.2109147700    0.0492411400   -2.2732662500        
  C     6    6     2.1639920300   -0.0547719700    2.2398577200        
  C     7    6     3.5109104400   -0.0003004000    0.0020021500        
  H     8    1    -5.1877279800   -1.2942198400   -1.2223031400        
  H     9    1    -5.1703080800   -0.1005624300    1.6436648900        
  H    10    1    -1.3906971000    0.1538552800   -4.0824262400        
  H    11    1    -1.4786531700   -0.1552233500    3.9681036200        
  H    12    1     3.2372584600    0.1005309700   -4.0229330000        
  H    13    1     3.1452640400   -0.0973954700    4.0155311100        
  H    14    1     5.5388725900    0.0053992300    0.0238675800        
[5D]
[7F]
[GTO]
  1  0
   s    12 1.00
  0.114200D+05  0.172695D-04
  0.171200D+04  0.134411D-03
  0.389300D+03  0.694561D-03
  0.110000D+03  0.278531D-02
  0.355700D+02  0.863457D-02
  0.125400D+02  0.199805D-01
  0.464400D+01  0.262908D-01
  0.129300D+01 -0.243845D-01
  0.511800D+00 -0.924934D-01
  0.178700D+00 -0.339683D+00
  0.246240D-01  0.345111D+00
  0.112530D-01  0.752750D+00
   s    10 1.00
  0.114200D+05  0.523000D-03
  0.171200D+04  0.404500D-02
  0.389300D+03  0.207750D-01
  0.110000D+03  0.807269D-01
  0.355700D+02  0.233074D+00
  0.125400D+02  0.433501D+00
  0.464400D+01  0.347472D+00
  0.129300D+01  0.412620D-01
  0.511800D+00 -0.850799D-02
  0.178700D+00  0.238400D-02
   s    10 1.00
  0.114200D+05 -0.115000D-03
  0.171200D+04 -0.895000D-03
  0.389300D+03 -0.462400D-02
  0.110000D+03 -0.185280D-01
  0.355700D+02 -0.573390D-01
  0.125400D+02 -0.132076D+00
  0.464400D+01 -0.172510D+00
  0.129300D+01  0.151814D+00
  0.511800D+00  0.599944D+00
  0.178700D+00  0.387462D+00
   s     1 1.00
  0.129300D+01  0.100000D+01
   s     1 1.00
  0.178700D+00  0.100000D+01
   p     5 1.00
  0.266300D+02  0.146700D-01
  0.594800D+01  0.917640D-01
  0.174200D+01  0.298683D+00
  0.555000D+00  0.498487D+00
  0.172500D+00  0.337023D+00
   p     1 1.00
  0.174200D+01  0.100000D+01
   p     1 1.00
  0.555000D+00  0.100000D+01
   d     1 1.00
  0.165400D+01  0.100000D+01
   d     1 1.00
  0.469000D+00  0.100000D+01
   f     1 1.00
  0.109300D+01  0.100000D+01
  
  2  0
   s    10 1.00
  0.823600D+04  0.531000D-03
  0.123500D+04  0.410800D-02
  0.280800D+03  0.210870D-01
  0.792700D+02  0.818530D-01
  0.255900D+02  0.234817D+00
  0.899700D+01  0.434401D+00
  0.331900D+01  0.346129D+00
  0.905900D+00  0.393780D-01
  0.364300D+00 -0.898300D-02
  0.128500D+00  0.238500D-02
   s    10 1.00
  0.823600D+04 -0.113000D-03
  0.123500D+04 -0.878000D-03
  0.280800D+03 -0.454000D-02
  0.792700D+02 -0.181330D-01
  0.255900D+02 -0.557600D-01
  0.899700D+01 -0.126895D+00
  0.331900D+01 -0.170352D+00
  0.905900D+00  0.140382D+00
  0.364300D+00  0.598684D+00
  0.128500D+00  0.395389D+00
   s     1 1.00
  0.905900D+00  0.100000D+01
   s     1 1.00
  0.364300D+00  0.100000D+01
   p     5 1.00
  0.187100D+02  0.140310D-01
  0.413300D+01  0.868660D-01
  0.120000D+01  0.290216D+00
  0.382700D+00  0.501008D+00
  0.120900D+00  0.343406D+00
   p     1 1.00
  0.382700D+00  0.100000D+01
   p     1 1.00
  0.120900D+00  0.100000D+01
   d     1 1.00
  0.109700D+01  0.100000D+01
   d     1 1.00
  0.318000D+00  0.100000D+01
   f     1 1.00
  0.761000D+00  0.100000D+01
  
  3  0
   s    10 1.00
  0.823600D+04  0.531000D-03
  0.123500D+04  0.410800D-02
  0.280800D+03  0.210870D-01
  0.792700D+02  0.818530D-01
  0.255900D+02  0.234817D+00
  0.899700D+01  0.434401D+00
  0.331900D+01  0.346129D+00
  0.905900D+00  0.393780D-01
  0.364300D+00 -0.898300D-02
  0.128500D+00  0.238500D-02
   s    10 1.00
  0.823600D+04 -0.113000D-03
  0.123500D+04 -0.878000D-03
  0.280800D+03 -0.454000D-02
  0.792700D+02 -0.181330D-01
  0.255900D+02 -0.557600D-01
  0.899700D+01 -0.126895D+00
  0.331900D+01 -0.170352D+00
  0.905900D+00  0.140382D+00
  0.364300D+00  0.598684D+00
  0.128500D+00  0.395389D+00
   s     1 1.00
  0.905900D+00  0.100000D+01
   s     1 1.00
  0.364300D+00  0.100000D+01
   p     5 1.00
  0.187100D+02  0.140310D-01
  0.413300D+01  0.868660D-01
  0.120000D+01  0.290216D+00
  0.382700D+00  0.501008D+00
  0.120900D+00  0.343406D+00
   p     1 1.00
  0.382700D+00  0.100000D+01
   p     1 1.00
  0.120900D+00  0.100000D+01
   d     1 1.00
  0.109700D+01  0.100000D+01
   d     1 1.00
  0.318000D+00  0.100000D+01
   f     1 1.00
  0.761000D+00  0.100000D+01
  
  4  0
   s    10 1.00
  0.823600D+04  0.531000D-03
  0.123500D+04  0.410800D-02
  0.280800D+03  0.210870D-01
  0.792700D+02  0.818530D-01
  0.255900D+02  0.234817D+00
  0.899700D+01  0.434401D+00
  0.331900D+01  0.346129D+00
  0.905900D+00  0.393780D-01
  0.364300D+00 -0.898300D-02
  0.128500D+00  0.238500D-02
   s    10 1.00
  0.823600D+04 -0.113000D-03
  0.123500D+04 -0.878000D-03
  0.280800D+03 -0.454000D-02
  0.792700D+02 -0.181330D-01
  0.255900D+02 -0.557600D-01
  0.899700D+01 -0.126895D+00
  0.331900D+01 -0.170352D+00
  0.905900D+00  0.140382D+00
  0.364300D+00  0.598684D+00
  0.128500D+00  0.395389D+00
   s     1 1.00
  0.905900D+00  0.100000D+01
   s     1 1.00
  0.364300D+00  0.100000D+01
   p     5 1.00
  0.187100D+02  0.140310D-01
  0.413300D+01  0.868660D-01
  0.120000D+01  0.290216D+00
  0.382700D+00  0.501008D+00
  0.120900D+00  0.343406D+00
   p     1 1.00
  0.382700D+00  0.100000D+01
   p     1 1.00
  0.120900D+00  0.100000D+01
   d     1 1.00
  0.109700D+01  0.100000D+01
   d     1 1.00
  0.318000D+00  0.100000D+01
   f     1 1.00
  0.761000D+00  0.100000D+01
  
  5  0
   s    10 1.00
  0.823600D+04  0.531000D-03
  0.123500D+04  0.410800D-02
  0.280800D+03  0.210870D-01
  0.792700D+02  0.818530D-01
  0.255900D+02  0.234817D+00
  0.899700D+01  0.434401D+00
  0.331900D+01  0.346129D+00
  0.905900D+00  0.393780D-01
  0.364300D+00 -0.898300D-02
  0.128500D+00  0.238500D-02
   s    10 1.00
  0.823600D+04 -0.113000D-03
  0.123500D+04 -0.878000D-03
  0.280800D+03 -0.454000D-02
  0.792700D+02 -0.181330D-01
  0.255900D+02 -0.557600D-01
  0.899700D+01 -0.126895D+00
  0.331900D+01 -0.170352D+00
  0.905900D+00  0.140382D+00
  0.364300D+00  0.598684D+00
  0.128500D+00  0.395389D+00
   s     1 1.00
  0.905900D+00  0.100000D+01
   s     1 1.00
  0.364300D+00  0.100000D+01
   p     5 1.00
  0.187100D+02  0.140310D-01
  0.413300D+01  0.868660D-01
  0.120000D+01  0.290216D+00
  0.382700D+00  0.501008D+00
  0.120900D+00  0.343406D+00
   p     1 1.00
  0.382700D+00  0.100000D+01
   p     1 1.00
  0.120900D+00  0.100000D+01
   d     1 1.00
  0.109700D+01  0.100000D+01
   d     1 1.00
  0.318000D+00  0.100000D+01
   f     1 1.00
  0.761000D+00  0.100000D+01
  
  6  0
   s    10 1.00
  0.823600D+04  0.531000D-03
  0.123500D+04  0.410800D-02
  0.280800D+03  0.210870D-01
  0.792700D+02  0.818530D-01
  0.255900D+02  0.234817D+00
  0.899700D+01  0.434401D+00
  0.331900D+01  0.346129D+00
  0.905900D+00  0.393780D-01
  0.364300D+00 -0.898300D-02
  0.128500D+00  0.238500D-02
   s    10 1.00
  0.823600D+04 -0.113000D-03
  0.123500D+04 -0.878000D-03
  0.280800D+03 -0.454000D-02
  0.792700D+02 -0.181330D-01
  0.255900D+02 -0.557600D-01
  0.899700D+01 -0.126895D+00
  0.331900D+01 -0.170352D+00
  0.905900D+00  0.140382D+00
  0.364300D+00  0.598684D+00
  0.128500D+00  0.395389D+00
   s     1 1.00
  0.905900D+00  0.100000D+01
   s     1 1.00
  0.364300D+00  0.100000D+01
   p     5 1.00
  0.187100D+02  0.140310D-01
  0.413300D+01  0.868660D-01
  0.120000D+01  0.290216D+00
  0.382700D+00  0.501008D+00
  0.120900D+00  0.343406D+00
   p     1 1.00
  0.382700D+00  0.100000D+01
   p     1 1.00
  0.120900D+00  0.100000D+01
   d     1 1.00
  0.109700D+01  0.100000D+01
   d     1 1.00
  0.318000D+00  0.100000D+01
   f     1 1.00
  0.761000D+00  0.100000D+01
  
  7  0
   s    10 1.00
  0.823600D+04  0.531000D-03
  0.123500D+04  0.410800D-02
  0.280800D+03  0.210870D-01
  0.792700D+02  0.818530D-01
  0.255900D+02  0.234817D+00
  0.899700D+01  0.434401D+00
  0.331900D+01  0.346129D+00
  0.905900D+00  0.393780D-01
  0.364300D+00 -0.898300D-02
  0.128500D+00  0.238500D-02
   s    10 1.00
  0.823600D+04 -0.113000D-03
  0.123500D+04 -0.878000D-03
  0.280800D+03 -0.454000D-02
  0.792700D+02 -0.181330D-01
  0.255900D+02 -0.557600D-01
  0.899700D+01 -0.126895D+00
  0.331900D+01 -0.170352D+00
  0.905900D+00  0.140382D+00
  0.364300D+00  0.598684D+00
  0.128500D+00  0.395389D+00
   s     1 1.00
  0.905900D+00  0.100000D+01
   s     1 1.00
  0.364300D+00  0.100000D+01
   p     5 1.00
  0.187100D+02  0.140310D-01
  0.413300D+01  0.868660D-01
  0.120000D+01  0.290216D+00
  0.382700D+00  0.501008D+00
  0.120900D+00  0.343406D+00
   p     1 1.00
  0.382700D+00  0.100000D+01
   p     1 1.00
  0.120900D+00  0.100000D+01
   d     1 1.00
  0.109700D+01  0.100000D+01
   d     1 1.00
  0.318000D+00  0.100000D+01
   f     1 1.00
  0.761000D+00  0.100000D+01
  
  8  0
   s     4 1.00
  0.130100D+02  0.196850D-01
  0.196200D+01  0.137977D+00
  0.444600D+00  0.478148D+00
  0.122000D+00  0.501240D+00
   s     1 1.00
  0.122000D+00  0.100000D+01
   p     1 1.00
  0.727000D+00  0.100000D+01
  
  9  0
   s     4 1.00
  0.130100D+02  0.196850D-01
  0.196200D+01  0.137977D+00
  0.444600D+00  0.478148D+00
  0.122000D+00  0.501240D+00
   s     1 1.00
  0.122000D+00  0.100000D+01
   p     1 1.00
  0.727000D+00  0.100000D+01
  
 10  0
   s     4 1.00
  0.130100D+02  0.196850D-01
  0.196200D+01  0.137977D+00
  0.444600D+00  0.478148D+00
  0.122000D+00  0.501240D+00
   s     1 1.00
  0.122000D+00  0.100000D+01
   p     1 1.00
  0.727000D+00  0.100000D+01
  
 11  0
   s     4 1.00
  0.130100D+02  0.196850D-01
  0.196200D+01  0.137977D+00
  0.444600D+00  0.478148D+00
  0.122000D+00  0.501240D+00
   s     1 1.00
  0.122000D+00  0.100000D+01
   p     1 1.00
  0.727000D+00  0.100000D+01
  
 12  0
   s     4 1.00
  0.130100D+02  0.196850D-01
  0.196200D+01  0.137977D+00
  0.444600D+00  0.478148D+00
  0.122000D+00  0.501240D+00
   s     1 1.00
  0.122000D+00  0.100000D+01
   p     1 1.00
  0.727000D+00  0.100000D+01
  
 13  0
   s     4 1.00
  0.130100D+02  0.196850D-01
  0.196200D+01  0.137977D+00
  0.444600D+00  0.478148D+00
  0.122000D+00  0.501240D+00
   s     1 1.00
  0.122000D+00  0.100000D+01
   p     1 1.00
  0.727000D+00  0.100000D+01
  
 14  0
   s     4 1.00
  0.130100D+02  0.196850D-01
  0.196200D+01  0.137977D+00
  0.444600D+00  0.478148D+00
  0.122000D+00  0.501240D+00
   s     1 1.00
  0.122000D+00  0.100000D+01
   p     1 1.00
  0.727000D+00  0.100000D+01
  
[MO]
 Sym= __1_A__
 Ene=  0.000000000000000E+000
 Spin= Alpha
 Occup=    2.00000000000000     
                     1  2.287807618978576E-004
                     2  0.998075623888336     
                     3  3.063977522373240E-003
                     4  1.926531532612289E-003
                     5  5.788772270413536E-003
                     6  5.596188019586263E-003
                     7 -4.536818016013748E-003
                     8  2.524395531258222E-003
                     9 -8.017026094314427E-004
                    10  2.681612602480922E-004
                    11 -2.905277798083798E-004
                    12 -1.485871189450384E-003
                    13  2.967624996069214E-003
                    14 -1.514840292525398E-003
                    15 -7.488934744889994E-006
                    16 -3.987533378123328E-005
                    17 -3.992190915105446E-006
                    18  6.463185403652155E-005
                    19  5.726123945224505E-005
                    20 -3.275762659998468E-004
                    21  2.907781126209899E-004
                    22 -1.431396193184492E-004
                    23  7.965927006162770E-005
                    24 -4.450780987521389E-004
                    25 -5.140549553719378E-005
                    26 -1.290697325331873E-004
                    27 -1.955338263251333E-005
                    28  5.965251342620990E-005
                    29 -2.127886690564114E-005
                    30 -1.041738037687428E-004
                    31 -3.852883880420128E-005
                    32 -3.734426742213872E-004
                    33  8.525725075962346E-004
                    34  2.445709125802417E-004
                    35 -9.494548621904843E-005
                    36 -4.141651098827984E-003
                    37 -5.663009554604069E-005
                    38 -1.477544287776262E-004
                    39  2.094361134359779E-004
                    40 -3.029448169898503E-005
                    41  4.484502821969372E-004
                    42  4.826854767222256E-003
                    43  7.761811397514403E-004
                    44 -2.075456406860875E-003
                    45 -2.132807603007614E-004
                    46  2.164395494750041E-005
                    47  6.962218963038467E-006
                    48  2.006551407966772E-004
                    49  4.641194903153435E-005
                    50  4.862355971709699E-004
                    51  3.447589261404079E-004
                    52 -4.813942213901554E-005
                    53 -7.303050246413339E-005
                    54 -3.464059569507035E-004
                    55  2.322552872691931E-005
                    56 -5.637828784701543E-005
                    57  5.875371004777187E-006
                    58  1.847674452688719E-005
                    59  1.941610343069069E-006
                    60 -3.460948177047062E-005
                    61  3.163559790993394E-005
                    62 -5.525216809525955E-004
                    63 -2.378634123976052E-003
                    64  1.475389022985761E-005
                    65  1.759976101678665E-003
                    66  4.548518155409848E-004
                    67 -9.887186413542375E-005
                    68 -6.158242453530836E-004
                    69  7.956914639407833E-004
                    70  6.203817517563235E-005
                    71  3.697915970509653E-004
                    72  8.117450738913533E-004
                    73 -2.760713055363272E-004
                    74 -1.287121339966803E-003
                    75 -7.245445144677991E-005
                    76 -2.214655828297064E-005
                    77  1.875307672245982E-005
                    78  7.349757109837468E-005
                    79 -6.876819794564231E-006
                    80  3.004862395127958E-004
                    81  1.911458186909710E-004
                    82 -4.473685774549676E-005
                    83 -6.042865429242666E-005
                    84  3.170944849543235E-005
                    85 -1.710687444070674E-005
                    86 -1.038979176239081E-004
                    87  1.977999529432106E-005
                    88 -2.397968114058260E-006
                    89  1.316832000320798E-005
                    90 -6.356810843262389E-005
                    91 -1.161686792843489E-005
                    92 -1.643561118445767E-004
                    93 -1.107502804256511E-003
                    94  1.891214690017953E-004
                    95 -1.202681864141540E-004
                    96  5.885151149938313E-004
                    97 -1.039474114860793E-004
                    98  4.901168403399019E-004
                    99  3.798949241437537E-004
                   100  8.200169612502072E-005
                   101  1.605240044905182E-004
                   102 -1.692611767515435E-003
                   103 -3.161468651065084E-004
                   104  3.142602969228129E-004
                   105 -6.989217896306995E-005
                   106  5.138727607986657E-006
                   107 -1.321060616301970E-005
                   108  4.905517127498100E-005
                   109 -9.609077665841312E-006
                   110  5.628628692581631E-005
                   111 -1.956209243777662E-004
                   112  1.233604483503866E-005
                   113 -1.938325711162944E-004
                   114  5.847621278980765E-005
                   115 -6.326122776874020E-006
                   116 -4.152847969235231E-006
                   117  1.915221526925828E-005
                   118  1.696572814117447E-005
                   119 -1.116737629737054E-005
                   120 -2.674508489454307E-005
                   121 -7.673687295322128E-006
                   122 -2.543681675297374E-004
                   123 -5.449420220196552E-004
                   124  9.270758931961567E-005
                   125  7.033352141016051E-004
                   126 -5.338440664877919E-004
                   127 -4.250019702361425E-005
                   128 -7.130767723961806E-006
                   129  4.575801741382780E-004
                   130 -2.215506300432316E-005
                   131  1.728254487423323E-004
                   132  2.086215262163670E-003
                   133  1.353013465523422E-004
                   134  2.306300725557115E-004
                   135  1.944912826915973E-005
                   136  1.839670622794229E-006
                   137 -4.268223359756742E-006
                   138 -1.038870630840235E-005
                   139  9.462807870051319E-006
                   140  1.913910294382954E-004
                   141  2.955986065561142E-004
                   142  8.941380242806423E-006
                   143 -3.081605932896448E-004
                   144 -2.348779664133931E-005
                   145 -2.611120531742620E-005
                   146 -1.934806563791122E-005
                   147  7.291135689747156E-007
                   148 -9.282020673749813E-006
                   149 -3.171728820021692E-006
                   150 -6.760014173587146E-005
                   151 -1.060628916516749E-006
                   152 -1.455409004087043E-004
                   153 -1.916499074530618E-004
                   154  6.190089366191911E-006
                   155  4.762219519805680E-004
                   156 -4.734248037452203E-004
                   157 -3.629654678642613E-005
                   158 -5.175633630270012E-005
                   159 -3.381788946945111E-005
                   160 -3.133671740991266E-005
                   161  1.545910791428074E-004
                   162 -3.997822556671335E-004
                   163  9.777782219864974E-005
                   164  7.400408152188544E-004
                   165 -9.970683466082421E-006
                   166  4.829955975834324E-006
                   167  3.119009463012918E-006
                   168  1.054976891702647E-005
                   169  7.017234218077944E-006
                   170 -3.562370087490418E-005
                   171 -9.201410003678157E-005
                   172 -2.187976833335847E-007
                   173 -5.075722452094000E-005
                   174  1.747739899266993E-007
                   175 -3.231271815124257E-006
                   176 -9.799401395774963E-006
                   177  2.544459087292312E-006
                   178 -1.267570974498905E-006
                   179  5.705412392305811E-007
                   180 -1.996803334005877E-005
                   181 -3.395986289356347E-006
                   182 -1.354267283794858E-004
                   183 -4.191704186811104E-004
                   184  3.047355437731957E-005
                   185  1.690720122345109E-004
                   186 -1.756004461929318E-005
                   187 -3.904133759973430E-005
                   188 -5.778962975031812E-005
                   189  9.160164502092055E-005
                   190  1.341154659593937E-005
                   191  2.506282688951640E-004
                   192 -3.847935023052955E-004
                   193 -1.190990489410620E-004
                   194  1.366337604130954E-003
                   195 -9.259512132307466E-006
                   196  2.248756495359374E-006
                   197 -1.292416587906150E-008
                   198  3.505884300377410E-006
                   199 -1.525855293173894E-006
                   200 -1.202996622059596E-004
                   201 -2.062957485026843E-004
                   202  3.649209363404533E-006
                   203  6.518712177744963E-005
                   204  1.824281845109643E-005
                   205  2.423478208871576E-006
                   206  1.499314644778253E-006
                   207  2.117323249370174E-006
                   208  1.633717155408959E-005
                   209 -8.122098919074351E-007
                   210 -5.272146922561268E-006
                   211 -2.590005930890301E-006
                   212  2.281297392745185E-003
                   213 -1.957929410179635E-003
                   214  1.508779131146023E-004
                   215  3.857454442771115E-004
                   216  1.929313372607650E-004
                   217  2.692932953474409E-003
                   218 -2.159162686737702E-003
                   219  1.878741025118436E-004
                   220  1.367345536519392E-004
                   221 -4.680411073511169E-004
                   222 -5.118260513733931E-004
                   223 -2.639668038457127E-004
                   224 -7.851981021787067E-005
                   225  8.008545998125051E-006
                   226  3.504775701391065E-005
                   227 -4.188279654735229E-004
                   228 -3.847144097660436E-004
                   229 -4.442914625673472E-005
                   230  1.338383954524951E-005
                   231 -4.413265331475640E-005
                   232 -6.864852909385247E-005
                   233 -5.959227695377583E-004
                   234  3.944542139690224E-007
                   235 -1.081915092479416E-006
                   236 -2.995454004554851E-006
                   237 -1.354311653267232E-004
                   238 -3.476545954832037E-004
                   239  1.260612071268712E-005
                   240 -2.741537982353267E-006
                   241  1.625520138153449E-005
                   242  8.964390374181954E-006
                   243  1.164588032155492E-004
                   244  2.992095144231185E-005
                   245  1.750196462703503E-006
                   246  1.458510247450992E-006
 Sym= __2_A__
 Ene=  0.000000000000000E+000
 Spin= Alpha
 Occup=    2.00000000000000     
                     1 -1.458300399597314E-005
                     2 -8.436032965549864E-005
                     3  1.881068744421390E-003
                     4 -1.587113347055122E-005
                     5  1.226088361261465E-003
                     6  1.840817528503586E-003
                     7  1.992906706183629E-004
                     8 -1.790340026331877E-004
                     9 -1.520047664006551E-004
                    10  9.984876527880628E-005
                    11 -1.987534778057515E-005
                    12  7.981281538526954E-005
                    13  8.608520833327043E-005
                    14  5.746364996697170E-005
                    15 -6.868652137527459E-005
                    16  1.079398699458639E-005
                    17 -7.742622964813156E-006
                    18  4.220913991792532E-005
                    19 -2.020413371731458E-006
                    20  1.627158091594553E-004
                    21 -5.911468550578278E-005
                    22  2.694463174589903E-005
                    23  1.081252550696795E-004
                    24 -5.229937037649459E-005
                    25 -5.193015431220713E-005
                    26  1.351684466972875E-004
                    27 -3.130575232486519E-005
                    28 -2.446550181869144E-006
                    29  2.449411320677313E-007
                    30  1.282275842712281E-004
                    31  3.560489211680136E-005
                    32   1.00095184922904     
                    33  8.761621415543201E-003
                    34  2.799959761557267E-003
                    35 -8.268139206895949E-003
                    36 -2.471698361145417E-003
                    37  6.224449483830146E-004
                    38  1.535515685097379E-005
                    39  1.095046890856958E-003
                    40 -2.116278357035453E-004
                    41 -8.783523026532348E-005
                    42  3.318569277407660E-003
                    43 -1.178119821087177E-004
                    44 -1.663937316967247E-004
                    45  2.993047890768768E-004
                    46  1.710946341288860E-005
                    47 -1.575308790552927E-005
                    48  4.031664287316536E-004
                    49 -1.776152983997060E-005
                    50 -1.030006363407796E-003
                    51 -1.282512219903677E-004
                    52  6.565369311296619E-005
                    53 -1.260349724913815E-004
                    54  2.451787591429027E-005
                    55 -8.614798961767550E-006
                    56  3.030727248950855E-004
                    57 -8.979537031180705E-006
                    58 -1.295868467209317E-005
                    59 -4.334852211766916E-006
                    60  7.871727063101643E-005
                    61  1.596828117207602E-005
                    62  1.276359144705660E-002
                    63 -1.854713017563494E-003
                    64 -2.922880613948994E-004
                    65  3.030017857680950E-003
                    66 -1.465271545711002E-004
                    67  9.503590384735629E-005
                    68  2.810105045778021E-004
                    69  3.269063335070845E-005
                    70 -1.235540581094373E-005
                    71  4.334443045201931E-004
                    72  3.579121597574086E-004
                    73  3.852310114904329E-005
                    74 -1.848980351503586E-003
                    75 -9.251252222598305E-006
                    76  2.606282755393685E-005
                    77  8.831635484733275E-006
                    78 -3.802804552916454E-005
                    79 -4.225966709791381E-006
                    80 -4.508072607293027E-004
                    81 -4.321659670991673E-004
                    82  8.651132785617461E-006
                    83  7.795470921791704E-004
                    84  3.808569745065034E-006
                    85  4.773169249433291E-005
                    86  1.106070148615238E-004
                    87  8.014919791515395E-006
                    88 -1.643861149178539E-005
                    89 -1.334266630304587E-005
                    90 -2.550595701533827E-005
                    91  3.156697841417676E-006
                    92  1.388447578237292E-002
                    93 -1.783972644048689E-003
                    94 -3.318774790048207E-004
                    95  3.235721182014453E-003
                    96 -1.784847908250746E-004
                    97  1.150177388859975E-004
                    98 -2.696408916198187E-004
                    99  6.524132869629031E-007
                   100  2.262474807762379E-005
                   101 -6.055096949580902E-004
                   102  2.252366516574003E-005
                   103 -7.402575155864866E-005
                   104  1.763151661806353E-003
                   105 -5.115609643067578E-006
                   106 -1.976743185919718E-005
                   107 -4.872071985048517E-006
                   108 -3.374484446585004E-005
                   109 -4.000660267444992E-006
                   110 -3.675385411132371E-004
                   111  4.874005543278161E-004
                   112 -7.997108521627341E-006
                   113  7.260966401207588E-004
                   114 -1.130176558572653E-005
                   115 -5.157641706154702E-005
                   116  1.006198126513283E-004
                   117 -3.566695822413643E-006
                   118  1.929932839115288E-005
                   119  7.191188959182984E-007
                   120 -3.277624716813147E-005
                   121  4.662774621464413E-006
                   122 -1.475737451016444E-004
                   123 -7.482700553437077E-004
                   124  2.438335023959635E-004
                   125 -2.781416072181753E-004
                   126 -1.844884835801718E-004
                   127  2.246362730998154E-005
                   128 -5.079516149735219E-005
                   129  6.047972764542242E-004
                   130 -8.987096690028963E-006
                   131  7.239962276268952E-005
                   132  7.056481269785866E-004
                   133 -8.729760000782519E-006
                   134  3.968212201257490E-004
                   135  1.569007001862593E-007
                   136  4.139171016033983E-005
                   137  3.750802075813773E-007
                   138 -3.247076811454922E-005
                   139 -2.316183699880168E-006
                   140  1.978037404509046E-004
                   141 -2.608826961629602E-004
                   142  2.505157775733684E-006
                   143 -2.588775460462014E-004
                   144  6.558315072143405E-006
                   145 -1.836111867829093E-005
                   146  1.539072396501851E-005
                   147 -8.930982379912467E-007
                   148 -1.173452969959578E-005
                   149 -2.807344730153492E-006
                   150 -2.311807355611175E-005
                   151  2.056748182559681E-007
                   152 -1.199961611640339E-004
                   153 -7.060667545521325E-004
                   154  2.559128592635031E-004
                   155 -3.414865531588553E-004
                   156 -1.712824522306707E-004
                   157  1.079952179683244E-005
                   158  3.503442505831724E-005
                   159  5.784140973699629E-004
                   160  6.067392392161132E-006