[Molden Format]
[Atoms] AU
  N     1    7    -4.4519150800    0.1645695100   -0.0000004400        
  C     2    6    -1.7695092000   -0.0145096000   -0.0000001700        
  C     3    6    -0.4270927200   -0.0061402300   -2.2691546100        
  C     4    6    -0.4270931100   -0.0061391100    2.2691544900        
  C     5    6     2.1889955900   -0.0004823800   -2.2566388900        
  C     6    6     2.1889952100   -0.0004812700    2.2566392100        
  C     7    6     3.5149715000    0.0022090000    0.0000002700        
  H     8    1    -5.2412522300   -0.7792446300   -1.6754556700        
  H     9    1    -5.2412525100   -0.7792438000    1.6754551200        
  H    10    1    -1.4305344500   -0.0005073500   -4.0318143700        
  H    11    1    -1.4305351200   -0.0005053700    4.0318140800        
  H    12    1     3.1914120400   -0.0010699000   -4.0209976100        
  H    13    1     3.1914113700   -0.0010679200    4.0209980900        
  H    14    1     5.5428332300    0.0050250700    0.0000004400        
[5D]
[7F]
[GTO]
  1  0
   s    12 1.00
  0.114200D+05  0.172695D-04
  0.171200D+04  0.134411D-03
  0.389300D+03  0.694561D-03
  0.110000D+03  0.278531D-02
  0.355700D+02  0.863457D-02
  0.125400D+02  0.199805D-01
  0.464400D+01  0.262908D-01
  0.129300D+01 -0.243845D-01
  0.511800D+00 -0.924934D-01
  0.178700D+00 -0.339683D+00
  0.246240D-01  0.345111D+00
  0.112530D-01  0.752750D+00
   s    10 1.00
  0.114200D+05  0.523000D-03
  0.171200D+04  0.404500D-02
  0.389300D+03  0.207750D-01
  0.110000D+03  0.807269D-01
  0.355700D+02  0.233074D+00
  0.125400D+02  0.433501D+00
  0.464400D+01  0.347472D+00
  0.129300D+01  0.412620D-01
  0.511800D+00 -0.850799D-02
  0.178700D+00  0.238400D-02
   s    10 1.00
  0.114200D+05 -0.115000D-03
  0.171200D+04 -0.895000D-03
  0.389300D+03 -0.462400D-02
  0.110000D+03 -0.185280D-01
  0.355700D+02 -0.573390D-01
  0.125400D+02 -0.132076D+00
  0.464400D+01 -0.172510D+00
  0.129300D+01  0.151814D+00
  0.511800D+00  0.599944D+00
  0.178700D+00  0.387462D+00
   s     1 1.00
  0.129300D+01  0.100000D+01
   s     1 1.00
  0.178700D+00  0.100000D+01
   p     5 1.00
  0.266300D+02  0.146700D-01
  0.594800D+01  0.917640D-01
  0.174200D+01  0.298683D+00
  0.555000D+00  0.498487D+00
  0.172500D+00  0.337023D+00
   p     1 1.00
  0.174200D+01  0.100000D+01
   p     1 1.00
  0.555000D+00  0.100000D+01
   d     1 1.00
  0.165400D+01  0.100000D+01
   d     1 1.00
  0.469000D+00  0.100000D+01
   f     1 1.00
  0.109300D+01  0.100000D+01
  
  2  0
   s    10 1.00
  0.823600D+04  0.531000D-03
  0.123500D+04  0.410800D-02
  0.280800D+03  0.210870D-01
  0.792700D+02  0.818530D-01
  0.255900D+02  0.234817D+00
  0.899700D+01  0.434401D+00
  0.331900D+01  0.346129D+00
  0.905900D+00  0.393780D-01
  0.364300D+00 -0.898300D-02
  0.128500D+00  0.238500D-02
   s    10 1.00
  0.823600D+04 -0.113000D-03
  0.123500D+04 -0.878000D-03
  0.280800D+03 -0.454000D-02
  0.792700D+02 -0.181330D-01
  0.255900D+02 -0.557600D-01
  0.899700D+01 -0.126895D+00
  0.331900D+01 -0.170352D+00
  0.905900D+00  0.140382D+00
  0.364300D+00  0.598684D+00
  0.128500D+00  0.395389D+00
   s     1 1.00
  0.905900D+00  0.100000D+01
   s     1 1.00
  0.364300D+00  0.100000D+01
   p     5 1.00
  0.187100D+02  0.140310D-01
  0.413300D+01  0.868660D-01
  0.120000D+01  0.290216D+00
  0.382700D+00  0.501008D+00
  0.120900D+00  0.343406D+00
   p     1 1.00
  0.382700D+00  0.100000D+01
   p     1 1.00
  0.120900D+00  0.100000D+01
   d     1 1.00
  0.109700D+01  0.100000D+01
   d     1 1.00
  0.318000D+00  0.100000D+01
   f     1 1.00
  0.761000D+00  0.100000D+01
  
  3  0
   s    10 1.00
  0.823600D+04  0.531000D-03
  0.123500D+04  0.410800D-02
  0.280800D+03  0.210870D-01
  0.792700D+02  0.818530D-01
  0.255900D+02  0.234817D+00
  0.899700D+01  0.434401D+00
  0.331900D+01  0.346129D+00
  0.905900D+00  0.393780D-01
  0.364300D+00 -0.898300D-02
  0.128500D+00  0.238500D-02
   s    10 1.00
  0.823600D+04 -0.113000D-03
  0.123500D+04 -0.878000D-03
  0.280800D+03 -0.454000D-02
  0.792700D+02 -0.181330D-01
  0.255900D+02 -0.557600D-01
  0.899700D+01 -0.126895D+00
  0.331900D+01 -0.170352D+00
  0.905900D+00  0.140382D+00
  0.364300D+00  0.598684D+00
  0.128500D+00  0.395389D+00
   s     1 1.00
  0.905900D+00  0.100000D+01
   s     1 1.00
  0.364300D+00  0.100000D+01
   p     5 1.00
  0.187100D+02  0.140310D-01
  0.413300D+01  0.868660D-01
  0.120000D+01  0.290216D+00
  0.382700D+00  0.501008D+00
  0.120900D+00  0.343406D+00
   p     1 1.00
  0.382700D+00  0.100000D+01
   p     1 1.00
  0.120900D+00  0.100000D+01
   d     1 1.00
  0.109700D+01  0.100000D+01
   d     1 1.00
  0.318000D+00  0.100000D+01
   f     1 1.00
  0.761000D+00  0.100000D+01
  
  4  0
   s    10 1.00
  0.823600D+04  0.531000D-03
  0.123500D+04  0.410800D-02
  0.280800D+03  0.210870D-01
  0.792700D+02  0.818530D-01
  0.255900D+02  0.234817D+00
  0.899700D+01  0.434401D+00
  0.331900D+01  0.346129D+00
  0.905900D+00  0.393780D-01
  0.364300D+00 -0.898300D-02
  0.128500D+00  0.238500D-02
   s    10 1.00
  0.823600D+04 -0.113000D-03
  0.123500D+04 -0.878000D-03
  0.280800D+03 -0.454000D-02
  0.792700D+02 -0.181330D-01
  0.255900D+02 -0.557600D-01
  0.899700D+01 -0.126895D+00
  0.331900D+01 -0.170352D+00
  0.905900D+00  0.140382D+00
  0.364300D+00  0.598684D+00
  0.128500D+00  0.395389D+00
   s     1 1.00
  0.905900D+00  0.100000D+01
   s     1 1.00
  0.364300D+00  0.100000D+01
   p     5 1.00
  0.187100D+02  0.140310D-01
  0.413300D+01  0.868660D-01
  0.120000D+01  0.290216D+00
  0.382700D+00  0.501008D+00
  0.120900D+00  0.343406D+00
   p     1 1.00
  0.382700D+00  0.100000D+01
   p     1 1.00
  0.120900D+00  0.100000D+01
   d     1 1.00
  0.109700D+01  0.100000D+01
   d     1 1.00
  0.318000D+00  0.100000D+01
   f     1 1.00
  0.761000D+00  0.100000D+01
  
  5  0
   s    10 1.00
  0.823600D+04  0.531000D-03
  0.123500D+04  0.410800D-02
  0.280800D+03  0.210870D-01
  0.792700D+02  0.818530D-01
  0.255900D+02  0.234817D+00
  0.899700D+01  0.434401D+00
  0.331900D+01  0.346129D+00
  0.905900D+00  0.393780D-01
  0.364300D+00 -0.898300D-02
  0.128500D+00  0.238500D-02
   s    10 1.00
  0.823600D+04 -0.113000D-03
  0.123500D+04 -0.878000D-03
  0.280800D+03 -0.454000D-02
  0.792700D+02 -0.181330D-01
  0.255900D+02 -0.557600D-01
  0.899700D+01 -0.126895D+00
  0.331900D+01 -0.170352D+00
  0.905900D+00  0.140382D+00
  0.364300D+00  0.598684D+00
  0.128500D+00  0.395389D+00
   s     1 1.00
  0.905900D+00  0.100000D+01
   s     1 1.00
  0.364300D+00  0.100000D+01
   p     5 1.00
  0.187100D+02  0.140310D-01
  0.413300D+01  0.868660D-01
  0.120000D+01  0.290216D+00
  0.382700D+00  0.501008D+00
  0.120900D+00  0.343406D+00
   p     1 1.00
  0.382700D+00  0.100000D+01
   p     1 1.00
  0.120900D+00  0.100000D+01
   d     1 1.00
  0.109700D+01  0.100000D+01
   d     1 1.00
  0.318000D+00  0.100000D+01
   f     1 1.00
  0.761000D+00  0.100000D+01
  
  6  0
   s    10 1.00
  0.823600D+04  0.531000D-03
  0.123500D+04  0.410800D-02
  0.280800D+03  0.210870D-01
  0.792700D+02  0.818530D-01
  0.255900D+02  0.234817D+00
  0.899700D+01  0.434401D+00
  0.331900D+01  0.346129D+00
  0.905900D+00  0.393780D-01
  0.364300D+00 -0.898300D-02
  0.128500D+00  0.238500D-02
   s    10 1.00
  0.823600D+04 -0.113000D-03
  0.123500D+04 -0.878000D-03
  0.280800D+03 -0.454000D-02
  0.792700D+02 -0.181330D-01
  0.255900D+02 -0.557600D-01
  0.899700D+01 -0.126895D+00
  0.331900D+01 -0.170352D+00
  0.905900D+00  0.140382D+00
  0.364300D+00  0.598684D+00
  0.128500D+00  0.395389D+00
   s     1 1.00
  0.905900D+00  0.100000D+01
   s     1 1.00
  0.364300D+00  0.100000D+01
   p     5 1.00
  0.187100D+02  0.140310D-01
  0.413300D+01  0.868660D-01
  0.120000D+01  0.290216D+00
  0.382700D+00  0.501008D+00
  0.120900D+00  0.343406D+00
   p     1 1.00
  0.382700D+00  0.100000D+01
   p     1 1.00
  0.120900D+00  0.100000D+01
   d     1 1.00
  0.109700D+01  0.100000D+01
   d     1 1.00
  0.318000D+00  0.100000D+01
   f     1 1.00
  0.761000D+00  0.100000D+01
  
  7  0
   s    10 1.00
  0.823600D+04  0.531000D-03
  0.123500D+04  0.410800D-02
  0.280800D+03  0.210870D-01
  0.792700D+02  0.818530D-01
  0.255900D+02  0.234817D+00
  0.899700D+01  0.434401D+00
  0.331900D+01  0.346129D+00
  0.905900D+00  0.393780D-01
  0.364300D+00 -0.898300D-02
  0.128500D+00  0.238500D-02
   s    10 1.00
  0.823600D+04 -0.113000D-03
  0.123500D+04 -0.878000D-03
  0.280800D+03 -0.454000D-02
  0.792700D+02 -0.181330D-01
  0.255900D+02 -0.557600D-01
  0.899700D+01 -0.126895D+00
  0.331900D+01 -0.170352D+00
  0.905900D+00  0.140382D+00
  0.364300D+00  0.598684D+00
  0.128500D+00  0.395389D+00
   s     1 1.00
  0.905900D+00  0.100000D+01
   s     1 1.00
  0.364300D+00  0.100000D+01
   p     5 1.00
  0.187100D+02  0.140310D-01
  0.413300D+01  0.868660D-01
  0.120000D+01  0.290216D+00
  0.382700D+00  0.501008D+00
  0.120900D+00  0.343406D+00
   p     1 1.00
  0.382700D+00  0.100000D+01
   p     1 1.00
  0.120900D+00  0.100000D+01
   d     1 1.00
  0.109700D+01  0.100000D+01
   d     1 1.00
  0.318000D+00  0.100000D+01
   f     1 1.00
  0.761000D+00  0.100000D+01
  
  8  0
   s     4 1.00
  0.130100D+02  0.196850D-01
  0.196200D+01  0.137977D+00
  0.444600D+00  0.478148D+00
  0.122000D+00  0.501240D+00
   s     1 1.00
  0.122000D+00  0.100000D+01
   p     1 1.00
  0.727000D+00  0.100000D+01
  
  9  0
   s     4 1.00
  0.130100D+02  0.196850D-01
  0.196200D+01  0.137977D+00
  0.444600D+00  0.478148D+00
  0.122000D+00  0.501240D+00
   s     1 1.00
  0.122000D+00  0.100000D+01
   p     1 1.00
  0.727000D+00  0.100000D+01
  
 10  0
   s     4 1.00
  0.130100D+02  0.196850D-01
  0.196200D+01  0.137977D+00
  0.444600D+00  0.478148D+00
  0.122000D+00  0.501240D+00
   s     1 1.00
  0.122000D+00  0.100000D+01
   p     1 1.00
  0.727000D+00  0.100000D+01
  
 11  0
   s     4 1.00
  0.130100D+02  0.196850D-01
  0.196200D+01  0.137977D+00
  0.444600D+00  0.478148D+00
  0.122000D+00  0.501240D+00
   s     1 1.00
  0.122000D+00  0.100000D+01
   p     1 1.00
  0.727000D+00  0.100000D+01
  
 12  0
   s     4 1.00
  0.130100D+02  0.196850D-01
  0.196200D+01  0.137977D+00
  0.444600D+00  0.478148D+00
  0.122000D+00  0.501240D+00
   s     1 1.00
  0.122000D+00  0.100000D+01
   p     1 1.00
  0.727000D+00  0.100000D+01
  
 13  0
   s     4 1.00
  0.130100D+02  0.196850D-01
  0.196200D+01  0.137977D+00
  0.444600D+00  0.478148D+00
  0.122000D+00  0.501240D+00
   s     1 1.00
  0.122000D+00  0.100000D+01
   p     1 1.00
  0.727000D+00  0.100000D+01
  
 14  0
   s     4 1.00
  0.130100D+02  0.196850D-01
  0.196200D+01  0.137977D+00
  0.444600D+00  0.478148D+00
  0.122000D+00  0.501240D+00
   s     1 1.00
  0.122000D+00  0.100000D+01
   p     1 1.00
  0.727000D+00  0.100000D+01
  
[MO]
 Sym= __1_A__
 Ene=   1.00000000000000     
 Spin= Alpha
 Occup=    1.00000000000000     
                     1  1.977464480297072E-004
                     2  0.998302782202519     
                     3  2.876636649196298E-003
                     4  1.688749611515106E-003
                     5  5.613353037968986E-003
                     6  5.650938837617440E-003
                     7 -4.781209286891304E-003
                     8 -4.584043938864176E-009
                     9 -7.584392747569374E-004
                    10  3.255670138363946E-004
                    11  2.985486438244602E-009
                    12 -1.510166687918262E-003
                    13  3.182308962284522E-003
                    14 -9.079731234940951E-009
                    15 -5.271892618656975E-005
                    16 -1.045823303040863E-009
                    17  8.164551968401804E-011
                    18  8.258009590030594E-005
                    19  3.213943809183676E-005
                    20 -3.870928211711231E-004
                    21  3.479709404443024E-009
                    22  2.342322994077676E-009
                    23  4.599389950794672E-005
                    24 -4.910164081251021E-004
                    25  4.664980541821231E-009
                    26 -1.037121580049784E-004
                    27 -1.978023779805521E-005
                    28  7.331414593182426E-009
                    29 -1.595946075528317E-009
                    30 -7.947012883321867E-005
                    31 -5.772791478056555E-005
                    32 -3.894401219088891E-004
                    33  8.030636665555063E-004
                    34  2.377746020860238E-004
                    35 -9.341769004111457E-005
                    36 -4.104518310174656E-003
                    37 -4.197809487735034E-005
                    38  5.103864870838982E-009
                    39  1.423328456869843E-004
                    40 -8.132422362305074E-006
                    41 -3.218928022274626E-009
                    42  4.939793394977406E-003
                    43  8.026095336630481E-004
                    44  8.685321915203157E-008
                    45 -2.141474510007524E-004
                    46  3.182389004181621E-009
                    47 -9.454661886189186E-011
                    48  1.945065410244771E-004
                    49  4.621302919140958E-005
                    50  4.238029788820408E-004
                    51 -2.174528049495330E-008
                    52 -9.338168040450455E-011
                    53 -2.634476584207756E-005
                    54 -3.595726487600481E-004
                    55 -6.186547404003147E-009
                    56 -5.710264688353510E-005
                    57  7.417690496186725E-006
                    58 -4.125716031964654E-009
                    59  4.978853004152855E-010
                    60 -3.167141536057719E-005
                    61  4.139164353877691E-005
                    62 -3.644394370216533E-004
                    63 -1.754643379244060E-003
                    64  9.384111145935433E-005
                    65  8.665497420556126E-004
                    66  5.162987308289288E-004
                    67 -1.105791438509206E-004
                    68 -5.514255935084082E-004
                    69  5.850106139186823E-004
                    70  8.508254447626893E-005
                    71  1.114323433170279E-004
                    72 -4.946269899694661E-004
                    73 -3.602858262779396E-004
                    74 -8.557813489898983E-004
                    75 -6.990036754844000E-005
                    76 -1.134689411599780E-005
                    77  1.907757018336217E-005
                    78  6.086707901433404E-005
                    79 -9.929584231064676E-006
                    80  1.671593946679302E-004
                    81  1.485922706906496E-004
                    82 -3.142560797514057E-005
                    83 -1.079058105725998E-004
                    84  5.445295734821690E-005
                    85 -9.214260322793980E-006
                    86 -5.799540053618038E-005
                    87  2.074179520630770E-005
                    88 -1.124135113987025E-005
                    89  1.238877755121431E-005
                    90 -4.668280886498965E-005
                    91 -1.089781920801913E-005
                    92 -3.644262823305512E-004
                    93 -1.754591783484988E-003
                    94  9.389226732796771E-005
                    95  8.663818269627181E-004
                    96  5.163277607245966E-004
                    97 -1.105789444192594E-004
                    98  5.514286758078968E-004
                    99  5.848524304827234E-004
                   100  8.508202100011854E-005
                   101 -1.114569860551394E-004
                   102 -4.944507094742886E-004
                   103 -3.602854824401436E-004
                   104  8.556227109864163E-004
                   105 -6.989542090252158E-005
                   106  1.135183180091888E-005
                   107 -1.907745532290337E-005
                   108  6.085800413541720E-005
                   109 -9.929547523975688E-006
                   110  1.672370415097374E-004
                   111 -1.486450444257879E-004
                   112  3.142568639927051E-005
                   113 -1.080015727634447E-004
                   114  5.445194193248706E-005
                   115  9.217779109758412E-006
                   116 -5.797971485125884E-005
                   117  2.074165071514376E-005
                   118  1.124342165975693E-005
                   119 -1.238881720944105E-005
                   120 -4.666746847223151E-005
                   121 -1.089795454894792E-005
                   122 -1.915754823117659E-004
                   123 -3.420917296253772E-004
                   124  5.453931997131306E-005
                   125  5.510249817572410E-004
                   126 -5.018719986705809E-004
                   127 -4.872168927940324E-005
                   128  1.792721466979319E-005
                   129  2.239678015323228E-004
                   130 -2.548985164036330E-005
                   131  2.809192299524477E-005
                   132  8.508936450570412E-004
                   133  1.609671343965725E-004
                   134 -2.755571350101930E-004
                   135  5.704171367297930E-006
                   136 -6.106523565133001E-007
                   137 -4.269214582102436E-006
                   138 -4.040219709016354E-007
                   139  9.724421445993667E-006
                   140  7.713866682954042E-005
                   141  1.783292797124560E-004
                   142  9.111548322143942E-006
                   143 -1.884926908917777E-004
                   144 -1.525299052103858E-005
                   145 -1.015862578948038E-005
                   146 -1.560701579680215E-005
                   147  2.629800643243739E-006
                   148 -2.550712743833984E-006
                   149 -2.335985008949479E-006
                   150 -4.501014397464063E-005
                   151 -1.987238329019657E-006
                   152 -1.917654052413581E-004
                   153 -3.427584568336847E-004
                   154  5.437565302233867E-005
                   155  5.521306364833355E-004
                   156 -5.018709797753878E-004
                   157 -4.872160191922517E-005
                   158 -1.790294951676522E-005
                   159  2.239165759271856E-004
                   160 -2.549011408190509E-005
                   161 -2.825323316913170E-005
                   162  8.510591602193568E-004
                   163  1.609676778848568E-004
                   164  2.757130912928886E-004
                   165  5.713120238503196E-006
                   166  6.071842794012639E-007
                   167  4.268755560849521E-006
                   168 -3.797211179139410E-007
                   169  9.724454591164722E-006
                   170  7.715044695098576E-005
                   171 -1.784364142799362E-004
                   172 -9.111185574593356E-006
                   173 -1.884592890659132E-004
                   174 -1.525362246651443E-005
                   175  1.016036186770208E-005
                   176 -1.557238780485337E-005
                   177  2.629769104327534E-006
                   178  2.547382211991934E-006
                   179  2.336066930892501E-006
                   180 -4.499969230151294E-005
                   181 -1.987263228753957E-006
                   182 -1.253828669673847E-004
                   183 -3.866262379255257E-004
                   184  2.894601182287077E-005
                   185  1.567815384727364E-004
                   186 -2.088107924010611E-005
                   187 -5.676469159845568E-005
                   188  3.441648835805894E-008
                   189  1.000270202358333E-004
                   190  2.248468938458986E-005
                   191 -1.866382746686143E-007
                   192 -3.711206104260029E-004
                   193 -1.110148465426669E-004
                   194 -6.886599261370985E-008
                   195 -9.415266984392089E-006
                   196  1.026892818057868E-008
                   197 -2.483805745919283E-011
                   198  3.866690491634018E-006
                   199 -2.250932328124482E-006
                   200 -1.112587132595842E-004
                   201  9.233428088514307E-008
                   202  5.901773806745323E-010
                   203  5.776872872950762E-005
                   204  1.842443311056023E-005
                   205  7.053106566214521E-009
                   206  2.247679133789590E-006
                   207  3.287456762752433E-006
                   208 -8.574968773451707E-009
                   209 -8.206153918881584E-011
                   210 -5.844436883858050E-006
                   211 -2.945510085383005E-006
                   212  1.977228808525851E-003
                   213 -1.686628107452598E-003
                   214  1.787431773316371E-004
                   215  2.946944937760547E-004
                   216  3.414389678198400E-004
                   217  1.977234195360297E-003
                   218 -1.686633417170931E-003
                   219  1.787461136431463E-004
                   220  2.946965236840625E-004
                   221 -3.414429738415605E-004
                   222 -4.446296647846840E-004
                   223 -3.646936733514387E-004
                   224 -5.867876494791360E-005
                   225  9.783141904854774E-006
                   226  3.978890626038701E-005
                   227 -4.446515132364823E-004
                   228 -3.645535557714173E-004
                   229 -5.868436825014306E-005
                   230  9.783080441522459E-006
                   231 -3.979266334757960E-005
                   232 -1.012151568143746E-004
                   233 -4.743035615326969E-004
                   234  3.417486722357436E-006
                   235 -1.901088160912311E-006
                   236 -7.669280869629845E-006
                   237 -1.012315762945175E-004
                   238 -4.743696113956980E-004
                   239  3.436303360926624E-006
                   240 -1.901074893875012E-006
                   241  7.685585031629191E-006
                   242  1.115025504564736E-005
                   243  1.146611503532206E-004
                   244  2.993383583864482E-005
                   245  1.587587807782275E-006
                   246 -8.752185866315635E-009
 Sym= __2_A__
 Ene=   2.00000000000000     
 Spin= Alpha
 Occup=    1.00000000000000     
                     1 -2.524813480048702E-005
                     2 -9.006087836819407E-005
                     3  2.156550335154534E-003
                     4 -1.327197833816383E-005
                     5  1.214832777668269E-003
                     6  2.009640087455841E-003
                     7  2.366975174197610E-004
                     8  3.878585184080627E-009
                     9 -1.430275307173901E-004
                    10  9.695352353742196E-005
                    11 -2.303117508332806E-009
                    12  1.052149773888785E-005
                    13  3.101746666015565E-005
                    14  2.543273478803475E-009
                    15 -7.352796572627171E-005
                    16  7.104660350461312E-010
                    17 -8.259992145538156E-011
                    18  4.135941251692292E-005
                    19 -4.374810200261464E-006
                    20  1.723389242602560E-004
                    21 -4.789010049262385E-009
                    22 -1.411800557538306E-009
                    23  9.715768891796848E-005
                    24 -2.658815960420916E-005
                    25 -2.821096236976041E-009
                    26  1.384489912813086E-004
                    27 -5.589147512192648E-005
                    28 -4.676180924382554E-009
                    29  9.467324768614919E-010
                    30  1.253361275669595E-004
                    31  3.352075653343019E-005
                    32   1.00096626321384     
                    33  8.815439615286665E-003
                    34  2.775697294999175E-003
                    35 -8.213821194759800E-003
                    36 -2.675650815197982E-003
                    37  6.866737080805503E-004
                    38 -5.163901205212864E-009
                    39  1.068558297305000E-003
                    40 -2.363999490907902E-004
                    41  8.680629347419412E-010
                    42  3.499009758485432E-003
                    43 -1.289778076741398E-004
                    44 -5.117106156869425E-008
                    45  2.921777638398492E-004
                    46 -1.539454103181490E-009
                    47  3.259495849826546E-010
                    48  4.236990984736002E-004
                    49 -2.645017029210015E-005
                    50 -1.050279104557742E-003
                    51  3.385625290834895E-010
                    52 -9.769326282063422E-010
                    53 -1.023880229843503E-004
                    54  3.901312507360099E-005
                    55  2.982058328895153E-009
                    56  3.144680008580406E-004
                    57 -8.356051396703455E-006
                    58  1.649686175962773E-009
                    59 -3.934984585171569E-010
                    60  8.641592863471977E-005
                    61  1.762825297673103E-005
                    62  1.253901110174461E-002
                    63 -1.881541743108343E-003
                    64 -3.114675687174305E-004
                    65  3.152003768171883E-003
                    66 -1.268180712800406E-004
                    67  1.153384023486666E-004
                    68  2.405581468511438E-004
                    69  2.806881743936326E-005
                    70  1.375057542097441E-006
                    71  5.243665143209660E-004
                    72  1.528771751835716E-004
                    73 -3.199422248091267E-005
                    74 -1.840807291025411E-003
                    75 -1.165608874222116E-005
                    76  2.463150634426759E-005
                    77  8.331366752727802E-006
                    78 -3.524243236077950E-005
                    79 -4.643561286714357E-006
                    80 -4.185903454264455E-004
                    81 -4.663809259392784E-004
                    82 -8.848107008922776E-007
                    83  7.602080793567998E-004
                    84 -2.814960979011939E-006
                    85  5.105676187170173E-005
                    86  1.083321799874160E-004
                    87  2.870466733507026E-007
                    88 -1.637418593679181E-005
                    89 -6.904542271857558E-006
                    90 -2.986503475626103E-005
                    91  5.012285011629203E-006
                    92  1.253900366323464E-002
                    93 -1.881590221053175E-003
                    94 -3.114946086009772E-004
                    95  3.152124190463912E-003
                    96 -1.268322788460863E-004
                    97  1.153383467897595E-004
                    98 -2.405586066054519E-004
                    99  2.814276193112723E-005
                   100  1.374745896448848E-006
                   101 -5.243667490311662E-004
                   102  1.527728488343511E-004
                   103 -3.199346950851111E-005
                   104  1.840884440109621E-003
                   105 -1.165966504403965E-005
                   106 -2.463477072558647E-005
                   107 -8.331407967880214E-006
                   108 -3.523484987019034E-005
                   109 -4.643544952215789E-006
                   110 -4.186197932476063E-004
                   111  4.664122820927021E-004
                   112  8.839878543799068E-007
                   113  7.602382283731526E-004
                   114 -2.815635317555544E-006
                   115 -5.105737769090380E-005
                   116  1.083247606588840E-004
                   117  2.874179495987873E-007
                   118  1.637376334552815E-005
                   119  6.904823092030468E-006
                   120 -2.987135547467125E-005
                   121  5.012187538676709E-006
                   122 -1.421390611431003E-004
                   123 -7.058249362628437E-004
                   124  2.524066834390676E-004
                   125 -3.198674317076989E-004
                   126 -2.049062970790898E-004
                   127  1.892634766898706E-005
                   128 -4.149886576392040E-005
                   129  6.020222928933070E-004
                   130 -1.132936259089873E-006
                   131  3.972990455568593E-005
                   132  5.820294236189078E-004
                   133  4.056647875520488E-006
                   134  3.391822678658634E-004
                   135 -1.420984771164829E-007
                   136  4.214682253189036E-005
                   137  1.581045476815179E-007
                   138 -3.369442688307710E-005
                   139 -1.404144756877129E-006
                   140  1.937590679283739E-004
                   141 -2.592227479817566E-004
                   142  1.425907920724381E-006
                   143 -2.656433835408584E-004
                   144 -4.651640245903008E-006
                   145 -1.810524915837934E-005
                   146  1.363702839267210E-005
                   147  7.266218826640985E-008
                   148 -1.323577584830820E-005
                   149 -2.032705198841321E-006
                   150 -2.576813098359680E-005
                   151 -5.980591297436898E-007
                   152 -1.419531859853633E-004
                   153 -7.052015024999664E-004
                   154  2.524559769740687E-004
                   155 -3.205562628748444E-004
                   156 -2.049065037255644E-004
                   157  1.892687315834228E-005
                   158  4.149042387133076E-005
                   159  6.020449435582810E-004
                   160 -1.134301866767052E-006