[Molden Format]
[Atoms] AU
  N     1    7    -4.4519150800    0.1645695100   -0.0000004400        
  C     2    6    -1.7695092000   -0.0145096000   -0.0000001700        
  C     3    6    -0.4270927200   -0.0061402300   -2.2691546100        
  C     4    6    -0.4270931100   -0.0061391100    2.2691544900        
  C     5    6     2.1889955900   -0.0004823800   -2.2566388900        
  C     6    6     2.1889952100   -0.0004812700    2.2566392100        
  C     7    6     3.5149715000    0.0022090000    0.0000002700        
  H     8    1    -5.2412522300   -0.7792446300   -1.6754556700        
  H     9    1    -5.2412525100   -0.7792438000    1.6754551200        
  H    10    1    -1.4305344500   -0.0005073500   -4.0318143700        
  H    11    1    -1.4305351200   -0.0005053700    4.0318140800        
  H    12    1     3.1914120400   -0.0010699000   -4.0209976100        
  H    13    1     3.1914113700   -0.0010679200    4.0209980900        
  H    14    1     5.5428332300    0.0050250700    0.0000004400        
[5D]
[7F]
[GTO]
  1  0
   s    12 1.00
  0.114200D+05  0.172695D-04
  0.171200D+04  0.134411D-03
  0.389300D+03  0.694561D-03
  0.110000D+03  0.278531D-02
  0.355700D+02  0.863457D-02
  0.125400D+02  0.199805D-01
  0.464400D+01  0.262908D-01
  0.129300D+01 -0.243845D-01
  0.511800D+00 -0.924934D-01
  0.178700D+00 -0.339683D+00
  0.246240D-01  0.345111D+00
  0.112530D-01  0.752750D+00
   s    10 1.00
  0.114200D+05  0.523000D-03
  0.171200D+04  0.404500D-02
  0.389300D+03  0.207750D-01
  0.110000D+03  0.807269D-01
  0.355700D+02  0.233074D+00
  0.125400D+02  0.433501D+00
  0.464400D+01  0.347472D+00
  0.129300D+01  0.412620D-01
  0.511800D+00 -0.850799D-02
  0.178700D+00  0.238400D-02
   s    10 1.00
  0.114200D+05 -0.115000D-03
  0.171200D+04 -0.895000D-03
  0.389300D+03 -0.462400D-02
  0.110000D+03 -0.185280D-01
  0.355700D+02 -0.573390D-01
  0.125400D+02 -0.132076D+00
  0.464400D+01 -0.172510D+00
  0.129300D+01  0.151814D+00
  0.511800D+00  0.599944D+00
  0.178700D+00  0.387462D+00
   s     1 1.00
  0.129300D+01  0.100000D+01
   s     1 1.00
  0.178700D+00  0.100000D+01
   p     5 1.00
  0.266300D+02  0.146700D-01
  0.594800D+01  0.917640D-01
  0.174200D+01  0.298683D+00
  0.555000D+00  0.498487D+00
  0.172500D+00  0.337023D+00
   p     1 1.00
  0.174200D+01  0.100000D+01
   p     1 1.00
  0.555000D+00  0.100000D+01
   d     1 1.00
  0.165400D+01  0.100000D+01
   d     1 1.00
  0.469000D+00  0.100000D+01
   f     1 1.00
  0.109300D+01  0.100000D+01
  
  2  0
   s    10 1.00
  0.823600D+04  0.531000D-03
  0.123500D+04  0.410800D-02
  0.280800D+03  0.210870D-01
  0.792700D+02  0.818530D-01
  0.255900D+02  0.234817D+00
  0.899700D+01  0.434401D+00
  0.331900D+01  0.346129D+00
  0.905900D+00  0.393780D-01
  0.364300D+00 -0.898300D-02
  0.128500D+00  0.238500D-02
   s    10 1.00
  0.823600D+04 -0.113000D-03
  0.123500D+04 -0.878000D-03
  0.280800D+03 -0.454000D-02
  0.792700D+02 -0.181330D-01
  0.255900D+02 -0.557600D-01
  0.899700D+01 -0.126895D+00
  0.331900D+01 -0.170352D+00
  0.905900D+00  0.140382D+00
  0.364300D+00  0.598684D+00
  0.128500D+00  0.395389D+00
   s     1 1.00
  0.905900D+00  0.100000D+01
   s     1 1.00
  0.364300D+00  0.100000D+01
   p     5 1.00
  0.187100D+02  0.140310D-01
  0.413300D+01  0.868660D-01
  0.120000D+01  0.290216D+00
  0.382700D+00  0.501008D+00
  0.120900D+00  0.343406D+00
   p     1 1.00
  0.382700D+00  0.100000D+01
   p     1 1.00
  0.120900D+00  0.100000D+01
   d     1 1.00
  0.109700D+01  0.100000D+01
   d     1 1.00
  0.318000D+00  0.100000D+01
   f     1 1.00
  0.761000D+00  0.100000D+01
  
  3  0
   s    10 1.00
  0.823600D+04  0.531000D-03
  0.123500D+04  0.410800D-02
  0.280800D+03  0.210870D-01
  0.792700D+02  0.818530D-01
  0.255900D+02  0.234817D+00
  0.899700D+01  0.434401D+00
  0.331900D+01  0.346129D+00
  0.905900D+00  0.393780D-01
  0.364300D+00 -0.898300D-02
  0.128500D+00  0.238500D-02
   s    10 1.00
  0.823600D+04 -0.113000D-03
  0.123500D+04 -0.878000D-03
  0.280800D+03 -0.454000D-02
  0.792700D+02 -0.181330D-01
  0.255900D+02 -0.557600D-01
  0.899700D+01 -0.126895D+00
  0.331900D+01 -0.170352D+00
  0.905900D+00  0.140382D+00
  0.364300D+00  0.598684D+00
  0.128500D+00  0.395389D+00
   s     1 1.00
  0.905900D+00  0.100000D+01
   s     1 1.00
  0.364300D+00  0.100000D+01
   p     5 1.00
  0.187100D+02  0.140310D-01
  0.413300D+01  0.868660D-01
  0.120000D+01  0.290216D+00
  0.382700D+00  0.501008D+00
  0.120900D+00  0.343406D+00
   p     1 1.00
  0.382700D+00  0.100000D+01
   p     1 1.00
  0.120900D+00  0.100000D+01
   d     1 1.00
  0.109700D+01  0.100000D+01
   d     1 1.00
  0.318000D+00  0.100000D+01
   f     1 1.00
  0.761000D+00  0.100000D+01
  
  4  0
   s    10 1.00
  0.823600D+04  0.531000D-03
  0.123500D+04  0.410800D-02
  0.280800D+03  0.210870D-01
  0.792700D+02  0.818530D-01
  0.255900D+02  0.234817D+00
  0.899700D+01  0.434401D+00
  0.331900D+01  0.346129D+00
  0.905900D+00  0.393780D-01
  0.364300D+00 -0.898300D-02
  0.128500D+00  0.238500D-02
   s    10 1.00
  0.823600D+04 -0.113000D-03
  0.123500D+04 -0.878000D-03
  0.280800D+03 -0.454000D-02
  0.792700D+02 -0.181330D-01
  0.255900D+02 -0.557600D-01
  0.899700D+01 -0.126895D+00
  0.331900D+01 -0.170352D+00
  0.905900D+00  0.140382D+00
  0.364300D+00  0.598684D+00
  0.128500D+00  0.395389D+00
   s     1 1.00
  0.905900D+00  0.100000D+01
   s     1 1.00
  0.364300D+00  0.100000D+01
   p     5 1.00
  0.187100D+02  0.140310D-01
  0.413300D+01  0.868660D-01
  0.120000D+01  0.290216D+00
  0.382700D+00  0.501008D+00
  0.120900D+00  0.343406D+00
   p     1 1.00
  0.382700D+00  0.100000D+01
   p     1 1.00
  0.120900D+00  0.100000D+01
   d     1 1.00
  0.109700D+01  0.100000D+01
   d     1 1.00
  0.318000D+00  0.100000D+01
   f     1 1.00
  0.761000D+00  0.100000D+01
  
  5  0
   s    10 1.00
  0.823600D+04  0.531000D-03
  0.123500D+04  0.410800D-02
  0.280800D+03  0.210870D-01
  0.792700D+02  0.818530D-01
  0.255900D+02  0.234817D+00
  0.899700D+01  0.434401D+00
  0.331900D+01  0.346129D+00
  0.905900D+00  0.393780D-01
  0.364300D+00 -0.898300D-02
  0.128500D+00  0.238500D-02
   s    10 1.00
  0.823600D+04 -0.113000D-03
  0.123500D+04 -0.878000D-03
  0.280800D+03 -0.454000D-02
  0.792700D+02 -0.181330D-01
  0.255900D+02 -0.557600D-01
  0.899700D+01 -0.126895D+00
  0.331900D+01 -0.170352D+00
  0.905900D+00  0.140382D+00
  0.364300D+00  0.598684D+00
  0.128500D+00  0.395389D+00
   s     1 1.00
  0.905900D+00  0.100000D+01
   s     1 1.00
  0.364300D+00  0.100000D+01
   p     5 1.00
  0.187100D+02  0.140310D-01
  0.413300D+01  0.868660D-01
  0.120000D+01  0.290216D+00
  0.382700D+00  0.501008D+00
  0.120900D+00  0.343406D+00
   p     1 1.00
  0.382700D+00  0.100000D+01
   p     1 1.00
  0.120900D+00  0.100000D+01
   d     1 1.00
  0.109700D+01  0.100000D+01
   d     1 1.00
  0.318000D+00  0.100000D+01
   f     1 1.00
  0.761000D+00  0.100000D+01
  
  6  0
   s    10 1.00
  0.823600D+04  0.531000D-03
  0.123500D+04  0.410800D-02
  0.280800D+03  0.210870D-01
  0.792700D+02  0.818530D-01
  0.255900D+02  0.234817D+00
  0.899700D+01  0.434401D+00
  0.331900D+01  0.346129D+00
  0.905900D+00  0.393780D-01
  0.364300D+00 -0.898300D-02
  0.128500D+00  0.238500D-02
   s    10 1.00
  0.823600D+04 -0.113000D-03
  0.123500D+04 -0.878000D-03
  0.280800D+03 -0.454000D-02
  0.792700D+02 -0.181330D-01
  0.255900D+02 -0.557600D-01
  0.899700D+01 -0.126895D+00
  0.331900D+01 -0.170352D+00
  0.905900D+00  0.140382D+00
  0.364300D+00  0.598684D+00
  0.128500D+00  0.395389D+00
   s     1 1.00
  0.905900D+00  0.100000D+01
   s     1 1.00
  0.364300D+00  0.100000D+01
   p     5 1.00
  0.187100D+02  0.140310D-01
  0.413300D+01  0.868660D-01
  0.120000D+01  0.290216D+00
  0.382700D+00  0.501008D+00
  0.120900D+00  0.343406D+00
   p     1 1.00
  0.382700D+00  0.100000D+01
   p     1 1.00
  0.120900D+00  0.100000D+01
   d     1 1.00
  0.109700D+01  0.100000D+01
   d     1 1.00
  0.318000D+00  0.100000D+01
   f     1 1.00
  0.761000D+00  0.100000D+01
  
  7  0
   s    10 1.00
  0.823600D+04  0.531000D-03
  0.123500D+04  0.410800D-02
  0.280800D+03  0.210870D-01
  0.792700D+02  0.818530D-01
  0.255900D+02  0.234817D+00
  0.899700D+01  0.434401D+00
  0.331900D+01  0.346129D+00
  0.905900D+00  0.393780D-01
  0.364300D+00 -0.898300D-02
  0.128500D+00  0.238500D-02
   s    10 1.00
  0.823600D+04 -0.113000D-03
  0.123500D+04 -0.878000D-03
  0.280800D+03 -0.454000D-02
  0.792700D+02 -0.181330D-01
  0.255900D+02 -0.557600D-01
  0.899700D+01 -0.126895D+00
  0.331900D+01 -0.170352D+00
  0.905900D+00  0.140382D+00
  0.364300D+00  0.598684D+00
  0.128500D+00  0.395389D+00
   s     1 1.00
  0.905900D+00  0.100000D+01
   s     1 1.00
  0.364300D+00  0.100000D+01
   p     5 1.00
  0.187100D+02  0.140310D-01
  0.413300D+01  0.868660D-01
  0.120000D+01  0.290216D+00
  0.382700D+00  0.501008D+00
  0.120900D+00  0.343406D+00
   p     1 1.00
  0.382700D+00  0.100000D+01
   p     1 1.00
  0.120900D+00  0.100000D+01
   d     1 1.00
  0.109700D+01  0.100000D+01
   d     1 1.00
  0.318000D+00  0.100000D+01
   f     1 1.00
  0.761000D+00  0.100000D+01
  
  8  0
   s     4 1.00
  0.130100D+02  0.196850D-01
  0.196200D+01  0.137977D+00
  0.444600D+00  0.478148D+00
  0.122000D+00  0.501240D+00
   s     1 1.00
  0.122000D+00  0.100000D+01
   p     1 1.00
  0.727000D+00  0.100000D+01
  
  9  0
   s     4 1.00
  0.130100D+02  0.196850D-01
  0.196200D+01  0.137977D+00
  0.444600D+00  0.478148D+00
  0.122000D+00  0.501240D+00
   s     1 1.00
  0.122000D+00  0.100000D+01
   p     1 1.00
  0.727000D+00  0.100000D+01
  
 10  0
   s     4 1.00
  0.130100D+02  0.196850D-01
  0.196200D+01  0.137977D+00
  0.444600D+00  0.478148D+00
  0.122000D+00  0.501240D+00
   s     1 1.00
  0.122000D+00  0.100000D+01
   p     1 1.00
  0.727000D+00  0.100000D+01
  
 11  0
   s     4 1.00
  0.130100D+02  0.196850D-01
  0.196200D+01  0.137977D+00
  0.444600D+00  0.478148D+00
  0.122000D+00  0.501240D+00
   s     1 1.00
  0.122000D+00  0.100000D+01
   p     1 1.00
  0.727000D+00  0.100000D+01
  
 12  0
   s     4 1.00
  0.130100D+02  0.196850D-01
  0.196200D+01  0.137977D+00
  0.444600D+00  0.478148D+00
  0.122000D+00  0.501240D+00
   s     1 1.00
  0.122000D+00  0.100000D+01
   p     1 1.00
  0.727000D+00  0.100000D+01
  
 13  0
   s     4 1.00
  0.130100D+02  0.196850D-01
  0.196200D+01  0.137977D+00
  0.444600D+00  0.478148D+00
  0.122000D+00  0.501240D+00
   s     1 1.00
  0.122000D+00  0.100000D+01
   p     1 1.00
  0.727000D+00  0.100000D+01
  
 14  0
   s     4 1.00
  0.130100D+02  0.196850D-01
  0.196200D+01  0.137977D+00
  0.444600D+00  0.478148D+00
  0.122000D+00  0.501240D+00
   s     1 1.00
  0.122000D+00  0.100000D+01
   p     1 1.00
  0.727000D+00  0.100000D+01
  
[MO]
 Sym= __1_a__
 Ene=  0.000000000000000E+000
 Spin= Alpha
 Occup=    2.00000000000000     
                     1  1.977464480297070E-004
                     2  0.998302782202519     
                     3  2.876636649196300E-003
                     4  1.688749611515110E-003
                     5  5.613353037968990E-003
                     6  5.650938837617440E-003
                     7 -4.781209286891300E-003
                     8 -4.584043938864180E-009
                     9 -7.584392747569370E-004
                    10  3.255670138363950E-004
                    11  2.985486438244600E-009
                    12 -1.510166687918260E-003
                    13  3.182308962284520E-003
                    14 -9.079731234940951E-009
                    15 -5.271892618656964E-005
                    16 -1.045823303040860E-009
                    17  8.164551968401800E-011
                    18  8.258009590030601E-005
                    19  3.213943809183680E-005
                    20 -3.870928211711237E-004
                    21  3.479709404443020E-009
                    22  2.342322994077680E-009
                    23  4.599389950794680E-005
                    24 -4.910164081251020E-004
                    25  4.664980541821236E-009
                    26 -1.037121580049783E-004
                    27 -1.978023779805522E-005
                    28  7.331414593182420E-009
                    29 -1.595946075528320E-009
                    30 -7.947012883321867E-005
                    31 -5.772791478056540E-005
                    32 -3.894401219088890E-004
                    33  8.030636665555060E-004
                    34  2.377746020860240E-004
                    35 -9.341769004111460E-005
                    36 -4.104518310174660E-003
                    37 -4.197809487735030E-005
                    38  5.103864870838980E-009
                    39  1.423328456869840E-004
                    40 -8.132422362305071E-006
                    41 -3.218928022274630E-009
                    42  4.939793394977410E-003
                    43  8.026095336630480E-004
                    44  8.685321915203161E-008
                    45 -2.141474510007524E-004
                    46  3.182389004181620E-009
                    47 -9.454661886189190E-011
                    48  1.945065410244770E-004
                    49  4.621302919140960E-005
                    50  4.238029788820415E-004
                    51 -2.174528049495330E-008
                    52 -9.338168040450450E-011
                    53 -2.634476584207760E-005
                    54 -3.595726487600480E-004
                    55 -6.186547404003142E-009
                    56 -5.710264688353511E-005
                    57  7.417690496186730E-006
                    58 -4.125716031964660E-009
                    59  4.978853004152850E-010
                    60 -3.167141536057711E-005
                    61  4.139164353877692E-005
                    62 -3.644394370216530E-004
                    63 -1.754643379244060E-003
                    64  9.384111145935430E-005
                    65  8.665497420556130E-004
                    66  5.162987308289291E-004
                    67 -1.105791438509210E-004
                    68 -5.514255935084080E-004
                    69  5.850106139186820E-004
                    70  8.508254447626890E-005
                    71  1.114323433170280E-004
                    72 -4.946269899694660E-004
                    73 -3.602858262779400E-004
                    74 -8.557813489898980E-004
                    75 -6.990036754843996E-005
                    76 -1.134689411599780E-005
                    77  1.907757018336220E-005
                    78  6.086707901433400E-005
                    79 -9.929584231064679E-006
                    80  1.671593946679302E-004
                    81  1.485922706906500E-004
                    82 -3.142560797514060E-005
                    83 -1.079058105725998E-004
                    84  5.445295734821690E-005
                    85 -9.214260322793990E-006
                    86 -5.799540053618036E-005
                    87  2.074179520630769E-005
                    88 -1.124135113987024E-005
                    89  1.238877755121430E-005
                    90 -4.668280886498959E-005
                    91 -1.089781920801913E-005
                    92 -3.644262823305510E-004
                    93 -1.754591783484990E-003
                    94  9.389226732796771E-005
                    95  8.663818269627180E-004
                    96  5.163277607245970E-004
                    97 -1.105789444192590E-004
                    98  5.514286758078970E-004
                    99  5.848524304827230E-004
                   100  8.508202100011850E-005
                   101 -1.114569860551390E-004
                   102 -4.944507094742890E-004
                   103 -3.602854824401440E-004
                   104  8.556227109864160E-004
                   105 -6.989542090252152E-005
                   106  1.135183180091890E-005
                   107 -1.907745532290340E-005
                   108  6.085800413541720E-005
                   109 -9.929547523975690E-006
                   110  1.672370415097375E-004
                   111 -1.486450444257880E-004
                   112  3.142568639927050E-005
                   113 -1.080015727634446E-004
                   114  5.445194193248710E-005
                   115  9.217779109758424E-006
                   116 -5.797971485125882E-005
                   117  2.074165071514376E-005
                   118  1.124342165975694E-005
                   119 -1.238881720944100E-005
                   120 -4.666746847223151E-005
                   121 -1.089795454894790E-005
                   122 -1.915754823117660E-004
                   123 -3.420917296253770E-004
                   124  5.453931997131310E-005
                   125  5.510249817572410E-004
                   126 -5.018719986705810E-004
                   127 -4.872168927940320E-005
                   128  1.792721466979320E-005
                   129  2.239678015323230E-004
                   130 -2.548985164036330E-005
                   131  2.809192299524480E-005
                   132  8.508936450570410E-004
                   133  1.609671343965720E-004
                   134 -2.755571350101930E-004
                   135  5.704171367297937E-006
                   136 -6.106523565133000E-007
                   137 -4.269214582102440E-006
                   138 -4.040219709016360E-007
                   139  9.724421445993671E-006
                   140  7.713866682954038E-005
                   141  1.783292797124560E-004
                   142  9.111548322143940E-006
                   143 -1.884926908917776E-004
                   144 -1.525299052103860E-005
                   145 -1.015862578948038E-005
                   146 -1.560701579680214E-005
                   147  2.629800643243736E-006
                   148 -2.550712743833980E-006
                   149 -2.335985008949480E-006
                   150 -4.501014397464068E-005
                   151 -1.987238329019655E-006
                   152 -1.917654052413580E-004
                   153 -3.427584568336850E-004
                   154  5.437565302233870E-005
                   155  5.521306364833360E-004
                   156 -5.018709797753880E-004
                   157 -4.872160191922520E-005
                   158 -1.790294951676520E-005
                   159  2.239165759271860E-004
                   160 -2.549011408190510E-005
                   161 -2.825323316913170E-005
                   162  8.510591602193570E-004
                   163  1.609676778848570E-004
                   164  2.757130912928890E-004
                   165  5.713120238503196E-006
                   166  6.071842794012640E-007
                   167  4.268755560849520E-006
                   168 -3.797211179139420E-007
                   169  9.724454591164720E-006
                   170  7.715044695098579E-005
                   171 -1.784364142799360E-004
                   172 -9.111185574593361E-006
                   173 -1.884592890659132E-004
                   174 -1.525362246651440E-005
                   175  1.016036186770207E-005
                   176 -1.557238780485339E-005
                   177  2.629769104327531E-006
                   178  2.547382211991940E-006
                   179  2.336066930892500E-006
                   180 -4.499969230151299E-005
                   181 -1.987263228753958E-006
                   182 -1.253828669673850E-004
                   183 -3.866262379255260E-004
                   184  2.894601182287080E-005
                   185  1.567815384727360E-004
                   186 -2.088107924010610E-005
                   187 -5.676469159845570E-005
                   188  3.441648835805890E-008
                   189  1.000270202358330E-004
                   190  2.248468938458990E-005
                   191 -1.866382746686140E-007
                   192 -3.711206104260030E-004
                   193 -1.110148465426670E-004
                   194 -6.886599261370979E-008
                   195 -9.415266984392072E-006
                   196  1.026892818057870E-008
                   197 -2.483805745919280E-011
                   198  3.866690491634020E-006
                   199 -2.250932328124480E-006
                   200 -1.112587132595843E-004
                   201  9.233428088514310E-008
                   202  5.901773806745320E-010
                   203  5.776872872950760E-005
                   204  1.842443311056020E-005
                   205  7.053106566214516E-009
                   206  2.247679133789592E-006
                   207  3.287456762752433E-006
                   208 -8.574968773451700E-009
                   209 -8.206153918881580E-011
                   210 -5.844436883858045E-006
                   211 -2.945510085383007E-006
                   212  1.977228808525850E-003
                   213 -1.686628107452600E-003
                   214  1.787431773316370E-004
                   215  2.946944937760550E-004
                   216  3.414389678198400E-004
                   217  1.977234195360300E-003
                   218 -1.686633417170930E-003
                   219  1.787461136431460E-004
                   220  2.946965236840620E-004
                   221 -3.414429738415610E-004
                   222 -4.446296647846840E-004
                   223 -3.646936733514390E-004
                   224 -5.867876494791360E-005
                   225  9.783141904854771E-006
                   226  3.978890626038700E-005
                   227 -4.446515132364820E-004
                   228 -3.645535557714170E-004
                   229 -5.868436825014310E-005
                   230  9.783080441522459E-006
                   231 -3.979266334757960E-005
                   232 -1.012151568143750E-004
                   233 -4.743035615326970E-004
                   234  3.417486722357440E-006
                   235 -1.901088160912310E-006
                   236 -7.669280869629840E-006
                   237 -1.012315762945170E-004
                   238 -4.743696113956980E-004
                   239  3.436303360926620E-006
                   240 -1.901074893875010E-006
                   241  7.685585031629190E-006
                   242  1.115025504564740E-005
                   243  1.146611503532210E-004
                   244  2.993383583864480E-005
                   245  1.587587807782270E-006
                   246 -8.752185866315630E-009
 Sym= __2_a__
 Ene=  0.000000000000000E+000
 Spin= Alpha
 Occup=    2.00000000000000     
                     1 -2.524813480048700E-005
                     2 -9.006087836819410E-005
                     3  2.156550335154530E-003
                     4 -1.327197833816380E-005
                     5  1.214832777668270E-003
                     6  2.009640087455840E-003
                     7  2.366975174197610E-004
                     8  3.878585184080630E-009
                     9 -1.430275307173900E-004
                    10  9.695352353742200E-005
                    11 -2.303117508332810E-009
                    12  1.052149773888790E-005
                    13  3.101746666015570E-005
                    14  2.543273478803470E-009
                    15 -7.352796572627178E-005
                    16  7.104660350461310E-010
                    17 -8.259992145538159E-011
                    18  4.135941251692300E-005
                    19 -4.374810200261460E-006
                    20  1.723389242602561E-004
                    21 -4.789010049262380E-009
                    22 -1.411800557538310E-009
                    23  9.715768891796840E-005
                    24 -2.658815960420920E-005
                    25 -2.821096236976036E-009
                    26  1.384489912813083E-004
                    27 -5.589147512192646E-005
                    28 -4.676180924382560E-009
                    29  9.467324768614921E-010
                    30  1.253361275669595E-004
                    31  3.352075653343018E-005
                    32   1.00096626321384     
                    33  8.815439615286660E-003
                    34  2.775697294999170E-003
                    35 -8.213821194759800E-003
                    36 -2.675650815197980E-003
                    37  6.866737080805500E-004
                    38 -5.163901205212860E-009
                    39  1.068558297305000E-003
                    40 -2.363999490907900E-004
                    41  8.680629347419410E-010
                    42  3.499009758485430E-003
                    43 -1.289778076741400E-004
                    44 -5.117106156869430E-008
                    45  2.921777638398495E-004
                    46 -1.539454103181490E-009
                    47  3.259495849826550E-010
                    48  4.236990984736000E-004
                    49 -2.645017029210010E-005
                    50 -1.050279104557743E-003
                    51  3.385625290834890E-010
                    52 -9.769326282063420E-010
                    53 -1.023880229843502E-004
                    54  3.901312507360100E-005
                    55  2.982058328895140E-009
                    56  3.144680008580404E-004
                    57 -8.356051396703480E-006
                    58  1.649686175962772E-009
                    59 -3.934984585171570E-010
                    60  8.641592863471977E-005
                    61  1.762825297673101E-005
                    62  1.253901110174460E-002
                    63 -1.881541743108340E-003
                    64 -3.114675687174310E-004
                    65  3.152003768171880E-003
                    66 -1.268180712800410E-004
                    67  1.153384023486670E-004
                    68  2.405581468511440E-004
                    69  2.806881743936330E-005
                    70  1.375057542097440E-006
                    71  5.243665143209660E-004
                    72  1.528771751835720E-004
                    73 -3.199422248091270E-005
                    74 -1.840807291025410E-003
                    75 -1.165608874222117E-005
                    76  2.463150634426760E-005
                    77  8.331366752727800E-006
                    78 -3.524243236077960E-005
                    79 -4.643561286714360E-006
                    80 -4.185903454264442E-004
                    81 -4.663809259392780E-004
                    82 -8.848107008922780E-007
                    83  7.602080793567999E-004
                    84 -2.814960979011940E-006
                    85  5.105676187170182E-005
                    86  1.083321799874161E-004
                    87  2.870466733507023E-007
                    88 -1.637418593679180E-005
                    89 -6.904542271857560E-006
                    90 -2.986503475626099E-005
                    91  5.012285011629188E-006
                    92  1.253900366323460E-002
                    93 -1.881590221053170E-003
                    94 -3.114946086009770E-004
                    95  3.152124190463910E-003
                    96 -1.268322788460860E-004
                    97  1.153383467897600E-004
                    98 -2.405586066054520E-004
                    99  2.814276193112720E-005
                   100  1.374745896448850E-006
                   101 -5.243667490311660E-004
                   102  1.527728488343510E-004
                   103 -3.199346950851110E-005
                   104  1.840884440109620E-003
                   105 -1.165966504403965E-005
                   106 -2.463477072558650E-005
                   107 -8.331407967880211E-006
                   108 -3.523484987019040E-005
                   109 -4.643544952215790E-006
                   110 -4.186197932476080E-004
                   111  4.664122820927020E-004
                   112  8.839878543799070E-007
                   113  7.602382283731520E-004
                   114 -2.815635317555540E-006
                   115 -5.105737769090392E-005
                   116  1.083247606588842E-004
                   117  2.874179495987872E-007
                   118  1.637376334552816E-005
                   119  6.904823092030470E-006
                   120 -2.987135547467119E-005
                   121  5.012187538676700E-006
                   122 -1.421390611431000E-004
                   123 -7.058249362628440E-004
                   124  2.524066834390680E-004
                   125 -3.198674317076990E-004
                   126 -2.049062970790900E-004
                   127  1.892634766898710E-005
                   128 -4.149886576392040E-005
                   129  6.020222928933070E-004
                   130 -1.132936259089870E-006
                   131  3.972990455568590E-005
                   132  5.820294236189080E-004
                   133  4.056647875520490E-006
                   134  3.391822678658630E-004
                   135 -1.420984771164827E-007
                   136  4.214682253189040E-005
                   137  1.581045476815180E-007
                   138 -3.369442688307700E-005
                   139 -1.404144756877130E-006
                   140  1.937590679283738E-004
                   141 -2.592227479817570E-004
                   142  1.425907920724380E-006
                   143 -2.656433835408580E-004
                   144 -4.651640245903010E-006
                   145 -1.810524915837933E-005
                   146  1.363702839267207E-005
                   147  7.266218826640958E-008
                   148 -1.323577584830820E-005
                   149 -2.032705198841320E-006
                   150 -2.576813098359673E-005
                   151 -5.980591297436922E-007
                   152 -1.419531859853630E-004
                   153 -7.052015024999660E-004
                   154  2.524559769740690E-004
                   155 -3.205562628748440E-004
                   156 -2.049065037255640E-004
                   157  1.892687315834230E-005
                   158  4.149042387133080E-005
                   159  6.020449435582810E-004
                   160 -1.134301866767050E-006