[Molden Format]
[Atoms] AU
  N     1    7    -4.5082829200   -0.1342819900   -0.4228200100        
  C     2    6    -1.7496705200   -0.0824342700   -0.1838819400        
  C     3    6    -0.3491890900    0.2202010900   -2.3813599000        
  C     4    6    -0.4819141000   -0.3194027500    2.1144844200        
  C     5    6     2.2679837200    0.2851297300   -2.2867536700        
  C     6    6     2.1285900100   -0.2535069600    2.1993448600        
  C     7    6     3.5096699900    0.0491470500   -0.0030301700        
  H     8    1    -5.2360393300   -2.3263659700    0.8673061800        
  H     9    1    -5.1331481600    1.1861733600    0.8837931500        
  H    10    1    -1.3260875200    0.4019365300   -4.1451509600        
  H    11    1    -1.5448115400   -0.5543420500    3.8263524900        
  H    12    1     3.3318141500    0.5199799700   -3.9976458500        
  H    13    1     3.0845146800   -0.4378414600    3.9798216900        
  H    14    1     5.5368142800    0.0998677000    0.0666404700        
[5D]
[7F]
[GTO]
  1  0
   s    12 1.00
  0.114200D+05  0.172695D-04
  0.171200D+04  0.134411D-03
  0.389300D+03  0.694561D-03
  0.110000D+03  0.278531D-02
  0.355700D+02  0.863457D-02
  0.125400D+02  0.199805D-01
  0.464400D+01  0.262908D-01
  0.129300D+01 -0.243845D-01
  0.511800D+00 -0.924934D-01
  0.178700D+00 -0.339683D+00
  0.246240D-01  0.345111D+00
  0.112530D-01  0.752750D+00
   s    10 1.00
  0.114200D+05  0.523000D-03
  0.171200D+04  0.404500D-02
  0.389300D+03  0.207750D-01
  0.110000D+03  0.807269D-01
  0.355700D+02  0.233074D+00
  0.125400D+02  0.433501D+00
  0.464400D+01  0.347472D+00
  0.129300D+01  0.412620D-01
  0.511800D+00 -0.850799D-02
  0.178700D+00  0.238400D-02
   s    10 1.00
  0.114200D+05 -0.115000D-03
  0.171200D+04 -0.895000D-03
  0.389300D+03 -0.462400D-02
  0.110000D+03 -0.185280D-01
  0.355700D+02 -0.573390D-01
  0.125400D+02 -0.132076D+00
  0.464400D+01 -0.172510D+00
  0.129300D+01  0.151814D+00
  0.511800D+00  0.599944D+00
  0.178700D+00  0.387462D+00
   s     1 1.00
  0.129300D+01  0.100000D+01
   s     1 1.00
  0.178700D+00  0.100000D+01
   p     5 1.00
  0.266300D+02  0.146700D-01
  0.594800D+01  0.917640D-01
  0.174200D+01  0.298683D+00
  0.555000D+00  0.498487D+00
  0.172500D+00  0.337023D+00
   p     1 1.00
  0.174200D+01  0.100000D+01
   p     1 1.00
  0.555000D+00  0.100000D+01
   d     1 1.00
  0.165400D+01  0.100000D+01
   d     1 1.00
  0.469000D+00  0.100000D+01
   f     1 1.00
  0.109300D+01  0.100000D+01
  
  2  0
   s    10 1.00
  0.823600D+04  0.531000D-03
  0.123500D+04  0.410800D-02
  0.280800D+03  0.210870D-01
  0.792700D+02  0.818530D-01
  0.255900D+02  0.234817D+00
  0.899700D+01  0.434401D+00
  0.331900D+01  0.346129D+00
  0.905900D+00  0.393780D-01
  0.364300D+00 -0.898300D-02
  0.128500D+00  0.238500D-02
   s    10 1.00
  0.823600D+04 -0.113000D-03
  0.123500D+04 -0.878000D-03
  0.280800D+03 -0.454000D-02
  0.792700D+02 -0.181330D-01
  0.255900D+02 -0.557600D-01
  0.899700D+01 -0.126895D+00
  0.331900D+01 -0.170352D+00
  0.905900D+00  0.140382D+00
  0.364300D+00  0.598684D+00
  0.128500D+00  0.395389D+00
   s     1 1.00
  0.905900D+00  0.100000D+01
   s     1 1.00
  0.364300D+00  0.100000D+01
   p     5 1.00
  0.187100D+02  0.140310D-01
  0.413300D+01  0.868660D-01
  0.120000D+01  0.290216D+00
  0.382700D+00  0.501008D+00
  0.120900D+00  0.343406D+00
   p     1 1.00
  0.382700D+00  0.100000D+01
   p     1 1.00
  0.120900D+00  0.100000D+01
   d     1 1.00
  0.109700D+01  0.100000D+01
   d     1 1.00
  0.318000D+00  0.100000D+01
   f     1 1.00
  0.761000D+00  0.100000D+01
  
  3  0
   s    10 1.00
  0.823600D+04  0.531000D-03
  0.123500D+04  0.410800D-02
  0.280800D+03  0.210870D-01
  0.792700D+02  0.818530D-01
  0.255900D+02  0.234817D+00
  0.899700D+01  0.434401D+00
  0.331900D+01  0.346129D+00
  0.905900D+00  0.393780D-01
  0.364300D+00 -0.898300D-02
  0.128500D+00  0.238500D-02
   s    10 1.00
  0.823600D+04 -0.113000D-03
  0.123500D+04 -0.878000D-03
  0.280800D+03 -0.454000D-02
  0.792700D+02 -0.181330D-01
  0.255900D+02 -0.557600D-01
  0.899700D+01 -0.126895D+00
  0.331900D+01 -0.170352D+00
  0.905900D+00  0.140382D+00
  0.364300D+00  0.598684D+00
  0.128500D+00  0.395389D+00
   s     1 1.00
  0.905900D+00  0.100000D+01
   s     1 1.00
  0.364300D+00  0.100000D+01
   p     5 1.00
  0.187100D+02  0.140310D-01
  0.413300D+01  0.868660D-01
  0.120000D+01  0.290216D+00
  0.382700D+00  0.501008D+00
  0.120900D+00  0.343406D+00
   p     1 1.00
  0.382700D+00  0.100000D+01
   p     1 1.00
  0.120900D+00  0.100000D+01
   d     1 1.00
  0.109700D+01  0.100000D+01
   d     1 1.00
  0.318000D+00  0.100000D+01
   f     1 1.00
  0.761000D+00  0.100000D+01
  
  4  0
   s    10 1.00
  0.823600D+04  0.531000D-03
  0.123500D+04  0.410800D-02
  0.280800D+03  0.210870D-01
  0.792700D+02  0.818530D-01
  0.255900D+02  0.234817D+00
  0.899700D+01  0.434401D+00
  0.331900D+01  0.346129D+00
  0.905900D+00  0.393780D-01
  0.364300D+00 -0.898300D-02
  0.128500D+00  0.238500D-02
   s    10 1.00
  0.823600D+04 -0.113000D-03
  0.123500D+04 -0.878000D-03
  0.280800D+03 -0.454000D-02
  0.792700D+02 -0.181330D-01
  0.255900D+02 -0.557600D-01
  0.899700D+01 -0.126895D+00
  0.331900D+01 -0.170352D+00
  0.905900D+00  0.140382D+00
  0.364300D+00  0.598684D+00
  0.128500D+00  0.395389D+00
   s     1 1.00
  0.905900D+00  0.100000D+01
   s     1 1.00
  0.364300D+00  0.100000D+01
   p     5 1.00
  0.187100D+02  0.140310D-01
  0.413300D+01  0.868660D-01
  0.120000D+01  0.290216D+00
  0.382700D+00  0.501008D+00
  0.120900D+00  0.343406D+00
   p     1 1.00
  0.382700D+00  0.100000D+01
   p     1 1.00
  0.120900D+00  0.100000D+01
   d     1 1.00
  0.109700D+01  0.100000D+01
   d     1 1.00
  0.318000D+00  0.100000D+01
   f     1 1.00
  0.761000D+00  0.100000D+01
  
  5  0
   s    10 1.00
  0.823600D+04  0.531000D-03
  0.123500D+04  0.410800D-02
  0.280800D+03  0.210870D-01
  0.792700D+02  0.818530D-01
  0.255900D+02  0.234817D+00
  0.899700D+01  0.434401D+00
  0.331900D+01  0.346129D+00
  0.905900D+00  0.393780D-01
  0.364300D+00 -0.898300D-02
  0.128500D+00  0.238500D-02
   s    10 1.00
  0.823600D+04 -0.113000D-03
  0.123500D+04 -0.878000D-03
  0.280800D+03 -0.454000D-02
  0.792700D+02 -0.181330D-01
  0.255900D+02 -0.557600D-01
  0.899700D+01 -0.126895D+00
  0.331900D+01 -0.170352D+00
  0.905900D+00  0.140382D+00
  0.364300D+00  0.598684D+00
  0.128500D+00  0.395389D+00
   s     1 1.00
  0.905900D+00  0.100000D+01
   s     1 1.00
  0.364300D+00  0.100000D+01
   p     5 1.00
  0.187100D+02  0.140310D-01
  0.413300D+01  0.868660D-01
  0.120000D+01  0.290216D+00
  0.382700D+00  0.501008D+00
  0.120900D+00  0.343406D+00
   p     1 1.00
  0.382700D+00  0.100000D+01
   p     1 1.00
  0.120900D+00  0.100000D+01
   d     1 1.00
  0.109700D+01  0.100000D+01
   d     1 1.00
  0.318000D+00  0.100000D+01
   f     1 1.00
  0.761000D+00  0.100000D+01
  
  6  0
   s    10 1.00
  0.823600D+04  0.531000D-03
  0.123500D+04  0.410800D-02
  0.280800D+03  0.210870D-01
  0.792700D+02  0.818530D-01
  0.255900D+02  0.234817D+00
  0.899700D+01  0.434401D+00
  0.331900D+01  0.346129D+00
  0.905900D+00  0.393780D-01
  0.364300D+00 -0.898300D-02
  0.128500D+00  0.238500D-02
   s    10 1.00
  0.823600D+04 -0.113000D-03
  0.123500D+04 -0.878000D-03
  0.280800D+03 -0.454000D-02
  0.792700D+02 -0.181330D-01
  0.255900D+02 -0.557600D-01
  0.899700D+01 -0.126895D+00
  0.331900D+01 -0.170352D+00
  0.905900D+00  0.140382D+00
  0.364300D+00  0.598684D+00
  0.128500D+00  0.395389D+00
   s     1 1.00
  0.905900D+00  0.100000D+01
   s     1 1.00
  0.364300D+00  0.100000D+01
   p     5 1.00
  0.187100D+02  0.140310D-01
  0.413300D+01  0.868660D-01
  0.120000D+01  0.290216D+00
  0.382700D+00  0.501008D+00
  0.120900D+00  0.343406D+00
   p     1 1.00
  0.382700D+00  0.100000D+01
   p     1 1.00
  0.120900D+00  0.100000D+01
   d     1 1.00
  0.109700D+01  0.100000D+01
   d     1 1.00
  0.318000D+00  0.100000D+01
   f     1 1.00
  0.761000D+00  0.100000D+01
  
  7  0
   s    10 1.00
  0.823600D+04  0.531000D-03
  0.123500D+04  0.410800D-02
  0.280800D+03  0.210870D-01
  0.792700D+02  0.818530D-01
  0.255900D+02  0.234817D+00
  0.899700D+01  0.434401D+00
  0.331900D+01  0.346129D+00
  0.905900D+00  0.393780D-01
  0.364300D+00 -0.898300D-02
  0.128500D+00  0.238500D-02
   s    10 1.00
  0.823600D+04 -0.113000D-03
  0.123500D+04 -0.878000D-03
  0.280800D+03 -0.454000D-02
  0.792700D+02 -0.181330D-01
  0.255900D+02 -0.557600D-01
  0.899700D+01 -0.126895D+00
  0.331900D+01 -0.170352D+00
  0.905900D+00  0.140382D+00
  0.364300D+00  0.598684D+00
  0.128500D+00  0.395389D+00
   s     1 1.00
  0.905900D+00  0.100000D+01
   s     1 1.00
  0.364300D+00  0.100000D+01
   p     5 1.00
  0.187100D+02  0.140310D-01
  0.413300D+01  0.868660D-01
  0.120000D+01  0.290216D+00
  0.382700D+00  0.501008D+00
  0.120900D+00  0.343406D+00
   p     1 1.00
  0.382700D+00  0.100000D+01
   p     1 1.00
  0.120900D+00  0.100000D+01
   d     1 1.00
  0.109700D+01  0.100000D+01
   d     1 1.00
  0.318000D+00  0.100000D+01
   f     1 1.00
  0.761000D+00  0.100000D+01
  
  8  0
   s     4 1.00
  0.130100D+02  0.196850D-01
  0.196200D+01  0.137977D+00
  0.444600D+00  0.478148D+00
  0.122000D+00  0.501240D+00
   s     1 1.00
  0.122000D+00  0.100000D+01
   p     1 1.00
  0.727000D+00  0.100000D+01
  
  9  0
   s     4 1.00
  0.130100D+02  0.196850D-01
  0.196200D+01  0.137977D+00
  0.444600D+00  0.478148D+00
  0.122000D+00  0.501240D+00
   s     1 1.00
  0.122000D+00  0.100000D+01
   p     1 1.00
  0.727000D+00  0.100000D+01
  
 10  0
   s     4 1.00
  0.130100D+02  0.196850D-01
  0.196200D+01  0.137977D+00
  0.444600D+00  0.478148D+00
  0.122000D+00  0.501240D+00
   s     1 1.00
  0.122000D+00  0.100000D+01
   p     1 1.00
  0.727000D+00  0.100000D+01
  
 11  0
   s     4 1.00
  0.130100D+02  0.196850D-01
  0.196200D+01  0.137977D+00
  0.444600D+00  0.478148D+00
  0.122000D+00  0.501240D+00
   s     1 1.00
  0.122000D+00  0.100000D+01
   p     1 1.00
  0.727000D+00  0.100000D+01
  
 12  0
   s     4 1.00
  0.130100D+02  0.196850D-01
  0.196200D+01  0.137977D+00
  0.444600D+00  0.478148D+00
  0.122000D+00  0.501240D+00
   s     1 1.00
  0.122000D+00  0.100000D+01
   p     1 1.00
  0.727000D+00  0.100000D+01
  
 13  0
   s     4 1.00
  0.130100D+02  0.196850D-01
  0.196200D+01  0.137977D+00
  0.444600D+00  0.478148D+00
  0.122000D+00  0.501240D+00
   s     1 1.00
  0.122000D+00  0.100000D+01
   p     1 1.00
  0.727000D+00  0.100000D+01
  
 14  0
   s     4 1.00
  0.130100D+02  0.196850D-01
  0.196200D+01  0.137977D+00
  0.444600D+00  0.478148D+00
  0.122000D+00  0.501240D+00
   s     1 1.00
  0.122000D+00  0.100000D+01
   p     1 1.00
  0.727000D+00  0.100000D+01
  
[MO]
 Sym= __1_A__
 Ene=   1.00000000000000     
 Spin= Alpha
 Occup=    1.00000000000000     
                     1 -2.165924256236540E-004
                     2  0.998287817268911     
                     3 -2.264904272328514E-002
                     4  1.627007038119439E-003
                     5  6.655093364820304E-003
                     6  1.117415131078039E-002
                     7 -1.095667053394287E-003
                     8  1.612919037929083E-002
                     9 -1.423402216807126E-003
                    10 -3.563718792241619E-005
                    11 -1.541712154909285E-003
                    12 -3.670054158812254E-003
                    13 -6.093620678084418E-005
                    14 -5.161857140468939E-003
                    15  9.927308548623254E-005
                    16  1.550869478948403E-005
                    17 -1.479702380541815E-006
                    18  7.108653384410217E-005
                    19  7.220305416447307E-006
                    20  3.026657168228418E-004
                    21  6.837087329834660E-004
                    22  1.677046339004506E-005
                    23  1.918704275669728E-004
                    24 -1.239772902032685E-005
                    25  3.605065760494951E-005
                    26 -5.491952310679589E-005
                    27  2.832214852286259E-005
                    28  2.949666846709384E-005
                    29  1.648931862423045E-005
                    30 -1.168097975163645E-005
                    31  3.315319729994868E-006
                    32 -3.323063742194646E-004
                    33  5.861893497414216E-004
                    34  2.846531040382605E-004
                    35  6.591069268740318E-006
                    36  3.026315456816660E-004
                    37  3.834465901110906E-004
                    38 -1.534450169641149E-003
                    39 -3.884118178235479E-004
                    40 -1.318420577441376E-004
                    41  7.905177224875033E-004
                    42  4.420072794406076E-003
                    43  3.593975691144009E-004
                    44 -1.858674411983672E-003
                    45 -8.208349226091540E-007
                    46 -1.859741740166121E-004
                    47 -1.664733126001734E-005
                    48  6.030807598932128E-006
                    49  2.679216734375027E-005
                    50  1.909463991713589E-004
                    51  4.060039601955851E-004
                    52  1.476028854694276E-005
                    53 -9.746540579840459E-005
                    54 -4.273133483171544E-005
                    55  7.659329474082596E-005
                    56 -9.036233315811364E-006
                    57  1.122146402190825E-005
                    58  7.881747040516060E-005
                    59  7.861366925225402E-006
                    60 -4.610903619965597E-005
                    61 -6.092648927012166E-006
                    62 -8.665946479161186E-004
                    63 -7.347973201645280E-004
                    64 -1.492862649007526E-004
                    65  3.134549343429494E-003
                    66 -2.843589415044737E-003
                    67  5.617525449406560E-005
                    68  9.235185185558647E-004
                    69  7.949153125821802E-004
                    70 -2.493715646897229E-005
                    71  6.614559492404233E-004
                    72  1.305223457034190E-003
                    73  2.740198626230206E-004
                    74 -2.217656928728513E-003
                    75  7.026165166444263E-005
                    76 -8.708553151088436E-005
                    77 -1.738066806036013E-005
                    78  4.578246197284600E-005
                    79  1.232737709500606E-005
                    80  2.819498068498196E-004
                    81 -2.039851137549922E-004
                    82 -5.371289547234047E-005
                    83  1.238671149370842E-005
                    84  2.451540920286475E-005
                    85 -2.504016810290784E-005
                    86 -1.774922799892816E-004
                    87 -1.292372653411217E-005
                    88  1.709862724067226E-005
                    89  1.880687228608607E-005
                    90 -7.155876364547968E-005
                    91  6.487971852584841E-006
                    92 -2.766377927292438E-006
                    93 -5.262756033637146E-004
                    94  3.021541747731938E-004
                    95 -1.094709162399109E-003
                    96 -1.669727234895907E-004
                    97 -1.002213581051071E-004
                    98  9.956209910316305E-004
                    99  9.735269787309427E-005
                   100 -6.518600687680081E-005
                   101  2.994738900405525E-004
                   102 -1.788473603378203E-003
                   103 -6.856951924668992E-005
                   104  2.225224326145666E-004
                   105 -3.182720620255962E-005
                   106 -2.745499475953644E-005
                   107  2.950876093534542E-007
                   108  3.083989311151614E-005
                   109  3.797570584139189E-006
                   110 -9.813647753988120E-005
                   111  1.537681611464669E-004
                   112  4.972278934304834E-005
                   113 -1.466404078794728E-004
                   114 -2.619089205683348E-005
                   115 -2.796650374771092E-005
                   116  3.353649499977854E-005
                   117 -8.726795197230741E-006
                   118 -4.182955297459528E-006
                   119 -8.475839658529854E-006
                   120  4.310906207767883E-006
                   121 -6.346822533406902E-007
                   122 -3.238214136088834E-004
                   123 -1.787974436620210E-003
                   124  1.593615391871926E-004
                   125  7.445741090279905E-004
                   126  1.268729667127470E-003
                   127  1.976629908390170E-004
                   128 -1.560890875531670E-004
                   129  5.019362000524885E-004
                   130 -3.221092103335246E-005
                   131  3.573983985483002E-004
                   132  1.656337378777206E-003
                   133  7.895501870900991E-008
                   134  5.882630843284234E-004
                   135  6.680748220268929E-005
                   136 -2.499804214653512E-005
                   137 -8.264642443392920E-006
                   138 -5.590714375493256E-005
                   139 -4.726470799439386E-006
                   140  2.412508512993819E-004
                   141  1.845667939581512E-004
                   142 -1.534446262592897E-006
                   143 -3.893360004250718E-004
                   144 -5.768381206434860E-005
                   145 -1.767731916151004E-005
                   146 -4.294471025296034E-005
                   147 -8.109760736009102E-006
                   148  7.200293569556684E-006
                   149 -6.223959515352275E-006
                   150 -9.517311257623234E-005
                   151  8.784039029169632E-006
                   152 -1.664157208914002E-004
                   153 -4.624652927557431E-004
                   154 -6.573397399059650E-005
                   155  7.636346835831391E-004
                   156  2.843538288568247E-004
                   157 -9.820710872505606E-005
                   158 -1.022144339001462E-005
                   159 -2.896609739195222E-004
                   160 -1.040735355715463E-005
                   161  5.320299448210995E-005
                   162 -3.871893200554963E-004
                   163 -1.368263523251549E-004
                   164  8.544582897544750E-004
                   165 -8.585012686482405E-006
                   166 -1.075617660811211E-005
                   167 -2.761159475450295E-007
                   168  2.106942585639246E-005
                   169 -3.124870478894997E-007
                   170 -4.474406222120314E-005
                   171  4.297692220513251E-005
                   172  1.682297333450878E-005
                   173 -4.427579635396202E-005
                   174 -4.621966201862816E-006
                   175 -4.744870961328087E-006
                   176 -8.533666616833432E-006
                   177 -1.324267343249913E-006
                   178 -6.569128320876822E-006
                   179  2.138051356091313E-006
                   180  2.563074974555187E-007
                   181  7.513523057921821E-007
                   182 -1.468461073358019E-004
                   183 -3.067922684962708E-004
                   184  3.692326916107519E-005
                   185  2.484890924860777E-004
                   186 -1.994311505178176E-004
                   187 -6.058007240112743E-005
                   188 -5.209897623131469E-005
                   189  1.467511835971472E-004
                   190 -4.032665262081447E-005
                   191  3.757559540367608E-004
                   192 -5.201875092347845E-004
                   193 -1.880851628216909E-004
                   194  1.253318111991062E-003
                   195  1.998859593225101E-005
                   196 -5.523045664529109E-006
                   197 -7.611113945687011E-006
                   198 -1.238348136941134E-005
                   199 -3.965609030666769E-007
                   200 -7.784883115106318E-005
                   201 -2.602382045883498E-004
                   202 -8.085082595648033E-007
                   203  2.106173897051960E-005
                   204  3.187980186978352E-005
                   205  4.090651035828144E-007
                   206  7.613524813609851E-006
                   207 -3.074091301322033E-006
                   208  1.509035417903650E-005
                   209  1.330552979721884E-007
                   210 -5.968158329206849E-006
                   211 -1.795923205290071E-006
                   212 -7.604712375028109E-004
                   213  8.956116867105551E-004
                   214  9.146362365794804E-005
                   215 -4.847368949642268E-005
                   216  2.472859606881663E-005
                   217 -3.298703794789596E-003
                   218  1.502396059444282E-003
                   219  6.536896117435144E-005
                   220  1.072701833273266E-004
                   221  1.859158063878298E-004
                   222  8.463948218969359E-004
                   223 -1.394320131295764E-003
                   224 -5.763472790306029E-005
                   225 -8.442308299502912E-006
                   226  1.164039316621129E-004
                   227  7.144438972891523E-004
                   228 -6.220284487426685E-004
                   229 -1.534810379853947E-005
                   230  1.043359059118249E-005
                   231 -1.036702756396957E-004
                   232  7.146267043119359E-004
                   233 -3.856806306182704E-004
                   234 -3.778889612591303E-006
                   235 -3.119253180639581E-006
                   236  4.212735344326750E-005
                   237 -7.603636499300266E-006
                   238 -5.075241664639912E-004
                   239 -9.719100081313626E-006
                   240 -2.834891426748757E-006
                   241  3.201745876999704E-006
                   242 -2.958058231629121E-004
                   243  1.962155604567772E-004
                   244  3.908664516529098E-005
                   245 -5.831380924762313E-007
                   246 -5.203255418990102E-007
 Sym= __2_A__
 Ene=   2.00000000000000     
 Spin= Alpha
 Occup=    1.00000000000000     
                     1 -2.624345683041745E-005
                     2 -9.182873179280400E-005
                     3  1.935764524351818E-004
                     4 -5.684197807297057E-006
                     5  1.027524941533837E-003
                     6  1.662977817100239E-003
                     7 -1.894553261046667E-004
                     8  6.477111147281705E-004
                     9 -1.408076513749669E-004
                    10 -9.381019667187382E-006
                    11 -9.433243192146220E-005
                    12  1.433386191537458E-004
                    13  1.619812782999277E-005
                    14 -1.321261800218369E-004
                    15 -4.941701250267230E-005
                    16  3.010298591013191E-005
                    17  1.479500201545605E-006
                    18  5.476547628783326E-005
                    19  5.559054453705756E-007
                    20  3.468977096596531E-005
                    21 -4.929221065072328E-005
                    22 -2.290113402038593E-005
                    23  1.132687154811921E-004
                    24  2.674561171358175E-005
                    25 -2.966353871172672E-005
                    26  1.228827622188293E-004
                    27  1.320473068337320E-005
                    28 -6.001514902041332E-005
                    29 -6.361609477944130E-006
                    30  1.031271752060508E-004
                    31 -3.538387784832833E-006
                    32   1.00080148325949     
                    33  8.631257234324830E-003
                    34  2.843858636826131E-003
                    35 -8.448195219551197E-003
                    36 -1.361547824489367E-003
                    37 -1.885153781127621E-004
                    38  2.831511902852341E-005
                    39  5.602365240985123E-004
                    40  1.494730851312738E-004
                    41 -3.640039055364197E-004
                    42  2.523160456142894E-003
                    43  7.571145746031702E-005
                    44  3.699135418597525E-004
                    45  3.121108096965954E-004
                    46 -3.684055396053038E-006
                    47 -1.043739077439208E-004
                    48  3.203562160706308E-004
                    49  1.056994409162457E-005
                    50 -1.016369698353560E-003
                    51 -3.506976663358008E-004
                    52  2.161452436437317E-004
                    53 -1.063407525326486E-004
                    54  4.090573118554903E-005
                    55 -2.965985276231677E-005
                    56  2.541717095119578E-004
                    57  8.345934416173031E-006
                    58 -3.221682066916136E-005
                    59 -3.654971836206079E-005
                    60  7.589336612080693E-005
                    61 -1.177361494324238E-006
                    62  1.784457213709611E-002
                    63 -1.459912808215363E-003
                    64 -2.873638932212401E-004
                    65  2.778707380560811E-003
                    66 -3.089635147880765E-004
                    67 -5.651312169309410E-005
                    68  4.018135707647616E-004
                    69  1.681810052346578E-005
                    70 -4.635872373154853E-005
                    71  3.276689044109847E-004
                    72  1.886010558893367E-004
                    73  2.181000805909041E-004
                    74 -1.768001397217408E-003
                    75  9.944208623033545E-006
                    76  2.118141240274258E-005
                    77  3.125738706616154E-006
                    78 -4.437596061845826E-005
                    79 -4.080027037296198E-006
                    80 -5.398508082896237E-004
                    81 -3.633349580852973E-004
                    82 -3.230922515612443E-006
                    83  8.039841206853908E-004
                    84  9.280401563588508E-005
                    85  3.471168937333321E-005
                    86  1.105802337293192E-004
                    87  1.794678921365320E-005
                    88 -2.906639874622706E-005
                    89 -2.530764374528829E-005
                    90 -2.637045882988980E-005
                    91  6.267297262036082E-006
                    92  1.908364305768104E-002
                    93 -1.756412193587205E-003
                    94 -3.378154197083261E-004
                    95  3.394181891995636E-003
                    96 -2.166429630988771E-004
                    97  1.578237032229862E-005
                    98 -2.898764234993984E-004
                    99 -1.175092885254952E-004
                   100  8.832309760948671E-005
                   101 -8.269917896871840E-004
                   102  3.109809663627100E-004
                   103 -1.763579036453904E-004
                   104  1.506204596099410E-003
                   105  5.228851215184442E-006
                   106 -5.444690178520761E-008
                   107  1.897672783838015E-006
                   108 -2.057065455019942E-005
                   109 -6.639799731984091E-007
                   110 -1.410998276009836E-004
                   111  5.094472864257453E-004
                   112 -1.882138040229892E-005
                   113  6.090375778832196E-004
                   114 -2.246774997028051E-005
                   115 -4.256175442373237E-005
                   116  8.632545426767724E-005
                   117 -1.624927912485797E-005
                   118  1.744060302919230E-005
                   119 -2.148507803940433E-005
                   120 -2.857556609769773E-005
                   121 -1.003229793363589E-006
                   122  1.297283389622559E-005
                   123 -7.077233356895087E-004
                   124  2.424365882839005E-004
                   125 -4.030310598478522E-004
                   126 -1.013820146699255E-004
                   127  2.997594615810065E-006
                   128 -5.073456877621081E-005
                   129  6.286084878853855E-004
                   130  1.361596493548415E-005
                   131  4.872640683287640E-005
                   132  3.316470985395020E-004
                   133 -3.646932211540764E-005
                   134  4.031108420085766E-004
                   135  1.807005372507700E-006
                   136  3.564968039213638E-005
                   137  4.936482649034845E-006
                   138 -3.885262323114396E-005
                   139 -6.807923291286508E-006
                   140  1.835037020385366E-004
                   141 -2.755976760283759E-004
                   142 -1.774015228351853E-005
                   143 -2.215676175137892E-004
                   144  1.948312755366792E-005
                   145 -1.006188068253404E-005
                   146  1.326564319087563E-005
                   147 -1.914038038734212E-006
                   148 -3.407534895505116E-006
                   149 -5.930484848058344E-006
                   150 -2.027594755096717E-005
                   151  2.618721740701703E-006
                   152  8.632517773286756E-005
                   153 -7.438599762547802E-004
                   154  2.276064972777023E-004
                   155 -1.235287288502986E-004
                   156 -1.316855416529111E-004
                   157 -1.967375787624216E-005
                   158  2.915047485416975E-005
                   159  4.824260346432282E-004
                   160  1.396881231868771E-005