[Molden Format]
[Atoms] AU
  N     1    7    -4.4519150800    0.1645695100   -0.0000004400        
  C     2    6    -1.7695092000   -0.0145096000   -0.0000001700        
  C     3    6    -0.4270927200   -0.0061402300   -2.2691546100        
  C     4    6    -0.4270931100   -0.0061391100    2.2691544900        
  C     5    6     2.1889955900   -0.0004823800   -2.2566388900        
  C     6    6     2.1889952100   -0.0004812700    2.2566392100        
  C     7    6     3.5149715000    0.0022090000    0.0000002700        
  H     8    1    -5.3847680700   -0.9508472000   -1.9800838900        
  H     9    1    -5.1855380900   -0.7126258900    1.5571951400        
  H    10    1    -1.4305344500   -0.0005073500   -4.0318143700        
  H    11    1    -1.4305351200   -0.0005053700    4.0318140800        
  H    12    1     3.1914120400   -0.0010699000   -4.0209976100        
  H    13    1     3.1914113700   -0.0010679200    4.0209980900        
  H    14    1     5.5428332300    0.0050250700    0.0000004400        
[5D]
[7F]
[GTO]
  1  0
   s    12 1.00
  0.114200D+05  0.172695D-04
  0.171200D+04  0.134411D-03
  0.389300D+03  0.694561D-03
  0.110000D+03  0.278531D-02
  0.355700D+02  0.863457D-02
  0.125400D+02  0.199805D-01
  0.464400D+01  0.262908D-01
  0.129300D+01 -0.243845D-01
  0.511800D+00 -0.924934D-01
  0.178700D+00 -0.339683D+00
  0.246240D-01  0.345111D+00
  0.112530D-01  0.752750D+00
   s    10 1.00
  0.114200D+05  0.523000D-03
  0.171200D+04  0.404500D-02
  0.389300D+03  0.207750D-01
  0.110000D+03  0.807269D-01
  0.355700D+02  0.233074D+00
  0.125400D+02  0.433501D+00
  0.464400D+01  0.347472D+00
  0.129300D+01  0.412620D-01
  0.511800D+00 -0.850799D-02
  0.178700D+00  0.238400D-02
   s    10 1.00
  0.114200D+05 -0.115000D-03
  0.171200D+04 -0.895000D-03
  0.389300D+03 -0.462400D-02
  0.110000D+03 -0.185280D-01
  0.355700D+02 -0.573390D-01
  0.125400D+02 -0.132076D+00
  0.464400D+01 -0.172510D+00
  0.129300D+01  0.151814D+00
  0.511800D+00  0.599944D+00
  0.178700D+00  0.387462D+00
   s     1 1.00
  0.129300D+01  0.100000D+01
   s     1 1.00
  0.178700D+00  0.100000D+01
   p     5 1.00
  0.266300D+02  0.146700D-01
  0.594800D+01  0.917640D-01
  0.174200D+01  0.298683D+00
  0.555000D+00  0.498487D+00
  0.172500D+00  0.337023D+00
   p     1 1.00
  0.174200D+01  0.100000D+01
   p     1 1.00
  0.555000D+00  0.100000D+01
   d     1 1.00
  0.165400D+01  0.100000D+01
   d     1 1.00
  0.469000D+00  0.100000D+01
   f     1 1.00
  0.109300D+01  0.100000D+01
  
  2  0
   s    10 1.00
  0.823600D+04  0.531000D-03
  0.123500D+04  0.410800D-02
  0.280800D+03  0.210870D-01
  0.792700D+02  0.818530D-01
  0.255900D+02  0.234817D+00
  0.899700D+01  0.434401D+00
  0.331900D+01  0.346129D+00
  0.905900D+00  0.393780D-01
  0.364300D+00 -0.898300D-02
  0.128500D+00  0.238500D-02
   s    10 1.00
  0.823600D+04 -0.113000D-03
  0.123500D+04 -0.878000D-03
  0.280800D+03 -0.454000D-02
  0.792700D+02 -0.181330D-01
  0.255900D+02 -0.557600D-01
  0.899700D+01 -0.126895D+00
  0.331900D+01 -0.170352D+00
  0.905900D+00  0.140382D+00
  0.364300D+00  0.598684D+00
  0.128500D+00  0.395389D+00
   s     1 1.00
  0.905900D+00  0.100000D+01
   s     1 1.00
  0.364300D+00  0.100000D+01
   p     5 1.00
  0.187100D+02  0.140310D-01
  0.413300D+01  0.868660D-01
  0.120000D+01  0.290216D+00
  0.382700D+00  0.501008D+00
  0.120900D+00  0.343406D+00
   p     1 1.00
  0.382700D+00  0.100000D+01
   p     1 1.00
  0.120900D+00  0.100000D+01
   d     1 1.00
  0.109700D+01  0.100000D+01
   d     1 1.00
  0.318000D+00  0.100000D+01
   f     1 1.00
  0.761000D+00  0.100000D+01
  
  3  0
   s    10 1.00
  0.823600D+04  0.531000D-03
  0.123500D+04  0.410800D-02
  0.280800D+03  0.210870D-01
  0.792700D+02  0.818530D-01
  0.255900D+02  0.234817D+00
  0.899700D+01  0.434401D+00
  0.331900D+01  0.346129D+00
  0.905900D+00  0.393780D-01
  0.364300D+00 -0.898300D-02
  0.128500D+00  0.238500D-02
   s    10 1.00
  0.823600D+04 -0.113000D-03
  0.123500D+04 -0.878000D-03
  0.280800D+03 -0.454000D-02
  0.792700D+02 -0.181330D-01
  0.255900D+02 -0.557600D-01
  0.899700D+01 -0.126895D+00
  0.331900D+01 -0.170352D+00
  0.905900D+00  0.140382D+00
  0.364300D+00  0.598684D+00
  0.128500D+00  0.395389D+00
   s     1 1.00
  0.905900D+00  0.100000D+01
   s     1 1.00
  0.364300D+00  0.100000D+01
   p     5 1.00
  0.187100D+02  0.140310D-01
  0.413300D+01  0.868660D-01
  0.120000D+01  0.290216D+00
  0.382700D+00  0.501008D+00
  0.120900D+00  0.343406D+00
   p     1 1.00
  0.382700D+00  0.100000D+01
   p     1 1.00
  0.120900D+00  0.100000D+01
   d     1 1.00
  0.109700D+01  0.100000D+01
   d     1 1.00
  0.318000D+00  0.100000D+01
   f     1 1.00
  0.761000D+00  0.100000D+01
  
  4  0
   s    10 1.00
  0.823600D+04  0.531000D-03
  0.123500D+04  0.410800D-02
  0.280800D+03  0.210870D-01
  0.792700D+02  0.818530D-01
  0.255900D+02  0.234817D+00
  0.899700D+01  0.434401D+00
  0.331900D+01  0.346129D+00
  0.905900D+00  0.393780D-01
  0.364300D+00 -0.898300D-02
  0.128500D+00  0.238500D-02
   s    10 1.00
  0.823600D+04 -0.113000D-03
  0.123500D+04 -0.878000D-03
  0.280800D+03 -0.454000D-02
  0.792700D+02 -0.181330D-01
  0.255900D+02 -0.557600D-01
  0.899700D+01 -0.126895D+00
  0.331900D+01 -0.170352D+00
  0.905900D+00  0.140382D+00
  0.364300D+00  0.598684D+00
  0.128500D+00  0.395389D+00
   s     1 1.00
  0.905900D+00  0.100000D+01
   s     1 1.00
  0.364300D+00  0.100000D+01
   p     5 1.00
  0.187100D+02  0.140310D-01
  0.413300D+01  0.868660D-01
  0.120000D+01  0.290216D+00
  0.382700D+00  0.501008D+00
  0.120900D+00  0.343406D+00
   p     1 1.00
  0.382700D+00  0.100000D+01
   p     1 1.00
  0.120900D+00  0.100000D+01
   d     1 1.00
  0.109700D+01  0.100000D+01
   d     1 1.00
  0.318000D+00  0.100000D+01
   f     1 1.00
  0.761000D+00  0.100000D+01
  
  5  0
   s    10 1.00
  0.823600D+04  0.531000D-03
  0.123500D+04  0.410800D-02
  0.280800D+03  0.210870D-01
  0.792700D+02  0.818530D-01
  0.255900D+02  0.234817D+00
  0.899700D+01  0.434401D+00
  0.331900D+01  0.346129D+00
  0.905900D+00  0.393780D-01
  0.364300D+00 -0.898300D-02
  0.128500D+00  0.238500D-02
   s    10 1.00
  0.823600D+04 -0.113000D-03
  0.123500D+04 -0.878000D-03
  0.280800D+03 -0.454000D-02
  0.792700D+02 -0.181330D-01
  0.255900D+02 -0.557600D-01
  0.899700D+01 -0.126895D+00
  0.331900D+01 -0.170352D+00
  0.905900D+00  0.140382D+00
  0.364300D+00  0.598684D+00
  0.128500D+00  0.395389D+00
   s     1 1.00
  0.905900D+00  0.100000D+01
   s     1 1.00
  0.364300D+00  0.100000D+01
   p     5 1.00
  0.187100D+02  0.140310D-01
  0.413300D+01  0.868660D-01
  0.120000D+01  0.290216D+00
  0.382700D+00  0.501008D+00
  0.120900D+00  0.343406D+00
   p     1 1.00
  0.382700D+00  0.100000D+01
   p     1 1.00
  0.120900D+00  0.100000D+01
   d     1 1.00
  0.109700D+01  0.100000D+01
   d     1 1.00
  0.318000D+00  0.100000D+01
   f     1 1.00
  0.761000D+00  0.100000D+01
  
  6  0
   s    10 1.00
  0.823600D+04  0.531000D-03
  0.123500D+04  0.410800D-02
  0.280800D+03  0.210870D-01
  0.792700D+02  0.818530D-01
  0.255900D+02  0.234817D+00
  0.899700D+01  0.434401D+00
  0.331900D+01  0.346129D+00
  0.905900D+00  0.393780D-01
  0.364300D+00 -0.898300D-02
  0.128500D+00  0.238500D-02
   s    10 1.00
  0.823600D+04 -0.113000D-03
  0.123500D+04 -0.878000D-03
  0.280800D+03 -0.454000D-02
  0.792700D+02 -0.181330D-01
  0.255900D+02 -0.557600D-01
  0.899700D+01 -0.126895D+00
  0.331900D+01 -0.170352D+00
  0.905900D+00  0.140382D+00
  0.364300D+00  0.598684D+00
  0.128500D+00  0.395389D+00
   s     1 1.00
  0.905900D+00  0.100000D+01
   s     1 1.00
  0.364300D+00  0.100000D+01
   p     5 1.00
  0.187100D+02  0.140310D-01
  0.413300D+01  0.868660D-01
  0.120000D+01  0.290216D+00
  0.382700D+00  0.501008D+00
  0.120900D+00  0.343406D+00
   p     1 1.00
  0.382700D+00  0.100000D+01
   p     1 1.00
  0.120900D+00  0.100000D+01
   d     1 1.00
  0.109700D+01  0.100000D+01
   d     1 1.00
  0.318000D+00  0.100000D+01
   f     1 1.00
  0.761000D+00  0.100000D+01
  
  7  0
   s    10 1.00
  0.823600D+04  0.531000D-03
  0.123500D+04  0.410800D-02
  0.280800D+03  0.210870D-01
  0.792700D+02  0.818530D-01
  0.255900D+02  0.234817D+00
  0.899700D+01  0.434401D+00
  0.331900D+01  0.346129D+00
  0.905900D+00  0.393780D-01
  0.364300D+00 -0.898300D-02
  0.128500D+00  0.238500D-02
   s    10 1.00
  0.823600D+04 -0.113000D-03
  0.123500D+04 -0.878000D-03
  0.280800D+03 -0.454000D-02
  0.792700D+02 -0.181330D-01
  0.255900D+02 -0.557600D-01
  0.899700D+01 -0.126895D+00
  0.331900D+01 -0.170352D+00
  0.905900D+00  0.140382D+00
  0.364300D+00  0.598684D+00
  0.128500D+00  0.395389D+00
   s     1 1.00
  0.905900D+00  0.100000D+01
   s     1 1.00
  0.364300D+00  0.100000D+01
   p     5 1.00
  0.187100D+02  0.140310D-01
  0.413300D+01  0.868660D-01
  0.120000D+01  0.290216D+00
  0.382700D+00  0.501008D+00
  0.120900D+00  0.343406D+00
   p     1 1.00
  0.382700D+00  0.100000D+01
   p     1 1.00
  0.120900D+00  0.100000D+01
   d     1 1.00
  0.109700D+01  0.100000D+01
   d     1 1.00
  0.318000D+00  0.100000D+01
   f     1 1.00
  0.761000D+00  0.100000D+01
  
  8  0
   s     4 1.00
  0.130100D+02  0.196850D-01
  0.196200D+01  0.137977D+00
  0.444600D+00  0.478148D+00
  0.122000D+00  0.501240D+00
   s     1 1.00
  0.122000D+00  0.100000D+01
   p     1 1.00
  0.727000D+00  0.100000D+01
  
  9  0
   s     4 1.00
  0.130100D+02  0.196850D-01
  0.196200D+01  0.137977D+00
  0.444600D+00  0.478148D+00
  0.122000D+00  0.501240D+00
   s     1 1.00
  0.122000D+00  0.100000D+01
   p     1 1.00
  0.727000D+00  0.100000D+01
  
 10  0
   s     4 1.00
  0.130100D+02  0.196850D-01
  0.196200D+01  0.137977D+00
  0.444600D+00  0.478148D+00
  0.122000D+00  0.501240D+00
   s     1 1.00
  0.122000D+00  0.100000D+01
   p     1 1.00
  0.727000D+00  0.100000D+01
  
 11  0
   s     4 1.00
  0.130100D+02  0.196850D-01
  0.196200D+01  0.137977D+00
  0.444600D+00  0.478148D+00
  0.122000D+00  0.501240D+00
   s     1 1.00
  0.122000D+00  0.100000D+01
   p     1 1.00
  0.727000D+00  0.100000D+01
  
 12  0
   s     4 1.00
  0.130100D+02  0.196850D-01
  0.196200D+01  0.137977D+00
  0.444600D+00  0.478148D+00
  0.122000D+00  0.501240D+00
   s     1 1.00
  0.122000D+00  0.100000D+01
   p     1 1.00
  0.727000D+00  0.100000D+01
  
 13  0
   s     4 1.00
  0.130100D+02  0.196850D-01
  0.196200D+01  0.137977D+00
  0.444600D+00  0.478148D+00
  0.122000D+00  0.501240D+00
   s     1 1.00
  0.122000D+00  0.100000D+01
   p     1 1.00
  0.727000D+00  0.100000D+01
  
 14  0
   s     4 1.00
  0.130100D+02  0.196850D-01
  0.196200D+01  0.137977D+00
  0.444600D+00  0.478148D+00
  0.122000D+00  0.501240D+00
   s     1 1.00
  0.122000D+00  0.100000D+01
   p     1 1.00
  0.727000D+00  0.100000D+01
  
[MO]
 Sym= __1_A__
 Ene=   1.00000000000000     
 Spin= Alpha
 Occup=    1.00000000000000     
                     1  1.774067971540602E-004
                     2  0.998393740163305     
                     3  9.792597710170730E-004
                     4  1.601236489566706E-003
                     5  6.094962079548329E-003
                     6  5.929233982228221E-003
                     7 -4.420227160294871E-003
                     8  6.473457852922154E-004
                     9 -8.231574646594026E-004
                    10  3.564710973755951E-004
                    11 -2.216652951391915E-005
                    12 -1.847232665067796E-003
                    13  3.035578581461251E-003
                    14 -4.775508598081698E-004
                    15 -5.784440832585275E-005
                    16 -4.981094125321613E-005
                    17 -6.374850137882668E-005
                    18  7.440787230248382E-005
                    19  2.546615303492049E-005
                    20 -3.127156248958613E-004
                    21  8.344609113351404E-005
                    22  4.304747904925471E-007
                    23  3.982687596315234E-005
                    24 -4.416849607317307E-004
                    25  2.107651553031021E-006
                    26 -1.037729621825970E-004
                    27 -2.754214454411224E-005
                    28 -1.630301939439244E-005
                    29  2.100936136856169E-005
                    30 -7.090222407895201E-005
                    31 -5.544684187593908E-005
                    32 -3.622947229555577E-004
                    33  6.009914627882928E-004
                    34  2.530891381785438E-004
                    35 -1.369035647253613E-004
                    36 -3.483260488005986E-003
                    37 -4.152792128992493E-005
                    38 -6.454885738616453E-005
                    39  4.296383390318405E-005
                    40 -3.449235749774118E-006
                    41  1.017033278711993E-004
                    42  5.069097949466143E-003
                    43  7.441681948786512E-004
                    44 -2.717724627628018E-004
                    45 -1.906467574169656E-004
                    46 -1.021310578401425E-005
                    47  2.310438577866615E-006
                    48  1.717661708449115E-004
                    49  4.050560624301196E-005
                    50  3.403265193191095E-004
                    51  1.360954030902591E-004
                    52 -1.127655742265549E-005
                    53 -1.068130049560958E-005
                    54 -3.420288410729066E-004
                    55  6.322409574537013E-006
                    56 -5.666877868283538E-005
                    57  6.920930087223193E-006
                    58  1.317012871440971E-005
                    59 -5.402819590008894E-007
                    60 -3.458395739137820E-005
                    61  4.084046634572873E-005
                    62 -3.935972658646628E-004
                    63 -1.707298864810058E-003
                    64  5.648958126097115E-005
                    65  1.120035612687589E-003
                    66  3.463325064206719E-004
                    67 -1.166137474108252E-004
                    68 -4.628061424183316E-004
                    69  5.618148183987341E-004
                    70  6.733913815103551E-005
                    71  2.072782733753215E-004
                    72 -3.155994973716221E-004
                    73 -3.209507441188072E-004
                    74 -1.093442192347568E-003
                    75 -5.377411829297478E-005
                    76 -1.721177701752762E-005
                    77  1.730658413560524E-005
                    78  6.161876719951880E-005
                    79 -9.027990941077223E-006
                    80  1.770983785877010E-004
                    81  1.007519536515615E-004
                    82 -3.362147819782861E-005
                    83 -9.221717033451376E-005
                    84  5.160241858399984E-005
                    85 -1.398799021546764E-005
                    86 -6.912491298129146E-005
                    87  1.846659982201694E-005
                    88 -1.184093523826675E-005
                    89  1.322354958975816E-005
                    90 -5.140152307816422E-005
                    91 -1.035257439077907E-005
                    92 -3.647847767950562E-004
                    93 -1.660657633746098E-003
                    94  1.086408980960326E-004
                    95  7.799674398914590E-004
                    96  4.132122768413008E-004
                    97 -1.296739164185096E-004
                    98  4.770602962694949E-004
                    99  5.422949023739979E-004
                   100  9.304565948330470E-005
                   101 -4.135683793090828E-005
                   102 -7.378928844872904E-004
                   103 -3.517296945404201E-004
                   104  8.384871289072226E-004
                   105 -6.343523341341856E-005
                   106  6.793262052378840E-006
                   107 -1.866557069671178E-005
                   108  5.664804525885416E-005
                   109 -1.185210543910306E-005
                   110  1.175865993657674E-004
                   111 -9.215690103959557E-005
                   112  2.962231617441392E-005
                   113 -8.651581062901066E-005
                   114  5.777586664250052E-005
                   115  5.518320849030059E-006
                   116 -5.493770720666669E-005
                   117  1.885971865096436E-005
                   118  7.564905991565358E-006
                   119 -1.098619849652327E-005
                   120 -4.406701262082224E-005
                   121 -1.002846895079489E-005
                   122 -2.120190572807348E-004
                   123 -4.680476853483164E-004
                   124  6.126179234323812E-005
                   125  6.045300748646336E-004
                   126 -4.065576996636294E-004
                   127 -6.976616269471197E-005
                   128  5.138408606596537E-006
                   129  2.561766599092092E-004
                   130 -2.280064018700603E-005
                   131  6.591498050479479E-005
                   132  1.052354027074214E-003
                   133  1.452539169132268E-004
                   134 -1.616910214204654E-004
                   135  1.011064002246796E-005
                   136 -1.852873412739942E-006
                   137 -4.699178588447372E-006
                   138 -3.307297291064254E-006
                   139  8.634305666655882E-006
                   140  9.549122453042622E-005
                   141  1.803092956373081E-004
                   142  8.528944948934456E-006
                   143 -2.101112762952776E-004
                   144 -1.270327553509986E-005
                   145 -1.127346004320299E-005
                   146 -1.672150835993317E-005
                   147  2.190944531667359E-006
                   148 -1.682246544373167E-006
                   149 -2.316225980926268E-006
                   150 -4.923395270340340E-005
                   151 -1.868338411133473E-006
                   152 -1.974423426465160E-004
                   153 -4.077561863212363E-004
                   154  5.161435835633067E-005
                   155  5.597138732576355E-004
                   156 -4.134940173195213E-004
                   157 -6.697058930163084E-005
                   158 -1.019422340116324E-005
                   159  1.966254079528545E-004
                   160 -3.070228239564923E-005
                   161 -3.963887186817069E-005
                   162  6.768434575404495E-004
                   163  1.612400617815271E-004
                   164  3.844062453181773E-004
                   165  6.376704887254382E-006
                   166  1.647277014882811E-006
                   167  4.733233782830064E-006
                   168  5.652976078161486E-007
                   169  1.025229372883753E-005
                   170  6.275600261155940E-005
                   171 -1.466608279458097E-004
                   172 -9.573063544680066E-006
                   173 -1.827477369671480E-004
                   174 -1.152098872990785E-005
                   175  6.959454225188213E-006
                   176 -1.659100194306330E-005
                   177  2.963874698877626E-006
                   178 -3.530734594838694E-007
                   179  2.154496396098636E-006
                   180 -4.253696359827925E-005
                   181 -3.448085858015406E-006
                   182 -1.315101185125314E-004
                   183 -4.042270285022970E-004
                   184  3.298163973769462E-005
                   185  1.719580394667494E-004
                   186 -2.674026485239606E-005
                   187 -7.675015354194605E-005
                   188 -6.244985059037643E-006
                   189  1.079376438664243E-004
                   190  1.954058267954595E-005
                   191  3.569799416306535E-005
                   192 -3.911774942639532E-004
                   193 -1.035762731914199E-004
                   194  2.157887028567767E-004
                   195 -7.696693710790365E-006
                   196 -1.488250288283624E-008
                   197  6.081916720203065E-007
                   198  3.011178879148704E-006
                   199 -1.521688357810685E-006
                   200 -1.114448603411020E-004
                   201 -2.651428524837809E-005
                   202 -2.152923336264112E-006
                   203  5.286681863792482E-005
                   204  1.839413908119475E-005
                   205  3.384630283053835E-007
                   206  4.232192826878207E-006
                   207  2.734797932039297E-006
                   208  1.871347294849851E-006
                   209  1.222382162296785E-007
                   210 -5.923561739541999E-006
                   211 -3.108119206735748E-006
                   212  4.934017793417870E-004
                   213 -6.856690469104098E-004
                   214  1.123704957922055E-004
                   215  2.129339175427514E-004
                   216  2.008576256683725E-004
                   217  1.608375404219619E-003
                   218 -1.696689015167580E-003
                   219  1.433445671036686E-004
                   220  2.622473792396091E-004
                   221 -2.853361381844441E-004
                   222 -3.537245650528268E-004
                   223 -5.024513299972881E-004
                   224 -6.052709746489728E-005
                   225  8.786112878886358E-006
                   226  4.108488597170445E-005
                   227 -3.523485425488184E-004
                   228 -4.156332353641999E-004
                   229 -5.341566605494072E-005
                   230  1.004049936264922E-005
                   231 -4.331681572257822E-005
                   232 -6.095808678377490E-005
                   233 -4.802034155523096E-004
                   234  2.096230358626708E-006
                   235 -1.789477067692251E-006
                   236 -5.860889522703375E-006
                   237 -7.331133690319298E-005
                   238 -4.814462871826085E-004
                   239  1.031965262881056E-006
                   240 -2.366498037729363E-006
                   241  4.987668226169485E-006
                   242 -5.058947499733400E-006
                   243  1.210626792596122E-004
                   244  3.052352603539854E-005
                   245  1.214211299489294E-006
                   246 -5.073755418575192E-007
 Sym= __2_A__
 Ene=   2.00000000000000     
 Spin= Alpha
 Occup=    1.00000000000000     
                     1 -3.000411639945504E-005
                     2 -1.162168701149821E-004
                     3  2.190474513667930E-003
                     4 -1.292608021868937E-007
                     5  1.208136481599014E-003
                     6  2.102951022691627E-003
                     7  1.159595518040325E-004
                     8 -1.398068605784408E-004
                     9 -1.418500121467649E-004
                    10  9.504868845284251E-005
                    11 -1.433167140300156E-005
                    12  1.157334332268255E-005
                    13  4.174132252905480E-005
                    14  1.092302384265270E-005
                    15 -7.386944559955950E-005
                    16 -2.090474249982119E-006
                    17 -2.272701414069874E-007
                    18  4.136174291564656E-005
                    19 -7.806884625149842E-006
                    20  1.503809640535031E-004
                    21  2.556369401424775E-005
                    22  8.280434026864127E-006
                    23  1.022501941023708E-004
                    24 -2.548991365664135E-005
                    25 -7.334397911079006E-006
                    26  1.383703631849788E-004
                    27 -5.109744244330166E-005
                    28 -2.806020243896488E-006
                    29 -5.549180427376573E-006
                    30  1.227125733557500E-004
                    31  3.215908753101225E-005
                    32   1.00094481553362     
                    33  8.874956524140760E-003
                    34  2.786532545353740E-003
                    35 -8.235840321585050E-003
                    36 -2.672473054076470E-003
                    37  6.258810663477809E-004
                    38  2.737629840509321E-005
                    39  9.726388164069178E-004
                    40 -2.433478240275671E-004
                    41 -3.612027643878575E-005
                    42  3.497562072601857E-003
                    43 -1.285718585048374E-004
                    44  1.908341882306356E-005
                    45  2.867983260492866E-004
                    46 -5.452749052706807E-006
                    47  8.182229317815079E-007
                    48  4.242735533051478E-004
                    49 -2.624178586010774E-005
                    50 -1.045790102216323E-003
                    51  1.964016870940623E-005
                    52 -4.384439639962874E-006
                    53 -1.053730542667099E-004
                    54  4.476148420816790E-005
                    55  6.484402203635919E-007
                    56  3.132078085120543E-004
                    57 -8.513097709388425E-006
                    58 -2.370608033417480E-006
                    59 -1.686086428268873E-006
                    60  9.049033158955626E-005
                    61  1.543607328913911E-005
                    62  1.280689849422795E-002
                    63 -1.895773121224882E-003
                    64 -3.094183007875980E-004
                    65  3.152193486898436E-003
                    66 -1.085708100540391E-004
                    67  9.275363225399006E-005
                    68  2.240613498470363E-004
                    69  3.332858461992220E-005
                    70 -1.524737634007571E-006
                    71  5.407383865156556E-004
                    72  1.404871488189509E-004
                    73 -2.947324809458106E-005
                    74 -1.832284455559630E-003
                    75 -1.346942030978994E-005
                    76  2.276634793951971E-005
                    77  7.486913190896244E-006
                    78 -3.388023696514220E-005
                    79 -4.008124224605452E-006
                    80 -4.060679759712672E-004
                    81 -4.497855696590791E-004
                    82 -4.473501743699853E-006
                    83  7.520466588884876E-004
                    84 -1.056055712816734E-006
                    85  5.026794812163047E-005
                    86  1.101194648574696E-004
                    87 -2.380367492940351E-007
                    88 -1.720252462830698E-005
                    89 -6.266648786975661E-006
                    90 -3.058062888432808E-005
                    91  4.599165424892992E-006
                    92  1.363886025674763E-002
                    93 -1.895959058946952E-003
                    94 -3.085179523243600E-004
                    95  3.147367148741054E-003
                    96 -1.067040136338041E-004
                    97  9.001481839824989E-005
                    98 -2.154094679778625E-004
                    99  2.205860587918639E-005
                   100  2.300169905168259E-006
                   101 -5.386969017565314E-004
                   102  1.663020611645382E-004
                   103 -2.604103067440692E-005
                   104  1.842889815020991E-003
                   105 -1.200536168622144E-005
                   106 -2.321947281081164E-005
                   107 -7.282271294323073E-006
                   108 -3.429869386701176E-005
                   109 -3.801091252158835E-006
                   110 -4.132181614257482E-004
                   111  4.587738823622288E-004
                   112  1.084282475650839E-006
                   113  7.585909837294756E-004
                   114 -5.097275405976563E-006
                   115 -5.052608660600038E-005
                   116  1.106699565889560E-004
                   117  3.698533809203557E-007
                   118  1.572445164007749E-005
                   119  7.173326327365866E-006
                   120 -2.957363756627673E-005
                   121  4.723920320580528E-006
                   122 -1.283387980471300E-004
                   123 -6.938863541753059E-004
                   124  2.520530677578021E-004
                   125 -3.122746175076484E-004
                   126 -2.233798702497256E-004
                   127  1.607604160256321E-005
                   128 -3.863177519098677E-005
                   129  6.026462304677318E-004
                   130 -8.196612592142917E-007
                   131  2.940576901125268E-005
                   132  5.764418833058324E-004
                   133  6.420188931037228E-006
                   134  3.263398367305478E-004
                   135 -2.990078482607026E-007
                   136  4.215518780285945E-005
                   137  1.451967011838703E-007
                   138 -3.355272840512532E-005
                   139 -1.073550192911451E-006
                   140  1.907151510523326E-004
                   141 -2.482615065605739E-004
                   142  2.056925440679010E-006
                   143 -2.643631383199298E-004
                   144 -3.710673413344604E-006
                   145 -1.862801777897084E-005
                   146  1.442656867686355E-005
                   147  7.595000556975676E-008
                   148 -1.416346276646421E-005
                   149 -1.904766245157668E-006
                   150 -2.642145951942002E-005
                   151 -6.204499457329706E-007
                   152 -1.113014180357371E-004
                   153 -6.995436539003187E-004
                   154  2.510109214857806E-004
                   155 -3.081070770273031E-004
                   156 -2.201048807256435E-004
                   157  1.483632595728663E-005
                   158  3.848251868051432E-005
                   159  6.018589110785733E-004
                   160 -1.611076035258879E-007