[Molden Format]
[Atoms] AU
  N     1    7    -0.0042246300   -0.0011810900   -4.3725266100        
  C     2    6    -0.0026486800   -0.0030742900   -1.7238168100        
  C     3    6     0.1128936300   -2.3173577500   -0.4156815900        
  C     4    6    -0.1166323100    2.3093367000   -0.4122380400        
  C     5    6     0.2042997300   -2.2853689000    2.1827268700        
  C     6    6    -0.2049462900    2.2736333100    2.1862289800        
  C     7    6     0.0004461400   -0.0067921000    3.4776379900        
  H     8    1    -1.5451251600   -0.6636386500   -5.3893363800        
  H     9    1     1.5354654000    0.6627306700   -5.3902212500        
  H    10    1     0.2197208100   -4.0449410500   -1.4566786600        
  H    11    1    -0.2246967200    4.0384062700   -1.4506365600        
  H    12    1     0.3995126100   -4.0192104000    3.2105185600        
  H    13    1    -0.3989345000    4.0060036200    3.2167297600        
  H    14    1     0.0016532400   -0.0082421400    5.5063510500        
[5D]
[7F]
[GTO]
  1  0
   s    12 1.00
  0.114200D+05  0.172695D-04
  0.171200D+04  0.134411D-03
  0.389300D+03  0.694561D-03
  0.110000D+03  0.278531D-02
  0.355700D+02  0.863457D-02
  0.125400D+02  0.199805D-01
  0.464400D+01  0.262908D-01
  0.129300D+01 -0.243845D-01
  0.511800D+00 -0.924934D-01
  0.178700D+00 -0.339683D+00
  0.246240D-01  0.345111D+00
  0.112530D-01  0.752750D+00
   s    10 1.00
  0.114200D+05  0.523000D-03
  0.171200D+04  0.404500D-02
  0.389300D+03  0.207750D-01
  0.110000D+03  0.807269D-01
  0.355700D+02  0.233074D+00
  0.125400D+02  0.433501D+00
  0.464400D+01  0.347472D+00
  0.129300D+01  0.412620D-01
  0.511800D+00 -0.850799D-02
  0.178700D+00  0.238400D-02
   s    10 1.00
  0.114200D+05 -0.115000D-03
  0.171200D+04 -0.895000D-03
  0.389300D+03 -0.462400D-02
  0.110000D+03 -0.185280D-01
  0.355700D+02 -0.573390D-01
  0.125400D+02 -0.132076D+00
  0.464400D+01 -0.172510D+00
  0.129300D+01  0.151814D+00
  0.511800D+00  0.599944D+00
  0.178700D+00  0.387462D+00
   s     1 1.00
  0.129300D+01  0.100000D+01
   s     1 1.00
  0.178700D+00  0.100000D+01
   p     5 1.00
  0.266300D+02  0.146700D-01
  0.594800D+01  0.917640D-01
  0.174200D+01  0.298683D+00
  0.555000D+00  0.498487D+00
  0.172500D+00  0.337023D+00
   p     1 1.00
  0.174200D+01  0.100000D+01
   p     1 1.00
  0.555000D+00  0.100000D+01
   d     1 1.00
  0.165400D+01  0.100000D+01
   d     1 1.00
  0.469000D+00  0.100000D+01
   f     1 1.00
  0.109300D+01  0.100000D+01
  
  2  0
   s    10 1.00
  0.823600D+04  0.531000D-03
  0.123500D+04  0.410800D-02
  0.280800D+03  0.210870D-01
  0.792700D+02  0.818530D-01
  0.255900D+02  0.234817D+00
  0.899700D+01  0.434401D+00
  0.331900D+01  0.346129D+00
  0.905900D+00  0.393780D-01
  0.364300D+00 -0.898300D-02
  0.128500D+00  0.238500D-02
   s    10 1.00
  0.823600D+04 -0.113000D-03
  0.123500D+04 -0.878000D-03
  0.280800D+03 -0.454000D-02
  0.792700D+02 -0.181330D-01
  0.255900D+02 -0.557600D-01
  0.899700D+01 -0.126895D+00
  0.331900D+01 -0.170352D+00
  0.905900D+00  0.140382D+00
  0.364300D+00  0.598684D+00
  0.128500D+00  0.395389D+00
   s     1 1.00
  0.905900D+00  0.100000D+01
   s     1 1.00
  0.364300D+00  0.100000D+01
   p     5 1.00
  0.187100D+02  0.140310D-01
  0.413300D+01  0.868660D-01
  0.120000D+01  0.290216D+00
  0.382700D+00  0.501008D+00
  0.120900D+00  0.343406D+00
   p     1 1.00
  0.382700D+00  0.100000D+01
   p     1 1.00
  0.120900D+00  0.100000D+01
   d     1 1.00
  0.109700D+01  0.100000D+01
   d     1 1.00
  0.318000D+00  0.100000D+01
   f     1 1.00
  0.761000D+00  0.100000D+01
  
  3  0
   s    10 1.00
  0.823600D+04  0.531000D-03
  0.123500D+04  0.410800D-02
  0.280800D+03  0.210870D-01
  0.792700D+02  0.818530D-01
  0.255900D+02  0.234817D+00
  0.899700D+01  0.434401D+00
  0.331900D+01  0.346129D+00
  0.905900D+00  0.393780D-01
  0.364300D+00 -0.898300D-02
  0.128500D+00  0.238500D-02
   s    10 1.00
  0.823600D+04 -0.113000D-03
  0.123500D+04 -0.878000D-03
  0.280800D+03 -0.454000D-02
  0.792700D+02 -0.181330D-01
  0.255900D+02 -0.557600D-01
  0.899700D+01 -0.126895D+00
  0.331900D+01 -0.170352D+00
  0.905900D+00  0.140382D+00
  0.364300D+00  0.598684D+00
  0.128500D+00  0.395389D+00
   s     1 1.00
  0.905900D+00  0.100000D+01
   s     1 1.00
  0.364300D+00  0.100000D+01
   p     5 1.00
  0.187100D+02  0.140310D-01
  0.413300D+01  0.868660D-01
  0.120000D+01  0.290216D+00
  0.382700D+00  0.501008D+00
  0.120900D+00  0.343406D+00
   p     1 1.00
  0.382700D+00  0.100000D+01
   p     1 1.00
  0.120900D+00  0.100000D+01
   d     1 1.00
  0.109700D+01  0.100000D+01
   d     1 1.00
  0.318000D+00  0.100000D+01
   f     1 1.00
  0.761000D+00  0.100000D+01
  
  4  0
   s    10 1.00
  0.823600D+04  0.531000D-03
  0.123500D+04  0.410800D-02
  0.280800D+03  0.210870D-01
  0.792700D+02  0.818530D-01
  0.255900D+02  0.234817D+00
  0.899700D+01  0.434401D+00
  0.331900D+01  0.346129D+00
  0.905900D+00  0.393780D-01
  0.364300D+00 -0.898300D-02
  0.128500D+00  0.238500D-02
   s    10 1.00
  0.823600D+04 -0.113000D-03
  0.123500D+04 -0.878000D-03
  0.280800D+03 -0.454000D-02
  0.792700D+02 -0.181330D-01
  0.255900D+02 -0.557600D-01
  0.899700D+01 -0.126895D+00
  0.331900D+01 -0.170352D+00
  0.905900D+00  0.140382D+00
  0.364300D+00  0.598684D+00
  0.128500D+00  0.395389D+00
   s     1 1.00
  0.905900D+00  0.100000D+01
   s     1 1.00
  0.364300D+00  0.100000D+01
   p     5 1.00
  0.187100D+02  0.140310D-01
  0.413300D+01  0.868660D-01
  0.120000D+01  0.290216D+00
  0.382700D+00  0.501008D+00
  0.120900D+00  0.343406D+00
   p     1 1.00
  0.382700D+00  0.100000D+01
   p     1 1.00
  0.120900D+00  0.100000D+01
   d     1 1.00
  0.109700D+01  0.100000D+01
   d     1 1.00
  0.318000D+00  0.100000D+01
   f     1 1.00
  0.761000D+00  0.100000D+01
  
  5  0
   s    10 1.00
  0.823600D+04  0.531000D-03
  0.123500D+04  0.410800D-02
  0.280800D+03  0.210870D-01
  0.792700D+02  0.818530D-01
  0.255900D+02  0.234817D+00
  0.899700D+01  0.434401D+00
  0.331900D+01  0.346129D+00
  0.905900D+00  0.393780D-01
  0.364300D+00 -0.898300D-02
  0.128500D+00  0.238500D-02
   s    10 1.00
  0.823600D+04 -0.113000D-03
  0.123500D+04 -0.878000D-03
  0.280800D+03 -0.454000D-02
  0.792700D+02 -0.181330D-01
  0.255900D+02 -0.557600D-01
  0.899700D+01 -0.126895D+00
  0.331900D+01 -0.170352D+00
  0.905900D+00  0.140382D+00
  0.364300D+00  0.598684D+00
  0.128500D+00  0.395389D+00
   s     1 1.00
  0.905900D+00  0.100000D+01
   s     1 1.00
  0.364300D+00  0.100000D+01
   p     5 1.00
  0.187100D+02  0.140310D-01
  0.413300D+01  0.868660D-01
  0.120000D+01  0.290216D+00
  0.382700D+00  0.501008D+00
  0.120900D+00  0.343406D+00
   p     1 1.00
  0.382700D+00  0.100000D+01
   p     1 1.00
  0.120900D+00  0.100000D+01
   d     1 1.00
  0.109700D+01  0.100000D+01
   d     1 1.00
  0.318000D+00  0.100000D+01
   f     1 1.00
  0.761000D+00  0.100000D+01
  
  6  0
   s    10 1.00
  0.823600D+04  0.531000D-03
  0.123500D+04  0.410800D-02
  0.280800D+03  0.210870D-01
  0.792700D+02  0.818530D-01
  0.255900D+02  0.234817D+00
  0.899700D+01  0.434401D+00
  0.331900D+01  0.346129D+00
  0.905900D+00  0.393780D-01
  0.364300D+00 -0.898300D-02
  0.128500D+00  0.238500D-02
   s    10 1.00
  0.823600D+04 -0.113000D-03
  0.123500D+04 -0.878000D-03
  0.280800D+03 -0.454000D-02
  0.792700D+02 -0.181330D-01
  0.255900D+02 -0.557600D-01
  0.899700D+01 -0.126895D+00
  0.331900D+01 -0.170352D+00
  0.905900D+00  0.140382D+00
  0.364300D+00  0.598684D+00
  0.128500D+00  0.395389D+00
   s     1 1.00
  0.905900D+00  0.100000D+01
   s     1 1.00
  0.364300D+00  0.100000D+01
   p     5 1.00
  0.187100D+02  0.140310D-01
  0.413300D+01  0.868660D-01
  0.120000D+01  0.290216D+00
  0.382700D+00  0.501008D+00
  0.120900D+00  0.343406D+00
   p     1 1.00
  0.382700D+00  0.100000D+01
   p     1 1.00
  0.120900D+00  0.100000D+01
   d     1 1.00
  0.109700D+01  0.100000D+01
   d     1 1.00
  0.318000D+00  0.100000D+01
   f     1 1.00
  0.761000D+00  0.100000D+01
  
  7  0
   s    10 1.00
  0.823600D+04  0.531000D-03
  0.123500D+04  0.410800D-02
  0.280800D+03  0.210870D-01
  0.792700D+02  0.818530D-01
  0.255900D+02  0.234817D+00
  0.899700D+01  0.434401D+00
  0.331900D+01  0.346129D+00
  0.905900D+00  0.393780D-01
  0.364300D+00 -0.898300D-02
  0.128500D+00  0.238500D-02
   s    10 1.00
  0.823600D+04 -0.113000D-03
  0.123500D+04 -0.878000D-03
  0.280800D+03 -0.454000D-02
  0.792700D+02 -0.181330D-01
  0.255900D+02 -0.557600D-01
  0.899700D+01 -0.126895D+00
  0.331900D+01 -0.170352D+00
  0.905900D+00  0.140382D+00
  0.364300D+00  0.598684D+00
  0.128500D+00  0.395389D+00
   s     1 1.00
  0.905900D+00  0.100000D+01
   s     1 1.00
  0.364300D+00  0.100000D+01
   p     5 1.00
  0.187100D+02  0.140310D-01
  0.413300D+01  0.868660D-01
  0.120000D+01  0.290216D+00
  0.382700D+00  0.501008D+00
  0.120900D+00  0.343406D+00
   p     1 1.00
  0.382700D+00  0.100000D+01
   p     1 1.00
  0.120900D+00  0.100000D+01
   d     1 1.00
  0.109700D+01  0.100000D+01
   d     1 1.00
  0.318000D+00  0.100000D+01
   f     1 1.00
  0.761000D+00  0.100000D+01
  
  8  0
   s     4 1.00
  0.130100D+02  0.196850D-01
  0.196200D+01  0.137977D+00
  0.444600D+00  0.478148D+00
  0.122000D+00  0.501240D+00
   s     1 1.00
  0.122000D+00  0.100000D+01
   p     1 1.00
  0.727000D+00  0.100000D+01
  
  9  0
   s     4 1.00
  0.130100D+02  0.196850D-01
  0.196200D+01  0.137977D+00
  0.444600D+00  0.478148D+00
  0.122000D+00  0.501240D+00
   s     1 1.00
  0.122000D+00  0.100000D+01
   p     1 1.00
  0.727000D+00  0.100000D+01
  
 10  0
   s     4 1.00
  0.130100D+02  0.196850D-01
  0.196200D+01  0.137977D+00
  0.444600D+00  0.478148D+00
  0.122000D+00  0.501240D+00
   s     1 1.00
  0.122000D+00  0.100000D+01
   p     1 1.00
  0.727000D+00  0.100000D+01
  
 11  0
   s     4 1.00
  0.130100D+02  0.196850D-01
  0.196200D+01  0.137977D+00
  0.444600D+00  0.478148D+00
  0.122000D+00  0.501240D+00
   s     1 1.00
  0.122000D+00  0.100000D+01
   p     1 1.00
  0.727000D+00  0.100000D+01
  
 12  0
   s     4 1.00
  0.130100D+02  0.196850D-01
  0.196200D+01  0.137977D+00
  0.444600D+00  0.478148D+00
  0.122000D+00  0.501240D+00
   s     1 1.00
  0.122000D+00  0.100000D+01
   p     1 1.00
  0.727000D+00  0.100000D+01
  
 13  0
   s     4 1.00
  0.130100D+02  0.196850D-01
  0.196200D+01  0.137977D+00
  0.444600D+00  0.478148D+00
  0.122000D+00  0.501240D+00
   s     1 1.00
  0.122000D+00  0.100000D+01
   p     1 1.00
  0.727000D+00  0.100000D+01
  
 14  0
   s     4 1.00
  0.130100D+02  0.196850D-01
  0.196200D+01  0.137977D+00
  0.444600D+00  0.478148D+00
  0.122000D+00  0.501240D+00
   s     1 1.00
  0.122000D+00  0.100000D+01
   p     1 1.00
  0.727000D+00  0.100000D+01
  
[MO]
 Sym= __1_A__
 Ene=   1.00000000000000     
 Spin= Alpha
 Occup=    1.00000000000000     
                     1  6.387121271370974E-005
                     2  0.997762422739662     
                     3  1.215723931064323E-002
                     4  2.166739647344065E-003
                     5  1.022100227643164E-003
                     6  1.884666216682061E-006
                     7 -2.268883036761411E-006
                     8  3.154180469778572E-003
                     9 -1.800990796028701E-007
                    10  2.216006124937227E-007
                    11 -2.957028457866261E-004
                    12 -3.682342211496870E-007
                    13  4.129347935187155E-007
                    14 -6.152125516752508E-004
                    15  1.370212361906765E-004
                    16  1.652716813467408E-007
                    17 -2.505791940215514E-007
                    18  5.112563523613078E-005
                    19  7.508751543651132E-005
                    20  1.803372659102700E-005
                    21 -4.429665793020728E-008
                    22  4.338290815147927E-007
                    23 -3.542932248834616E-004
                    24 -3.754058333376030E-004
                    25 -1.607002115506221E-004
                    26  1.968111731781625E-007
                    27 -2.004963554140149E-007
                    28 -2.701412988263426E-005
                    29 -5.497079113847455E-005
                    30  6.790013570171013E-008
                    31 -1.667297096643818E-008
                    32 -1.723871850715606E-004
                    33  2.657661902507838E-003
                    34  7.320912989755671E-005
                    35 -5.605441690545253E-004
                    36 -3.776301174425023E-006
                    37  4.548673158450363E-006
                    38 -6.338666935611147E-003
                    39 -1.761104892552485E-007
                    40  1.722077208842159E-007
                    41 -3.158086171494339E-004
                    42  2.131290635498020E-006
                    43 -2.526839652024890E-006
                    44  3.600214550875488E-003
                    45  3.768597896762550E-004
                    46  3.276486409293499E-007
                    47 -5.226446474416425E-007
                    48  9.614076849252545E-005
                    49 -5.797519092715285E-006
                    50  7.232032137527761E-004
                    51  7.415175606120247E-007
                    52 -1.156845610234661E-006
                    53  1.069089011516497E-004
                    54  8.431771685151581E-005
                    55 -4.130610152008508E-005
                    56  5.964578652703178E-009
                    57 -1.155524517542403E-007
                    58  4.452096388336186E-005
                    59 -1.164042450215949E-005
                    60 -2.232661008066748E-008
                    61 -5.106637634532724E-008
                    62 -1.808139797346280E-004
                    63 -1.646075432908433E-003
                    64 -7.712701038776456E-006
                    65  8.181277618273476E-004
                    66  3.070581644389347E-005
                    67 -8.608956422752857E-004
                    68  1.185799773242477E-003
                    69  3.627898206870517E-005
                    70  1.283564179006032E-004
                    71  9.669626096434513E-005
                    72  4.249830915011281E-005
                    73 -5.706893904337695E-004
                    74 -3.304159897549153E-004
                    75  8.991874510308791E-005
                    76  2.884270066041994E-006
                    77 -1.334894266257653E-005
                    78  3.099361893003352E-005
                    79  1.810615856318755E-006
                    80  3.586070175563566E-005
                    81 -9.849903407908725E-006
                    82 -3.311295059534956E-005
                    83  1.272723340830602E-005
                    84  2.381135878439141E-005
                    85 -7.237493865217860E-005
                    86  6.281967617042482E-006
                    87 -5.592116158093391E-006
                    88  2.119492892829924E-005
                    89 -3.241596018713366E-006
                    90  3.106487756627252E-006
                    91  2.171541157834168E-005
                    92 -1.807795194326001E-004
                    93 -1.645937696076687E-003
                    94 -7.558259656112695E-006
                    95  8.176502507421063E-004
                    96 -2.929792935285244E-005
                    97  8.592183564934158E-004
                    98  1.187169182813132E-003
                    99 -3.613800441234049E-005
                   100 -1.286326871307441E-004
                   101  9.598332625715231E-005
                   102 -4.284836910119594E-005
                   103  5.706154039771380E-004
                   104 -3.293827334043562E-004
                   105  8.992783736006499E-005
                   106 -2.732183517749864E-006
                   107  1.309603377246505E-005
                   108  3.101057750233560E-005
                   109  1.829522372244011E-006
                   110  3.550191649894421E-005
                   111  9.966649717500049E-006
                   112  3.287108070785348E-005
                   113  1.270260876627679E-005
                   114  2.383321226406467E-005
                   115 -7.234639114606764E-005
                   116 -6.113855031063766E-006
                   117  5.300862809762849E-006
                   118  2.114836642361898E-005
                   119 -3.192486567493941E-006
                   120 -3.132150360216361E-006
                   121 -2.175588641117819E-005
                   122 -1.506404039596520E-004
                   123  2.495841356948585E-005
                   124  7.064637337423511E-005
                   125  2.814621898332071E-004
                   126 -7.210601469503008E-005
                   127  5.107596506801011E-005
                   128 -8.385976334583053E-004
                   129 -4.843891536845435E-006
                   130  2.704465040320388E-005
                   131  1.890412560671052E-004
                   132  1.615367811308950E-005
                   133 -4.091540094062294E-005
                   134  5.288812718844037E-004
                   135  3.956669947270614E-007
                   136  1.250145703069227E-006
                   137  5.335255905246459E-006
                   138 -2.785784911680066E-006
                   139  1.212976345050284E-006
                   140 -1.180976736533003E-004
                   141 -1.200547928321959E-005
                   142  9.046958450771839E-005
                   143  3.934280899744178E-005
                   144 -3.426822162966295E-006
                   145 -2.283333783237483E-005
                   146  9.675881355021197E-008
                   147 -5.014067495766664E-006
                   148 -8.580315960030299E-006
                   149 -1.328107453060131E-006
                   150 -1.072131458507748E-006
                   151 -2.301762636682521E-006
                   152 -1.510962715741656E-004
                   153  2.333816629697133E-005
                   154  7.016282651527041E-005
                   155  2.844333678368888E-004
                   156  7.109507186871924E-005
                   157 -4.981587250864973E-005
                   158 -8.387290734809346E-004
                   159  5.133720227261408E-006
                   160 -2.771245384317730E-005
                   161  1.887036472761818E-004
                   162 -1.558014906001829E-005
                   163  4.066336751792455E-005
                   164  5.291345392811317E-004
                   165  4.354137984338805E-007
                   166 -1.247348177597958E-006
                   167 -5.343636356036672E-006
                   168 -2.846620455402258E-006
                   169  1.197592598538453E-006
                   170 -1.182381417644468E-004
                   171  1.171947427733468E-005
                   172 -9.049088229016794E-005
                   173  3.916779257873678E-005
                   174 -3.556075676305540E-006
                   175 -2.276551631304402E-005
                   176 -1.182181546937254E-008
                   177  4.960806033490298E-006
                   178 -8.616045918032472E-006
                   179 -1.330319867435649E-006
                   180  1.088737231309718E-006
                   181  2.325332571824786E-006
                   182 -1.226102243627411E-004
                   183 -3.346775675015505E-004
                   184  2.334423382870008E-005
                   185  2.372360895830987E-004
                   186 -3.503115937669146E-008
                   187  1.188022118693096E-007
                   188 -4.034963483213130E-005
                   189  5.222391506841205E-008
                   190 -4.746986833377746E-007
                   191  8.668681984416643E-006
                   192 -2.285584945083820E-008
                   193 -1.660798869573909E-008
                   194 -5.160105313209648E-005
                   195  2.187031458213533E-005
                   196  1.709444544627800E-008
                   197 -8.443709873128948E-009
                   198  7.391323505487080E-006
                   199  2.355828220251977E-006
                   200  2.484600287337341E-005
                   201 -6.534208230755732E-009
                   202  1.787860626218747E-007
                   203  2.420772897870276E-005
                   204  1.500504703596296E-006
                   205 -9.564929021293205E-006
                   206  1.546748543912771E-008
                   207 -2.616046779345201E-008
                   208  1.026398960648814E-006
                   209  1.428214783894357E-006
                   210  5.368173708362806E-009
                   211  2.805843060230699E-008
                   212  5.837778971608229E-003
                   213 -3.211860631010726E-003
                   214  5.773560572064244E-004
                   215  2.397005758601266E-004
                   216  4.162117547849793E-004
                   217  5.837754265594211E-003
                   218 -3.211850533268959E-003
                   219 -5.768575461015800E-004
                   220 -2.402977991885970E-004
                   221  4.165542575247239E-004
                   222 -6.545656856901018E-004
                   223 -1.933876436529142E-004
                   224  4.395843747347253E-006
                   225 -3.817426064140625E-005
                   226 -4.573714893659834E-005
                   227 -6.546275798444667E-004
                   228 -1.930293484950273E-004
                   229 -4.449937761036670E-006
                   230  3.822190078250884E-005
                   231 -4.570207498911927E-005
                   232 -2.618234480923456E-004
                   233 -2.202751996919976E-004
                   234 -2.322476020917630E-006
                   235 -1.419046631940651E-005
                   236 -2.837014893085969E-006
                   237 -2.618655700268606E-004
                   238 -2.204194430570666E-004
                   239  2.313757729855619E-006
                   240  1.423883522223496E-005
                   241 -2.770591291964088E-006
                   242  1.149693012754197E-004
                   243 -1.749756661095136E-005
                   244  8.641512580630670E-009
                   245 -3.194966249152130E-008
                   246  1.267465615984454E-005
 Sym= __2_A__
 Ene=   2.00000000000000     
 Spin= Alpha
 Occup=    1.00000000000000     
                     1 -1.104062046296770E-005
                     2 -5.978864204503838E-005
                     3  1.845306694805348E-003
                     4  1.636928553512996E-005
                     5  1.090378721593751E-003
                     6  1.148469426859698E-006
                     7 -1.385212472071289E-006
                     8  1.941881249543176E-003
                     9 -6.865119563851000E-008
                    10  8.363752587541966E-008
                    11 -1.201261746091382E-004
                    12  2.327157260554741E-008
                    13 -2.052821214542587E-008
                    14  3.412088216901331E-005
                    15  6.186317881905994E-005
                    16  4.509183576638179E-008
                    17 -7.402913435321526E-008
                    18  1.084446712613116E-005
                    19 -1.651841144641128E-005
                    20 -5.826068209361459E-005
                    21  1.328927980358148E-008
                    22  6.259708118366570E-008
                    23 -4.015793646312770E-005
                    24  6.585092212436493E-005
                    25  1.897327068339813E-004
                    26 -2.485907287732750E-007
                    27  4.081200595952570E-007
                    28 -5.224275015511438E-005
                    29 -1.984251209703774E-005
                    30  5.558353989620540E-008
                    31  3.163984727005190E-008
                    32   1.00098716736331     
                    33  8.887293718605782E-003
                    34  2.660855235966919E-003
                    35 -8.108738166767129E-003
                    36 -1.777821887493832E-006
                    37  2.128996272011150E-006
                    38 -2.987170735821663E-003
                    39  8.116999391679737E-007
                    40 -9.711347802874303E-007
                    41  1.366760376452516E-003
                    42  2.087633063833174E-006
                    43 -2.564506219684522E-006
                    44  3.496032298312385E-003
                    45  2.323729671507088E-004
                    46  4.699849751076852E-007
                    47  7.793609911072734E-009
                    48 -4.052991349563826E-004
                    49 -1.456397326887838E-005
                    50  4.340052666025612E-004
                    51 -4.939060648954822E-008
                    52 -1.211044874104274E-006
                    53  9.130094038605126E-004
                    54  6.266049457244387E-005
                    55  2.732708765142829E-004
                    56 -2.329394312223068E-007
                    57  6.831366252752321E-007
                    58 -1.785721961037880E-004
                    59 -1.809769383693830E-006
                    60  1.319239358839290E-007
                    61  1.567765950738700E-007
                    62  1.389442583298497E-002
                    63 -1.771742763310568E-003
                    64 -2.890788594232748E-004
                    65  3.001060008664265E-003
                    66 -8.875966909896873E-006
                    67  2.729919813768842E-004
                    68 -1.228479327515045E-004
                    69 -2.135837100789871E-005
                    70  4.803800922025177E-004
                    71  2.716788831997549E-005
                    72  1.212137934748073E-004
                    73 -1.851397668137650E-003
                    74  1.290209513250866E-004
                    75 -2.683878208889662E-005
                    76  1.578990743846834E-006
                    77  2.450281401888768E-005
                    78  2.171236204920612E-005
                    79  1.614518740502702E-006
                    80  8.380705060822018E-004
                    81  4.809016641666729E-005
                    82 -5.132100135116395E-004
                    83  5.013200805208056E-006
                    84 -1.256045723402745E-005
                    85  4.385079060718076E-005
                    86  1.822729778612137E-006
                    87  3.267791256496736E-005
                    88 -9.944337951865229E-005
                    89 -5.067545373092725E-006
                    90  7.666126050587929E-006
                    91  5.628747143889455E-005
                    92  1.389439931957641E-002
                    93 -1.771819100398376E-003
                    94 -2.891252369011795E-004
                    95  3.001253235990139E-003
                    96  8.730247403400625E-006
                    97 -2.728179292934682E-004
                    98 -1.232756289646777E-004
                    99  2.138451376148736E-005
                   100 -4.804087478897902E-004
                   101  2.660074466092118E-005
                   102 -1.210706067286777E-004
                   103  1.851357221877808E-003
                   104  1.316639057074771E-004
                   105 -2.688255779653019E-005
                   106 -1.658388964135597E-006
                   107 -2.447533253625654E-005
                   108  2.167411484736872E-005
                   109  1.588024533515679E-006
                   110  8.395181082200838E-004
                   111 -4.639157266171720E-005
                   112  5.111875451416048E-004
                   113  5.711298734730142E-006
                   114 -1.188222278720193E-005
                   115  4.394296420284741E-005
                   116 -1.776010294512574E-006
                   117 -3.228893965842289E-005
                   118 -9.962740830091197E-005
                   119 -5.055534728478824E-006
                   120 -7.511887293110232E-006
                   121 -5.612001239672053E-005
                   122 -1.051539922971632E-004
                   123 -7.570169993229595E-004
                   124  2.329950438898430E-004
                   125 -2.312761528631711E-004
                   126 -9.852086470529638E-006
                   127 -5.439013415466351E-005
                   128 -1.758750745355637E-004
                   129  2.835120586250179E-005
                   130  7.419015538419644E-005
                   131  5.611553065780064E-004
                   132 -1.879142808823554E-005
                   133  3.448272768710549E-004
                   134  5.931215760689231E-004
                   135 -2.544042008860187E-005
                   136 -5.053359853164038E-006
                   137  4.908254927214256E-005
                   138  1.645799695706053E-005
                   139  6.536396279735593E-006
                   140 -3.145205721837038E-004
                   141 -8.355773653053141E-006
                   142 -3.027223764717158E-004
                   143 -3.579896647309836E-005
                   144 -3.689132999800404E-005
                   145 -9.291230748124875E-006
                   146  6.650596320769320E-006
                   147 -1.957446509028966E-005
                   148 -2.185225221289600E-005
                   149 -5.021171319589531E-006
                   150 -4.432723111408921E-007
                   151 -8.336668649230603E-006
                   152 -1.048732283894334E-004
                   153 -7.560884139137950E-004
                   154  2.330874278118493E-004
                   155 -2.323621655940420E-004
                   156  9.645297078094238E-006
                   157  5.462733109442489E-005
                   158 -1.758125830348882E-004
                   159 -2.769723330785479E-005
                   160 -7.491361749911787E-005