[Molden Format]
[Atoms] AU
  N     1    7     0.0000000000   -4.2907334100    0.0000000000        
  C     2    6     0.0000000000   -1.7772236300    0.0000000000        
  C     3    6    -2.3389203600   -0.4111016300    0.0000000000        
  C     4    6     2.3389203600   -0.4111016300    0.0000000000        
  C     5    6    -2.2998668500    2.1639215300    0.0000000000        
  C     6    6     2.2998668500    2.1639215300    0.0000000000        
  C     7    6     0.0000000000    3.4755251800    0.0000000000        
  H     8    1    -3.6990913900   -6.5727623300    0.0000000000        
  H     9    1     1.6528040300   -5.3103747800    0.0000000000        
  H    10    1    -4.0745407300   -1.4447408500    0.0000000000        
  H    11    1     4.0745407300   -1.4447408500    0.0000000000        
  H    12    1    -4.0420632100    3.1963889500    0.0000000000        
  H    13    1     4.0420632100    3.1963889500    0.0000000000        
  H    14    1     0.0000000000    5.5020335600    0.0000000000        
[5D]
[7F]
[GTO]
  1  0
   s    12 1.00
  0.114200D+05  0.172695D-04
  0.171200D+04  0.134411D-03
  0.389300D+03  0.694561D-03
  0.110000D+03  0.278531D-02
  0.355700D+02  0.863457D-02
  0.125400D+02  0.199805D-01
  0.464400D+01  0.262908D-01
  0.129300D+01 -0.243845D-01
  0.511800D+00 -0.924934D-01
  0.178700D+00 -0.339683D+00
  0.246240D-01  0.345111D+00
  0.112530D-01  0.752750D+00
   s    10 1.00
  0.114200D+05  0.523000D-03
  0.171200D+04  0.404500D-02
  0.389300D+03  0.207750D-01
  0.110000D+03  0.807269D-01
  0.355700D+02  0.233074D+00
  0.125400D+02  0.433501D+00
  0.464400D+01  0.347472D+00
  0.129300D+01  0.412620D-01
  0.511800D+00 -0.850799D-02
  0.178700D+00  0.238400D-02
   s    10 1.00
  0.114200D+05 -0.115000D-03
  0.171200D+04 -0.895000D-03
  0.389300D+03 -0.462400D-02
  0.110000D+03 -0.185280D-01
  0.355700D+02 -0.573390D-01
  0.125400D+02 -0.132076D+00
  0.464400D+01 -0.172510D+00
  0.129300D+01  0.151814D+00
  0.511800D+00  0.599944D+00
  0.178700D+00  0.387462D+00
   s     1 1.00
  0.129300D+01  0.100000D+01
   s     1 1.00
  0.178700D+00  0.100000D+01
   p     5 1.00
  0.266300D+02  0.146700D-01
  0.594800D+01  0.917640D-01
  0.174200D+01  0.298683D+00
  0.555000D+00  0.498487D+00
  0.172500D+00  0.337023D+00
   p     1 1.00
  0.174200D+01  0.100000D+01
   p     1 1.00
  0.555000D+00  0.100000D+01
   d     1 1.00
  0.165400D+01  0.100000D+01
   d     1 1.00
  0.469000D+00  0.100000D+01
   f     1 1.00
  0.109300D+01  0.100000D+01
  
  2  0
   s    10 1.00
  0.823600D+04  0.531000D-03
  0.123500D+04  0.410800D-02
  0.280800D+03  0.210870D-01
  0.792700D+02  0.818530D-01
  0.255900D+02  0.234817D+00
  0.899700D+01  0.434401D+00
  0.331900D+01  0.346129D+00
  0.905900D+00  0.393780D-01
  0.364300D+00 -0.898300D-02
  0.128500D+00  0.238500D-02
   s    10 1.00
  0.823600D+04 -0.113000D-03
  0.123500D+04 -0.878000D-03
  0.280800D+03 -0.454000D-02
  0.792700D+02 -0.181330D-01
  0.255900D+02 -0.557600D-01
  0.899700D+01 -0.126895D+00
  0.331900D+01 -0.170352D+00
  0.905900D+00  0.140382D+00
  0.364300D+00  0.598684D+00
  0.128500D+00  0.395389D+00
   s     1 1.00
  0.905900D+00  0.100000D+01
   s     1 1.00
  0.364300D+00  0.100000D+01
   p     5 1.00
  0.187100D+02  0.140310D-01
  0.413300D+01  0.868660D-01
  0.120000D+01  0.290216D+00
  0.382700D+00  0.501008D+00
  0.120900D+00  0.343406D+00
   p     1 1.00
  0.382700D+00  0.100000D+01
   p     1 1.00
  0.120900D+00  0.100000D+01
   d     1 1.00
  0.109700D+01  0.100000D+01
   d     1 1.00
  0.318000D+00  0.100000D+01
   f     1 1.00
  0.761000D+00  0.100000D+01
  
  3  0
   s    10 1.00
  0.823600D+04  0.531000D-03
  0.123500D+04  0.410800D-02
  0.280800D+03  0.210870D-01
  0.792700D+02  0.818530D-01
  0.255900D+02  0.234817D+00
  0.899700D+01  0.434401D+00
  0.331900D+01  0.346129D+00
  0.905900D+00  0.393780D-01
  0.364300D+00 -0.898300D-02
  0.128500D+00  0.238500D-02
   s    10 1.00
  0.823600D+04 -0.113000D-03
  0.123500D+04 -0.878000D-03
  0.280800D+03 -0.454000D-02
  0.792700D+02 -0.181330D-01
  0.255900D+02 -0.557600D-01
  0.899700D+01 -0.126895D+00
  0.331900D+01 -0.170352D+00
  0.905900D+00  0.140382D+00
  0.364300D+00  0.598684D+00
  0.128500D+00  0.395389D+00
   s     1 1.00
  0.905900D+00  0.100000D+01
   s     1 1.00
  0.364300D+00  0.100000D+01
   p     5 1.00
  0.187100D+02  0.140310D-01
  0.413300D+01  0.868660D-01
  0.120000D+01  0.290216D+00
  0.382700D+00  0.501008D+00
  0.120900D+00  0.343406D+00
   p     1 1.00
  0.382700D+00  0.100000D+01
   p     1 1.00
  0.120900D+00  0.100000D+01
   d     1 1.00
  0.109700D+01  0.100000D+01
   d     1 1.00
  0.318000D+00  0.100000D+01
   f     1 1.00
  0.761000D+00  0.100000D+01
  
  4  0
   s    10 1.00
  0.823600D+04  0.531000D-03
  0.123500D+04  0.410800D-02
  0.280800D+03  0.210870D-01
  0.792700D+02  0.818530D-01
  0.255900D+02  0.234817D+00
  0.899700D+01  0.434401D+00
  0.331900D+01  0.346129D+00
  0.905900D+00  0.393780D-01
  0.364300D+00 -0.898300D-02
  0.128500D+00  0.238500D-02
   s    10 1.00
  0.823600D+04 -0.113000D-03
  0.123500D+04 -0.878000D-03
  0.280800D+03 -0.454000D-02
  0.792700D+02 -0.181330D-01
  0.255900D+02 -0.557600D-01
  0.899700D+01 -0.126895D+00
  0.331900D+01 -0.170352D+00
  0.905900D+00  0.140382D+00
  0.364300D+00  0.598684D+00
  0.128500D+00  0.395389D+00
   s     1 1.00
  0.905900D+00  0.100000D+01
   s     1 1.00
  0.364300D+00  0.100000D+01
   p     5 1.00
  0.187100D+02  0.140310D-01
  0.413300D+01  0.868660D-01
  0.120000D+01  0.290216D+00
  0.382700D+00  0.501008D+00
  0.120900D+00  0.343406D+00
   p     1 1.00
  0.382700D+00  0.100000D+01
   p     1 1.00
  0.120900D+00  0.100000D+01
   d     1 1.00
  0.109700D+01  0.100000D+01
   d     1 1.00
  0.318000D+00  0.100000D+01
   f     1 1.00
  0.761000D+00  0.100000D+01
  
  5  0
   s    10 1.00
  0.823600D+04  0.531000D-03
  0.123500D+04  0.410800D-02
  0.280800D+03  0.210870D-01
  0.792700D+02  0.818530D-01
  0.255900D+02  0.234817D+00
  0.899700D+01  0.434401D+00
  0.331900D+01  0.346129D+00
  0.905900D+00  0.393780D-01
  0.364300D+00 -0.898300D-02
  0.128500D+00  0.238500D-02
   s    10 1.00
  0.823600D+04 -0.113000D-03
  0.123500D+04 -0.878000D-03
  0.280800D+03 -0.454000D-02
  0.792700D+02 -0.181330D-01
  0.255900D+02 -0.557600D-01
  0.899700D+01 -0.126895D+00
  0.331900D+01 -0.170352D+00
  0.905900D+00  0.140382D+00
  0.364300D+00  0.598684D+00
  0.128500D+00  0.395389D+00
   s     1 1.00
  0.905900D+00  0.100000D+01
   s     1 1.00
  0.364300D+00  0.100000D+01
   p     5 1.00
  0.187100D+02  0.140310D-01
  0.413300D+01  0.868660D-01
  0.120000D+01  0.290216D+00
  0.382700D+00  0.501008D+00
  0.120900D+00  0.343406D+00
   p     1 1.00
  0.382700D+00  0.100000D+01
   p     1 1.00
  0.120900D+00  0.100000D+01
   d     1 1.00
  0.109700D+01  0.100000D+01
   d     1 1.00
  0.318000D+00  0.100000D+01
   f     1 1.00
  0.761000D+00  0.100000D+01
  
  6  0
   s    10 1.00
  0.823600D+04  0.531000D-03
  0.123500D+04  0.410800D-02
  0.280800D+03  0.210870D-01
  0.792700D+02  0.818530D-01
  0.255900D+02  0.234817D+00
  0.899700D+01  0.434401D+00
  0.331900D+01  0.346129D+00
  0.905900D+00  0.393780D-01
  0.364300D+00 -0.898300D-02
  0.128500D+00  0.238500D-02
   s    10 1.00
  0.823600D+04 -0.113000D-03
  0.123500D+04 -0.878000D-03
  0.280800D+03 -0.454000D-02
  0.792700D+02 -0.181330D-01
  0.255900D+02 -0.557600D-01
  0.899700D+01 -0.126895D+00
  0.331900D+01 -0.170352D+00
  0.905900D+00  0.140382D+00
  0.364300D+00  0.598684D+00
  0.128500D+00  0.395389D+00
   s     1 1.00
  0.905900D+00  0.100000D+01
   s     1 1.00
  0.364300D+00  0.100000D+01
   p     5 1.00
  0.187100D+02  0.140310D-01
  0.413300D+01  0.868660D-01
  0.120000D+01  0.290216D+00
  0.382700D+00  0.501008D+00
  0.120900D+00  0.343406D+00
   p     1 1.00
  0.382700D+00  0.100000D+01
   p     1 1.00
  0.120900D+00  0.100000D+01
   d     1 1.00
  0.109700D+01  0.100000D+01
   d     1 1.00
  0.318000D+00  0.100000D+01
   f     1 1.00
  0.761000D+00  0.100000D+01
  
  7  0
   s    10 1.00
  0.823600D+04  0.531000D-03
  0.123500D+04  0.410800D-02
  0.280800D+03  0.210870D-01
  0.792700D+02  0.818530D-01
  0.255900D+02  0.234817D+00
  0.899700D+01  0.434401D+00
  0.331900D+01  0.346129D+00
  0.905900D+00  0.393780D-01
  0.364300D+00 -0.898300D-02
  0.128500D+00  0.238500D-02
   s    10 1.00
  0.823600D+04 -0.113000D-03
  0.123500D+04 -0.878000D-03
  0.280800D+03 -0.454000D-02
  0.792700D+02 -0.181330D-01
  0.255900D+02 -0.557600D-01
  0.899700D+01 -0.126895D+00
  0.331900D+01 -0.170352D+00
  0.905900D+00  0.140382D+00
  0.364300D+00  0.598684D+00
  0.128500D+00  0.395389D+00
   s     1 1.00
  0.905900D+00  0.100000D+01
   s     1 1.00
  0.364300D+00  0.100000D+01
   p     5 1.00
  0.187100D+02  0.140310D-01
  0.413300D+01  0.868660D-01
  0.120000D+01  0.290216D+00
  0.382700D+00  0.501008D+00
  0.120900D+00  0.343406D+00
   p     1 1.00
  0.382700D+00  0.100000D+01
   p     1 1.00
  0.120900D+00  0.100000D+01
   d     1 1.00
  0.109700D+01  0.100000D+01
   d     1 1.00
  0.318000D+00  0.100000D+01
   f     1 1.00
  0.761000D+00  0.100000D+01
  
  8  0
   s     4 1.00
  0.130100D+02  0.196850D-01
  0.196200D+01  0.137977D+00
  0.444600D+00  0.478148D+00
  0.122000D+00  0.501240D+00
   s     1 1.00
  0.122000D+00  0.100000D+01
   p     1 1.00
  0.727000D+00  0.100000D+01
  
  9  0
   s     4 1.00
  0.130100D+02  0.196850D-01
  0.196200D+01  0.137977D+00
  0.444600D+00  0.478148D+00
  0.122000D+00  0.501240D+00
   s     1 1.00
  0.122000D+00  0.100000D+01
   p     1 1.00
  0.727000D+00  0.100000D+01
  
 10  0
   s     4 1.00
  0.130100D+02  0.196850D-01
  0.196200D+01  0.137977D+00
  0.444600D+00  0.478148D+00
  0.122000D+00  0.501240D+00
   s     1 1.00
  0.122000D+00  0.100000D+01
   p     1 1.00
  0.727000D+00  0.100000D+01
  
 11  0
   s     4 1.00
  0.130100D+02  0.196850D-01
  0.196200D+01  0.137977D+00
  0.444600D+00  0.478148D+00
  0.122000D+00  0.501240D+00
   s     1 1.00
  0.122000D+00  0.100000D+01
   p     1 1.00
  0.727000D+00  0.100000D+01
  
 12  0
   s     4 1.00
  0.130100D+02  0.196850D-01
  0.196200D+01  0.137977D+00
  0.444600D+00  0.478148D+00
  0.122000D+00  0.501240D+00
   s     1 1.00
  0.122000D+00  0.100000D+01
   p     1 1.00
  0.727000D+00  0.100000D+01
  
 13  0
   s     4 1.00
  0.130100D+02  0.196850D-01
  0.196200D+01  0.137977D+00
  0.444600D+00  0.478148D+00
  0.122000D+00  0.501240D+00
   s     1 1.00
  0.122000D+00  0.100000D+01
   p     1 1.00
  0.727000D+00  0.100000D+01
  
 14  0
   s     4 1.00
  0.130100D+02  0.196850D-01
  0.196200D+01  0.137977D+00
  0.444600D+00  0.478148D+00
  0.122000D+00  0.501240D+00
   s     1 1.00
  0.122000D+00  0.100000D+01
   p     1 1.00
  0.727000D+00  0.100000D+01
  
[MO]
 Sym= __1_a__
 Ene=  0.000000000000000E+000
 Spin= Alpha
 Occup=    2.00000000000000     
                     1  9.555883665780050E-005
                     2  0.998366271541210     
                     3 -4.864843522633270E-003
                     4  1.971392815948090E-003
                     5  6.371682826027660E-003
                     6  2.654730452972030E-003
                     7  5.252670211010040E-003
                     8  0.000000000000000E+000
                     9 -7.662130872710330E-004
                    10 -5.687336209542040E-004
                    11  0.000000000000000E+000
                    12 -2.501218059128770E-003
                    13 -1.594282076918490E-003
                    14  0.000000000000000E+000
                    15 -4.213457923368836E-005
                    16  0.000000000000000E+000
                    17  0.000000000000000E+000
                    18 -1.711042417731224E-004
                    19 -6.825634779458330E-005
                    20  1.725051024202114E-004
                    21  0.000000000000000E+000
                    22  0.000000000000000E+000
                    23 -9.813073521429740E-005
                    24  5.608907969298090E-004
                    25  0.000000000000000E+000
                    26  5.675309113552531E-006
                    27 -4.181771145304234E-005
                    28  0.000000000000000E+000
                    29  0.000000000000000E+000
                    30  1.664892401280158E-005
                    31 -8.620694037306459E-005
                    32 -2.239735294599410E-004
                    33  2.269133631806770E-004
                    34  2.871488174860550E-004
                    35 -4.063908606013040E-005
                    36 -8.221096422035650E-005
                    37 -1.727072435872790E-003
                    38  0.000000000000000E+000
                    39  4.812730095840760E-004
                    40 -2.788763408438210E-005
                    41  0.000000000000000E+000
                    42 -2.176322126654150E-003
                    43  4.605102695647680E-003
                    44  0.000000000000000E+000
                    45  1.079951927498132E-005
                    46  0.000000000000000E+000
                    47  0.000000000000000E+000
                    48 -9.513949939921781E-005
                    49  1.130595283484740E-005
                    50 -1.671757896307407E-004
                    51  0.000000000000000E+000
                    52  0.000000000000000E+000
                    53  1.158888927488906E-004
                    54  8.054244674608460E-004
                    55  0.000000000000000E+000
                    56 -1.018446762492208E-005
                    57 -8.818172269551181E-005
                    58  0.000000000000000E+000
                    59  0.000000000000000E+000
                    60 -2.121978512856084E-005
                    61 -1.481730823749365E-004
                    62 -5.311261609252440E-004
                    63 -1.910650517904440E-003
                    64 -1.103985351383730E-004
                    65  2.222386290104290E-003
                    66 -2.740497846021240E-004
                    67 -1.167866817643920E-004
                    68  0.000000000000000E+000
                    69  4.536104155307190E-004
                    70  8.471138350980251E-004
                    71  0.000000000000000E+000
                    72 -1.708034546881930E-003
                    73  6.455989112601630E-004
                    74  0.000000000000000E+000
                    75 -5.017682885697516E-005
                    76  0.000000000000000E+000
                    77  0.000000000000000E+000
                    78 -4.938086248913840E-005
                    79 -3.446789475413950E-005
                    80 -1.590485306171115E-004
                    81  0.000000000000000E+000
                    82  0.000000000000000E+000
                    83  9.916094625226240E-005
                    84  2.447774187236830E-005
                    85  0.000000000000000E+000
                    86  5.257123982977405E-006
                    87 -4.081904230932697E-005
                    88  0.000000000000000E+000
                    89  0.000000000000000E+000
                    90 -1.989297319050617E-005
                    91 -1.616251284555766E-004
                    92 -1.065165382893690E-004
                    93 -2.438844698384980E-004
                    94  1.848453582076070E-004
                    95 -3.468731514745090E-004
                    96  1.564168421774990E-005
                    97 -1.846100954378700E-004
                    98  0.000000000000000E+000
                    99  4.005941325265850E-004
                   100  3.004282042694430E-004
                   101  0.000000000000000E+000
                   102  5.749248462229990E-004
                   103 -1.379244830055840E-003
                   104  0.000000000000000E+000
                   105 -1.570913779024823E-005
                   106  0.000000000000000E+000
                   107  0.000000000000000E+000
                   108 -1.889477336883622E-005
                   109 -1.063762832198790E-005
                   110  1.386570600493480E-004
                   111  0.000000000000000E+000
                   112  0.000000000000000E+000
                   113 -7.504996288377639E-005
                   114  2.860988193142320E-005
                   115  0.000000000000000E+000
                   116 -1.873891258028631E-005
                   117 -2.492583626936459E-005
                   118  0.000000000000000E+000
                   119  0.000000000000000E+000
                   120  2.554890358063212E-005
                   121 -3.275260449111455E-005
                   122 -2.563204391010840E-004
                   123 -7.485002117817770E-004
                   124  1.749919950985990E-004
                   125  3.465732497835180E-004
                   126 -3.863810233556050E-005
                   127 -1.525044149105000E-004
                   128  0.000000000000000E+000
                   129  2.180459775363510E-004
                   130  5.999211397873010E-004
                   131  0.000000000000000E+000
                   132  3.257553656190480E-004
                   133  1.848493011584690E-003
                   134  0.000000000000000E+000
                   135  1.516875408567511E-005
                   136  0.000000000000000E+000
                   137  0.000000000000000E+000
                   138  5.284528887479020E-005
                   139 -8.310665382917071E-006
                   140  2.154281805199343E-004
                   141  0.000000000000000E+000
                   142  0.000000000000000E+000
                   143  3.738710437757060E-004
                   144  2.153091849294220E-004
                   145  0.000000000000000E+000
                   146 -1.126385440690480E-005
                   147 -6.291477101352633E-005
                   148  0.000000000000000E+000
                   149  0.000000000000000E+000
                   150 -1.285407218520773E-005
                   151 -5.945816257439255E-005
                   152 -1.623944121791380E-004
                   153 -5.455932009231320E-004
                   154  2.506107491307560E-005
                   155  4.088067996765890E-004
                   156  5.550328045826210E-006
                   157  4.396493903053390E-005
                   158  0.000000000000000E+000
                   159 -3.358699823943150E-006
                   160 -1.485918301737800E-005
                   161  0.000000000000000E+000
                   162  6.794685090097420E-004
                   163 -2.998571149424530E-004
                   164  0.000000000000000E+000
                   165 -5.190042282844997E-007
                   166  0.000000000000000E+000
                   167  0.000000000000000E+000
                   168  7.590865112048820E-007
                   169  1.785851579226610E-005
                   170  6.400389118976267E-005
                   171  0.000000000000000E+000
                   172  0.000000000000000E+000
                   173  1.606028870164748E-005
                   174  1.135418446372590E-005
                   175  0.000000000000000E+000
                   176  6.823404509422704E-006
                   177 -9.548642901509036E-006
                   178  0.000000000000000E+000
                   179  0.000000000000000E+000
                   180 -3.282553953617633E-005
                   181 -1.690937884492029E-005
                   182 -1.534771879790770E-004
                   183 -4.579342805094120E-004
                   184  3.904549965941390E-005
                   185  2.465695141399410E-004
                   186 -3.620198117701810E-005
                   187 -5.100613696106260E-005
                   188  0.000000000000000E+000
                   189  2.055067104962140E-004
                   190  8.370756255808509E-005
                   191  0.000000000000000E+000
                   192  1.201023001585010E-003
                   193 -2.449361345598410E-004
                   194  0.000000000000000E+000
                   195 -8.791233824599318E-007
                   196  0.000000000000000E+000
                   197  0.000000000000000E+000
                   198 -3.956066770513220E-006
                   199  7.767535334966650E-006
                   200  1.148506479402325E-005
                   201  0.000000000000000E+000
                   202  0.000000000000000E+000
                   203 -7.447252042661860E-005
                   204 -1.783307532984770E-004
                   205  0.000000000000000E+000
                   206 -5.629952615029349E-006
                   207 -4.043808613132291E-006
                   208  0.000000000000000E+000
                   209  0.000000000000000E+000
                   210  1.028769919914283E-005
                   211 -2.502198954681844E-006
                   212 -2.912768844280980E-005
                   213  1.313142137462300E-004
                   214  1.198100452007870E-005
                   215  2.761154066954900E-005
                   216  0.000000000000000E+000
                   217 -1.796896069241690E-003
                   218 -1.740495312668980E-004
                   219 -1.978942936409400E-004
                   220  2.549842599187080E-005
                   221  0.000000000000000E+000
                   222 -1.756960712205420E-004
                   223 -6.590928560377840E-004
                   224  2.548096013680090E-005
                   225 -6.867774511004530E-005
                   226  0.000000000000000E+000
                   227  1.164436519282950E-004
                   228 -6.080014107999200E-004
                   229 -3.384933495564240E-005
                   230 -1.614770230329330E-005
                   231  0.000000000000000E+000
                   232  9.043589720479390E-005
                   233 -5.288091158889119E-004
                   234  1.727428265939990E-005
                   235 -3.459312596342360E-006
                   236  0.000000000000000E+000
                   237  4.087682914413150E-005
                   238 -3.649785619119490E-004
                   239 -3.777877199101420E-006
                   240  3.886697136608450E-006
                   241  0.000000000000000E+000
                   242 -6.123995196888060E-005
                   243  2.073491615428230E-005
                   244  3.681275166836910E-007
                   245  2.444142652498320E-005
                   246  0.000000000000000E+000
 Sym= __2_a__
 Ene=  0.000000000000000E+000
 Spin= Alpha
 Occup=    2.00000000000000     
                     1  4.660273259716070E-005
                     2  3.866555916880500E-004
                     3 -2.872385737591110E-003
                     4 -1.373531735796590E-004
                     5 -1.341593552077650E-003
                     6  2.763121190356820E-004
                     7 -2.789932591272720E-003
                     8  0.000000000000000E+000
                     9  8.822158191319190E-005
                    10  1.021331371254480E-004
                    11  0.000000000000000E+000
                    12 -8.883211883970000E-005
                    13  4.029998200628220E-004
                    14  0.000000000000000E+000
                    15 -2.746202614804136E-005
                    16  0.000000000000000E+000
                    17  0.000000000000000E+000
                    18  3.928628531930040E-005
                    19 -9.745770056465100E-006
                    20  1.133896423135163E-004
                    21  0.000000000000000E+000
                    22  0.000000000000000E+000
                    23 -1.620383558415756E-004
                    24  3.759585078353270E-005
                    25  0.000000000000000E+000
                    26  2.286048908974437E-005
                    27 -8.737505850219865E-005
                    28  0.000000000000000E+000
                    29  0.000000000000000E+000
                    30  2.439210812252401E-005
                    31 -1.469368502197822E-004
                    32  -1.00092571086488     
                    33 -9.200530332491670E-003
                    34 -2.799174600023390E-003
                    35  8.175416442827609E-003
                    36  2.604713055182970E-004
                    37  3.469190259604750E-003
                    38  0.000000000000000E+000
                    39 -2.021671670076340E-004
                    40 -3.690265046652690E-004
                    41  0.000000000000000E+000
                    42 -3.466452113444670E-005
                    43 -4.162452452773730E-003
                    44  0.000000000000000E+000
                    45  5.393878744806857E-004
                    46  0.000000000000000E+000
                    47  0.000000000000000E+000
                    48  1.959008697528402E-004
                    49  1.510404058206470E-005
                    50 -5.633639663871043E-004
                    51  0.000000000000000E+000
                    52  0.000000000000000E+000
                    53  9.027533768715400E-004
                    54 -6.828073654380531E-005
                    55  0.000000000000000E+000
                    56  4.940368656573623E-006
                    57 -1.025778644149584E-004
                    58  0.000000000000000E+000
                    59  0.000000000000000E+000
                    60 -5.218391339516193E-006
                    61 -3.908661195564975E-004
                    62 -1.249599123648980E-002
                    63  2.033221842266890E-003
                    64  2.979597530442170E-004
                    65 -3.067877971645220E-003
                    66  8.969509498309860E-006
                    67 -1.375672429608830E-004
                    68  0.000000000000000E+000
                    69 -7.577593550122620E-004
                    70 -1.477590616638540E-006
                    71  0.000000000000000E+000
                    72  2.070160771995850E-003
                    73 -6.036351574505670E-005
                    74  0.000000000000000E+000
                    75 -2.264050959368486E-005
                    76  0.000000000000000E+000
                    77  0.000000000000000E+000
                    78  2.057752001938000E-006
                    79  1.731498983326320E-006
                    80  4.237447319408646E-004
                    81  0.000000000000000E+000
                    82  0.000000000000000E+000
                    83  5.909317814777120E-004
                    84  3.749272360821980E-004
                    85  0.000000000000000E+000
                    86 -3.258475324709083E-005
                    87  6.080744870685956E-005
                    88  0.000000000000000E+000
                    89  0.000000000000000E+000
                    90 -4.956379399136309E-005
                    91 -1.396066684346647E-004
                    92 -1.402941268905530E-002
                    93  2.073569820157810E-003
                    94  2.681726061514210E-004
                    95 -2.971684342059660E-003
                    96 -1.152556171024840E-004
                    97 -1.858460979850190E-004
                    98  0.000000000000000E+000
                    99  6.557458261689480E-004
                   100 -5.417396060354820E-005
                   101  0.000000000000000E+000
                   102 -1.986863097223230E-003
                   103 -1.461521617115150E-005
                   104  0.000000000000000E+000
                   105 -3.065664449322442E-005
                   106  0.000000000000000E+000
                   107  0.000000000000000E+000
                   108  8.197986749959939E-006
                   109  1.157319924642320E-005
                   110  4.108613817326827E-004
                   111  0.000000000000000E+000
                   112  0.000000000000000E+000
                   113  6.210914347882520E-004
                   114 -3.516938535082630E-004
                   115  0.000000000000000E+000
                   116  3.409649190487936E-005
                   117  6.236803046270607E-005
                   118  0.000000000000000E+000
                   119  0.000000000000000E+000
                   120  4.704985279378892E-005
                   121 -1.375188153759054E-004
                   122  5.112125259368470E-005
                   123  6.442829259368870E-004
                   124 -2.289996018868450E-004
                   125  1.251786206304120E-004
                   126  4.631374269636850E-006
                   127  3.731560113502760E-004
                   128  0.000000000000000E+000
                   129  6.545301590961180E-005
                   130 -5.564619782792570E-004
                   131  0.000000000000000E+000
                   132 -3.357776639358040E-004
                   133 -7.697152239983400E-004
                   134  0.000000000000000E+000
                   135 -1.921672724718802E-005
                   136  0.000000000000000E+000
                   137  0.000000000000000E+000
                   138 -4.323698604306980E-006
                   139 -5.230976007157200E-005
                   140 -1.392465615154832E-004
                   141  0.000000000000000E+000
                   142  0.000000000000000E+000
                   143 -2.454136447073220E-004
                   144  1.784882489113380E-004
                   145  0.000000000000000E+000
                   146 -7.323741747435306E-006
                   147  3.505052137777977E-005
                   148  0.000000000000000E+000
                   149  0.000000000000000E+000
                   150  4.791203018299440E-005
                   151 -2.829945547272751E-005
                   152 -5.193807865901140E-005
                   153  6.368148514963320E-004
                   154 -2.299878250146550E-004
                   155  1.428651436854050E-004
                   156  1.020840656943180E-005
                   157  3.972892536446730E-004
                   158  0.000000000000000E+000
                   159 -5.021781600327770E-005
                   160 -5.760419277335580E-004