[Molden Format]
[Atoms] AU
  N     1    7     0.0000000000   -4.2907334100    0.0000000000        
  C     2    6     0.0000000000   -1.7772236300    0.0000000000        
  C     3    6    -2.3389203600   -0.4111016300    0.0000000000        
  C     4    6     2.3389203600   -0.4111016300    0.0000000000        
  C     5    6    -2.2998668500    2.1639215300    0.0000000000        
  C     6    6     2.2998668500    2.1639215300    0.0000000000        
  C     7    6     0.0000000000    3.4755251800    0.0000000000        
  H     8    1    -2.7341110200   -5.9774504400    0.0000000000        
  H     9    1     1.7691306600   -5.3821385500    0.0000000000        
  H    10    1    -4.0745407300   -1.4447408500    0.0000000000        
  H    11    1     4.0745407300   -1.4447408500    0.0000000000        
  H    12    1    -4.0420632100    3.1963889500    0.0000000000        
  H    13    1     4.0420632100    3.1963889500    0.0000000000        
  H    14    1     0.0000000000    5.5020335600    0.0000000000        
[5D]
[7F]
[GTO]
  1  0
   s    12 1.00
  0.114200D+05  0.172695D-04
  0.171200D+04  0.134411D-03
  0.389300D+03  0.694561D-03
  0.110000D+03  0.278531D-02
  0.355700D+02  0.863457D-02
  0.125400D+02  0.199805D-01
  0.464400D+01  0.262908D-01
  0.129300D+01 -0.243845D-01
  0.511800D+00 -0.924934D-01
  0.178700D+00 -0.339683D+00
  0.246240D-01  0.345111D+00
  0.112530D-01  0.752750D+00
   s    10 1.00
  0.114200D+05  0.523000D-03
  0.171200D+04  0.404500D-02
  0.389300D+03  0.207750D-01
  0.110000D+03  0.807269D-01
  0.355700D+02  0.233074D+00
  0.125400D+02  0.433501D+00
  0.464400D+01  0.347472D+00
  0.129300D+01  0.412620D-01
  0.511800D+00 -0.850799D-02
  0.178700D+00  0.238400D-02
   s    10 1.00
  0.114200D+05 -0.115000D-03
  0.171200D+04 -0.895000D-03
  0.389300D+03 -0.462400D-02
  0.110000D+03 -0.185280D-01
  0.355700D+02 -0.573390D-01
  0.125400D+02 -0.132076D+00
  0.464400D+01 -0.172510D+00
  0.129300D+01  0.151814D+00
  0.511800D+00  0.599944D+00
  0.178700D+00  0.387462D+00
   s     1 1.00
  0.129300D+01  0.100000D+01
   s     1 1.00
  0.178700D+00  0.100000D+01
   p     5 1.00
  0.266300D+02  0.146700D-01
  0.594800D+01  0.917640D-01
  0.174200D+01  0.298683D+00
  0.555000D+00  0.498487D+00
  0.172500D+00  0.337023D+00
   p     1 1.00
  0.174200D+01  0.100000D+01
   p     1 1.00
  0.555000D+00  0.100000D+01
   d     1 1.00
  0.165400D+01  0.100000D+01
   d     1 1.00
  0.469000D+00  0.100000D+01
   f     1 1.00
  0.109300D+01  0.100000D+01
  
  2  0
   s    10 1.00
  0.823600D+04  0.531000D-03
  0.123500D+04  0.410800D-02
  0.280800D+03  0.210870D-01
  0.792700D+02  0.818530D-01
  0.255900D+02  0.234817D+00
  0.899700D+01  0.434401D+00
  0.331900D+01  0.346129D+00
  0.905900D+00  0.393780D-01
  0.364300D+00 -0.898300D-02
  0.128500D+00  0.238500D-02
   s    10 1.00
  0.823600D+04 -0.113000D-03
  0.123500D+04 -0.878000D-03
  0.280800D+03 -0.454000D-02
  0.792700D+02 -0.181330D-01
  0.255900D+02 -0.557600D-01
  0.899700D+01 -0.126895D+00
  0.331900D+01 -0.170352D+00
  0.905900D+00  0.140382D+00
  0.364300D+00  0.598684D+00
  0.128500D+00  0.395389D+00
   s     1 1.00
  0.905900D+00  0.100000D+01
   s     1 1.00
  0.364300D+00  0.100000D+01
   p     5 1.00
  0.187100D+02  0.140310D-01
  0.413300D+01  0.868660D-01
  0.120000D+01  0.290216D+00
  0.382700D+00  0.501008D+00
  0.120900D+00  0.343406D+00
   p     1 1.00
  0.382700D+00  0.100000D+01
   p     1 1.00
  0.120900D+00  0.100000D+01
   d     1 1.00
  0.109700D+01  0.100000D+01
   d     1 1.00
  0.318000D+00  0.100000D+01
   f     1 1.00
  0.761000D+00  0.100000D+01
  
  3  0
   s    10 1.00
  0.823600D+04  0.531000D-03
  0.123500D+04  0.410800D-02
  0.280800D+03  0.210870D-01
  0.792700D+02  0.818530D-01
  0.255900D+02  0.234817D+00
  0.899700D+01  0.434401D+00
  0.331900D+01  0.346129D+00
  0.905900D+00  0.393780D-01
  0.364300D+00 -0.898300D-02
  0.128500D+00  0.238500D-02
   s    10 1.00
  0.823600D+04 -0.113000D-03
  0.123500D+04 -0.878000D-03
  0.280800D+03 -0.454000D-02
  0.792700D+02 -0.181330D-01
  0.255900D+02 -0.557600D-01
  0.899700D+01 -0.126895D+00
  0.331900D+01 -0.170352D+00
  0.905900D+00  0.140382D+00
  0.364300D+00  0.598684D+00
  0.128500D+00  0.395389D+00
   s     1 1.00
  0.905900D+00  0.100000D+01
   s     1 1.00
  0.364300D+00  0.100000D+01
   p     5 1.00
  0.187100D+02  0.140310D-01
  0.413300D+01  0.868660D-01
  0.120000D+01  0.290216D+00
  0.382700D+00  0.501008D+00
  0.120900D+00  0.343406D+00
   p     1 1.00
  0.382700D+00  0.100000D+01
   p     1 1.00
  0.120900D+00  0.100000D+01
   d     1 1.00
  0.109700D+01  0.100000D+01
   d     1 1.00
  0.318000D+00  0.100000D+01
   f     1 1.00
  0.761000D+00  0.100000D+01
  
  4  0
   s    10 1.00
  0.823600D+04  0.531000D-03
  0.123500D+04  0.410800D-02
  0.280800D+03  0.210870D-01
  0.792700D+02  0.818530D-01
  0.255900D+02  0.234817D+00
  0.899700D+01  0.434401D+00
  0.331900D+01  0.346129D+00
  0.905900D+00  0.393780D-01
  0.364300D+00 -0.898300D-02
  0.128500D+00  0.238500D-02
   s    10 1.00
  0.823600D+04 -0.113000D-03
  0.123500D+04 -0.878000D-03
  0.280800D+03 -0.454000D-02
  0.792700D+02 -0.181330D-01
  0.255900D+02 -0.557600D-01
  0.899700D+01 -0.126895D+00
  0.331900D+01 -0.170352D+00
  0.905900D+00  0.140382D+00
  0.364300D+00  0.598684D+00
  0.128500D+00  0.395389D+00
   s     1 1.00
  0.905900D+00  0.100000D+01
   s     1 1.00
  0.364300D+00  0.100000D+01
   p     5 1.00
  0.187100D+02  0.140310D-01
  0.413300D+01  0.868660D-01
  0.120000D+01  0.290216D+00
  0.382700D+00  0.501008D+00
  0.120900D+00  0.343406D+00
   p     1 1.00
  0.382700D+00  0.100000D+01
   p     1 1.00
  0.120900D+00  0.100000D+01
   d     1 1.00
  0.109700D+01  0.100000D+01
   d     1 1.00
  0.318000D+00  0.100000D+01
   f     1 1.00
  0.761000D+00  0.100000D+01
  
  5  0
   s    10 1.00
  0.823600D+04  0.531000D-03
  0.123500D+04  0.410800D-02
  0.280800D+03  0.210870D-01
  0.792700D+02  0.818530D-01
  0.255900D+02  0.234817D+00
  0.899700D+01  0.434401D+00
  0.331900D+01  0.346129D+00
  0.905900D+00  0.393780D-01
  0.364300D+00 -0.898300D-02
  0.128500D+00  0.238500D-02
   s    10 1.00
  0.823600D+04 -0.113000D-03
  0.123500D+04 -0.878000D-03
  0.280800D+03 -0.454000D-02
  0.792700D+02 -0.181330D-01
  0.255900D+02 -0.557600D-01
  0.899700D+01 -0.126895D+00
  0.331900D+01 -0.170352D+00
  0.905900D+00  0.140382D+00
  0.364300D+00  0.598684D+00
  0.128500D+00  0.395389D+00
   s     1 1.00
  0.905900D+00  0.100000D+01
   s     1 1.00
  0.364300D+00  0.100000D+01
   p     5 1.00
  0.187100D+02  0.140310D-01
  0.413300D+01  0.868660D-01
  0.120000D+01  0.290216D+00
  0.382700D+00  0.501008D+00
  0.120900D+00  0.343406D+00
   p     1 1.00
  0.382700D+00  0.100000D+01
   p     1 1.00
  0.120900D+00  0.100000D+01
   d     1 1.00
  0.109700D+01  0.100000D+01
   d     1 1.00
  0.318000D+00  0.100000D+01
   f     1 1.00
  0.761000D+00  0.100000D+01
  
  6  0
   s    10 1.00
  0.823600D+04  0.531000D-03
  0.123500D+04  0.410800D-02
  0.280800D+03  0.210870D-01
  0.792700D+02  0.818530D-01
  0.255900D+02  0.234817D+00
  0.899700D+01  0.434401D+00
  0.331900D+01  0.346129D+00
  0.905900D+00  0.393780D-01
  0.364300D+00 -0.898300D-02
  0.128500D+00  0.238500D-02
   s    10 1.00
  0.823600D+04 -0.113000D-03
  0.123500D+04 -0.878000D-03
  0.280800D+03 -0.454000D-02
  0.792700D+02 -0.181330D-01
  0.255900D+02 -0.557600D-01
  0.899700D+01 -0.126895D+00
  0.331900D+01 -0.170352D+00
  0.905900D+00  0.140382D+00
  0.364300D+00  0.598684D+00
  0.128500D+00  0.395389D+00
   s     1 1.00
  0.905900D+00  0.100000D+01
   s     1 1.00
  0.364300D+00  0.100000D+01
   p     5 1.00
  0.187100D+02  0.140310D-01
  0.413300D+01  0.868660D-01
  0.120000D+01  0.290216D+00
  0.382700D+00  0.501008D+00
  0.120900D+00  0.343406D+00
   p     1 1.00
  0.382700D+00  0.100000D+01
   p     1 1.00
  0.120900D+00  0.100000D+01
   d     1 1.00
  0.109700D+01  0.100000D+01
   d     1 1.00
  0.318000D+00  0.100000D+01
   f     1 1.00
  0.761000D+00  0.100000D+01
  
  7  0
   s    10 1.00
  0.823600D+04  0.531000D-03
  0.123500D+04  0.410800D-02
  0.280800D+03  0.210870D-01
  0.792700D+02  0.818530D-01
  0.255900D+02  0.234817D+00
  0.899700D+01  0.434401D+00
  0.331900D+01  0.346129D+00
  0.905900D+00  0.393780D-01
  0.364300D+00 -0.898300D-02
  0.128500D+00  0.238500D-02
   s    10 1.00
  0.823600D+04 -0.113000D-03
  0.123500D+04 -0.878000D-03
  0.280800D+03 -0.454000D-02
  0.792700D+02 -0.181330D-01
  0.255900D+02 -0.557600D-01
  0.899700D+01 -0.126895D+00
  0.331900D+01 -0.170352D+00
  0.905900D+00  0.140382D+00
  0.364300D+00  0.598684D+00
  0.128500D+00  0.395389D+00
   s     1 1.00
  0.905900D+00  0.100000D+01
   s     1 1.00
  0.364300D+00  0.100000D+01
   p     5 1.00
  0.187100D+02  0.140310D-01
  0.413300D+01  0.868660D-01
  0.120000D+01  0.290216D+00
  0.382700D+00  0.501008D+00
  0.120900D+00  0.343406D+00
   p     1 1.00
  0.382700D+00  0.100000D+01
   p     1 1.00
  0.120900D+00  0.100000D+01
   d     1 1.00
  0.109700D+01  0.100000D+01
   d     1 1.00
  0.318000D+00  0.100000D+01
   f     1 1.00
  0.761000D+00  0.100000D+01
  
  8  0
   s     4 1.00
  0.130100D+02  0.196850D-01
  0.196200D+01  0.137977D+00
  0.444600D+00  0.478148D+00
  0.122000D+00  0.501240D+00
   s     1 1.00
  0.122000D+00  0.100000D+01
   p     1 1.00
  0.727000D+00  0.100000D+01
  
  9  0
   s     4 1.00
  0.130100D+02  0.196850D-01
  0.196200D+01  0.137977D+00
  0.444600D+00  0.478148D+00
  0.122000D+00  0.501240D+00
   s     1 1.00
  0.122000D+00  0.100000D+01
   p     1 1.00
  0.727000D+00  0.100000D+01
  
 10  0
   s     4 1.00
  0.130100D+02  0.196850D-01
  0.196200D+01  0.137977D+00
  0.444600D+00  0.478148D+00
  0.122000D+00  0.501240D+00
   s     1 1.00
  0.122000D+00  0.100000D+01
   p     1 1.00
  0.727000D+00  0.100000D+01
  
 11  0
   s     4 1.00
  0.130100D+02  0.196850D-01
  0.196200D+01  0.137977D+00
  0.444600D+00  0.478148D+00
  0.122000D+00  0.501240D+00
   s     1 1.00
  0.122000D+00  0.100000D+01
   p     1 1.00
  0.727000D+00  0.100000D+01
  
 12  0
   s     4 1.00
  0.130100D+02  0.196850D-01
  0.196200D+01  0.137977D+00
  0.444600D+00  0.478148D+00
  0.122000D+00  0.501240D+00
   s     1 1.00
  0.122000D+00  0.100000D+01
   p     1 1.00
  0.727000D+00  0.100000D+01
  
 13  0
   s     4 1.00
  0.130100D+02  0.196850D-01
  0.196200D+01  0.137977D+00
  0.444600D+00  0.478148D+00
  0.122000D+00  0.501240D+00
   s     1 1.00
  0.122000D+00  0.100000D+01
   p     1 1.00
  0.727000D+00  0.100000D+01
  
 14  0
   s     4 1.00
  0.130100D+02  0.196850D-01
  0.196200D+01  0.137977D+00
  0.444600D+00  0.478148D+00
  0.122000D+00  0.501240D+00
   s     1 1.00
  0.122000D+00  0.100000D+01
   p     1 1.00
  0.727000D+00  0.100000D+01
  
[MO]
 Sym= __1_A'_
 Ene=   1.00000000000000     
 Spin= Alpha
 Occup=    1.00000000000000     
                     1  6.551535467670501E-005
                     2  0.998473987559430     
                     3  2.015510261392230E-003
                     4  1.649443794677079E-003
                     5  4.721881005881643E-003
                     6  3.117237406080499E-003
                     7  5.829939598594392E-003
                     8  0.000000000000000E+000
                     9 -6.613169006271587E-004
                    10 -4.338652083475603E-004
                    11  0.000000000000000E+000
                    12 -2.343754093120327E-003
                    13 -1.375030468287205E-003
                    14  0.000000000000000E+000
                    15 -9.666187804072277E-005
                    16  0.000000000000000E+000
                    17  0.000000000000000E+000
                    18 -2.217559578506566E-004
                    19 -7.625687356664133E-005
                    20  2.029250922913972E-004
                    21  0.000000000000000E+000
                    22  0.000000000000000E+000
                    23 -2.305407565701242E-004
                    24  6.132828821110239E-004
                    25  0.000000000000000E+000
                    26  8.517305153417666E-006
                    27 -5.802637624500093E-005
                    28  0.000000000000000E+000
                    29  0.000000000000000E+000
                    30  2.374685051953823E-005
                    31 -1.104691589915681E-004
                    32 -3.122127802038780E-004
                    33  1.362004980358783E-003
                    34  2.491287608686023E-004
                    35 -2.477777571403340E-004
                    36 -1.709986452891727E-004
                    37 -4.721088198290255E-003
                    38  0.000000000000000E+000
                    39  5.082745244267246E-004
                    40  2.201939656388294E-004
                    41  0.000000000000000E+000
                    42 -2.121505376747959E-003
                    43  5.162012672551021E-003
                    44  0.000000000000000E+000
                    45 -2.361395864826166E-005
                    46  0.000000000000000E+000
                    47  0.000000000000000E+000
                    48 -2.410766890718870E-004
                    49 -1.111558682442838E-005
                    50 -2.672260895414390E-004
                    51  0.000000000000000E+000
                    52  0.000000000000000E+000
                    53  6.113679640738427E-005
                    54  8.533809379306684E-004
                    55  0.000000000000000E+000
                    56 -1.416922206411102E-005
                    57 -4.778061613515340E-005
                    58  0.000000000000000E+000
                    59  0.000000000000000E+000
                    60 -1.353558607216658E-005
                    61 -1.198859866666264E-004
                    62 -4.738613870774212E-004
                    63 -2.202613362882027E-003
                    64 -9.171146863142004E-005
                    65  2.054225515590862E-003
                    66 -6.921689747865428E-004
                    67  4.993449954083402E-004
                    68  0.000000000000000E+000
                    69  4.722040930067820E-004
                    70  7.834098445358209E-004
                    71  0.000000000000000E+000
                    72 -1.630330615680174E-003
                    73  7.029693772340062E-004
                    74  0.000000000000000E+000
                    75 -4.046729713215427E-005
                    76  0.000000000000000E+000
                    77  0.000000000000000E+000
                    78 -8.468215512315082E-005
                    79 -3.206579078453701E-005
                    80 -1.387057557199114E-004
                    81  0.000000000000000E+000
                    82  0.000000000000000E+000
                    83  1.155535650140120E-004
                    84  1.063636913477641E-004
                    85  0.000000000000000E+000
                    86  1.045648386576269E-005
                    87 -4.630496280909952E-005
                    88  0.000000000000000E+000
                    89  0.000000000000000E+000
                    90 -1.632918136547235E-005
                    91 -1.499441519014451E-004
                    92 -1.177336925465728E-004
                    93 -9.595037463967430E-004
                    94  2.137079704554816E-004
                    95 -3.810302626987691E-004
                    96  5.499012578343551E-004
                    97  6.455671410622668E-004
                    98  0.000000000000000E+000
                    99  4.506764799667488E-004
                   100  3.175328597422288E-004
                   101  0.000000000000000E+000
                   102  4.697974629905608E-004
                   103 -1.358992853683592E-003
                   104  0.000000000000000E+000
                   105 -1.437143840672467E-006
                   106  0.000000000000000E+000
                   107  0.000000000000000E+000
                   108 -6.522806856138974E-005
                   109 -1.935116484730147E-005
                   110  1.330091731261207E-004
                   111  0.000000000000000E+000
                   112  0.000000000000000E+000
                   113 -1.374549013208673E-004
                   114 -6.165472249440770E-005
                   115  0.000000000000000E+000
                   116 -2.435416095907488E-005
                   117 -3.030121349298850E-005
                   118  0.000000000000000E+000
                   119  0.000000000000000E+000
                   120  1.450039560926776E-005
                   121 -2.354293786352939E-005
                   122 -2.551267599864875E-004
                   123 -5.001416037265193E-004
                   124  1.683638050764300E-004
                   125  3.621872349350546E-004
                   126 -6.922007369327439E-006
                   127 -5.494090058728477E-004
                   128  0.000000000000000E+000
                   129  1.711812583215999E-004
                   130  5.842417272125787E-004
                   131  0.000000000000000E+000
                   132  3.372507432515033E-004
                   133  1.915070509456803E-003
                   134  0.000000000000000E+000
                   135  1.249279287195614E-005
                   136  0.000000000000000E+000
                   137  0.000000000000000E+000
                   138  4.197411111511474E-005
                   139  6.587728742668282E-007
                   140  1.966406177089743E-004
                   141  0.000000000000000E+000
                   142  0.000000000000000E+000
                   143  3.430944812670744E-004
                   144  2.524971528443522E-004
                   145  0.000000000000000E+000
                   146 -8.183623531825179E-006
                   147 -5.933172620451085E-005
                   148  0.000000000000000E+000
                   149  0.000000000000000E+000
                   150 -2.029661036256023E-005
                   151 -4.822428165303720E-005
                   152 -1.711454914077637E-004
                   153 -2.478611756577797E-004
                   154  3.493771965146140E-005
                   155  3.713125473762766E-004
                   156 -2.871243238952762E-005
                   157 -4.738443967867591E-004
                   158  0.000000000000000E+000
                   159  1.455349262839320E-005
                   160  5.169464708086052E-005
                   161  0.000000000000000E+000
                   162  6.829012847515162E-004
                   163 -2.352796620708661E-004
                   164  0.000000000000000E+000
                   165 -2.790036138454794E-006
                   166  0.000000000000000E+000
                   167  0.000000000000000E+000
                   168 -8.067822573122951E-006
                   169  4.759366162145078E-006
                   170  5.536723393955294E-005
                   171  0.000000000000000E+000
                   172  0.000000000000000E+000
                   173  1.302806049814747E-005
                   174 -3.184176808995618E-005
                   175  0.000000000000000E+000
                   176  4.460942454830325E-006
                   177 -7.634862362838785E-006
                   178  0.000000000000000E+000
                   179  0.000000000000000E+000
                   180 -2.312649166769692E-005
                   181 -7.256804489055404E-006
                   182 -1.611119751051374E-004
                   183 -4.577602935877971E-004
                   184  4.643964511053745E-005
                   185  2.294282244111573E-004
                   186 -3.575901127439713E-005
                   187 -5.343445131915307E-005
                   188  0.000000000000000E+000
                   189  1.884154801425922E-004
                   190  6.055527967828579E-005
                   191  0.000000000000000E+000
                   192  1.212932056547834E-003
                   193 -1.474813227965933E-004
                   194  0.000000000000000E+000
                   195 -1.073192036515658E-006
                   196  0.000000000000000E+000
                   197  0.000000000000000E+000
                   198 -1.377588822321288E-005
                   199  6.911089430691519E-006
                   200  1.829329352476899E-005
                   201  0.000000000000000E+000
                   202  0.000000000000000E+000
                   203 -8.332744998961386E-005
                   204 -1.672315764178099E-004
                   205  0.000000000000000E+000
                   206 -4.839057024196035E-006
                   207 -5.596281674638089E-006
                   208  0.000000000000000E+000
                   209  0.000000000000000E+000
                   210  1.000568049318609E-005
                   211 -4.601370104422650E-006
                   212  2.012990913453870E-005
                   213  6.697526219009628E-005
                   214  9.452379392430198E-005
                   215  1.077031940685949E-004
                   216  0.000000000000000E+000
                   217  7.931708729756464E-004
                   218 -1.229429577410086E-003
                   219 -4.257668180384440E-004
                   220  2.147128602398777E-004
                   221  0.000000000000000E+000
                   222 -4.519362163105103E-004
                   223 -5.915047328447703E-004
                   224  5.986620142211974E-006
                   225 -7.056551433115620E-005
                   226  0.000000000000000E+000
                   227 -2.569031256478422E-004
                   228 -4.420575747672083E-004
                   229 -4.107617285265867E-006
                   230 -1.488101958245939E-005
                   231  0.000000000000000E+000
                   232 -7.432895858279552E-005
                   233 -5.434403956477373E-004
                   234  5.165494637937320E-006
                   235 -1.402449187573895E-006
                   236  0.000000000000000E+000
                   237 -1.667412125222114E-004
                   238 -3.867717308939695E-004
                   239  7.672164182715238E-006
                   240  3.699791073241902E-006
                   241  0.000000000000000E+000
                   242  1.517887281376762E-005
                   243 -3.420371051046140E-005
                   244 -6.676382767591867E-007
                   245  2.150713051133887E-005
                   246  0.000000000000000E+000
 Sym= __2_A'_
 Ene=   2.00000000000000     
 Spin= Alpha
 Occup=    1.00000000000000     
                     1 -4.978861430249955E-005
                     2 -3.308566034406606E-004
                     3  2.791336347787547E-003
                     4  1.500369707488273E-004
                     5  1.344682540892037E-003
                     6 -2.958363649024127E-004
                     7  2.963398554115055E-003
                     8  0.000000000000000E+000
                     9 -6.639185967287733E-005
                    10 -1.083559930799172E-004
                    11  0.000000000000000E+000
                    12  9.304362235951467E-005
                    13 -4.259572508281433E-004
                    14  0.000000000000000E+000
                    15  3.326356771321605E-005
                    16  0.000000000000000E+000
                    17  0.000000000000000E+000
                    18 -4.852404134793768E-005
                    19  8.833223664352467E-006
                    20 -1.203105666061845E-004
                    21  0.000000000000000E+000
                    22  0.000000000000000E+000
                    23  1.611804614614477E-004
                    24 -1.484802233681112E-005
                    25  0.000000000000000E+000
                    26 -1.756630398657169E-005
                    27  8.871015192997227E-005
                    28  0.000000000000000E+000
                    29  0.000000000000000E+000
                    30 -1.714705842387774E-005
                    31  1.458908750650051E-004
                    32   1.00102929380460     
                    33  9.320537461426836E-003
                    34  2.718924289499154E-003
                    35 -8.123605273317689E-003
                    36 -1.132748659607325E-004
                    37 -3.589464063785877E-003
                    38  0.000000000000000E+000
                    39  1.316321600544854E-004
                    40  4.428740577501696E-004
                    41  0.000000000000000E+000
                    42  3.980029541568866E-005
                    43  4.226348764486501E-003
                    44  0.000000000000000E+000
                    45 -5.677404264531334E-004
                    46  0.000000000000000E+000
                    47  0.000000000000000E+000
                    48 -1.987429316099172E-004
                    49 -5.787959853841155E-006
                    50  5.485417249807871E-004
                    51  0.000000000000000E+000
                    52  0.000000000000000E+000
                    53 -9.056020673830644E-004
                    54  6.040034133314905E-005
                    55  0.000000000000000E+000
                    56 -4.119420475658525E-006
                    57  9.382674366471927E-005
                    58  0.000000000000000E+000
                    59  0.000000000000000E+000
                    60  2.103540792937045E-006
                    61  4.005508773814177E-004
                    62  9.096007500956094E-003
                    63 -2.087187173436299E-003
                    64 -2.970302624035766E-004
                    65  3.075163954330923E-003
                    66 -1.886480276800602E-005
                    67  1.104619195815460E-004
                    68  0.000000000000000E+000
                    69  7.384546608444389E-004
                    70 -1.203151279130810E-005
                    71  0.000000000000000E+000
                    72 -2.060015563130957E-003
                    73  7.171568242253364E-005
                    74  0.000000000000000E+000
                    75  2.597879664973121E-005
                    76  0.000000000000000E+000
                    77  0.000000000000000E+000
                    78 -2.386096457911096E-006
                    79  9.220014657286313E-007
                    80 -4.111154628417503E-004
                    81  0.000000000000000E+000
                    82  0.000000000000000E+000
                    83 -5.841466402663490E-004
                    84 -3.779360198320760E-004
                    85  0.000000000000000E+000
                    86  3.312625285837524E-005
                    87 -5.903314283129680E-005
                    88  0.000000000000000E+000
                    89  0.000000000000000E+000
                    90  5.160530345268476E-005
                    91  1.406974336506288E-004
                    92  9.804265741685924E-003
                    93 -2.065316852529755E-003
                    94 -2.820576417714343E-004
                    95  3.021284881423329E-003
                    96  9.626335509601923E-006
                    97  7.647434468817025E-005
                    98  0.000000000000000E+000
                    99 -6.617080330900099E-004
                   100  4.868101513797654E-005
                   101  0.000000000000000E+000
                   102  2.039402451076299E-003
                   103  6.095482634275081E-005
                   104  0.000000000000000E+000
                   105  3.057671608484545E-005
                   106  0.000000000000000E+000
                   107  0.000000000000000E+000
                   108 -4.537500107737184E-006
                   109 -7.480372283360316E-006
                   110 -4.116262412659245E-004
                   111  0.000000000000000E+000
                   112  0.000000000000000E+000
                   113 -6.162365695938146E-004
                   114  3.682000820009201E-004
                   115  0.000000000000000E+000
                   116 -3.206721558704723E-005
                   117 -5.964490552373876E-005
                   118  0.000000000000000E+000
                   119  0.000000000000000E+000
                   120 -4.938098052347106E-005
                   121  1.366505994421738E-004
                   122 -1.554850258658877E-004
                   123 -6.722561343783642E-004
                   124  2.243269865328603E-004
                   125 -1.018494371421836E-004
                   126 -2.804303130060752E-006
                   127 -3.380451430002528E-004
                   128  0.000000000000000E+000
                   129 -6.193891881483987E-005
                   130  5.353406769633129E-004
                   131  0.000000000000000E+000
                   132  3.197265193484720E-004
                   133  7.604146197686795E-004
                   134  0.000000000000000E+000
                   135  1.863122328750092E-005
                   136  0.000000000000000E+000
                   137  0.000000000000000E+000
                   138  3.722940392388332E-006
                   139  5.267573582117196E-005
                   140  1.368598813268561E-004
                   141  0.000000000000000E+000
                   142  0.000000000000000E+000
                   143  2.409866805099900E-004
                   144 -1.804118584898268E-004
                   145  0.000000000000000E+000
                   146  7.242418549125229E-006
                   147 -3.369893461652435E-005
                   148  0.000000000000000E+000
                   149  0.000000000000000E+000
                   150 -4.775778478256564E-005
                   151  2.874466369695890E-005
                   152 -1.353645741530334E-004
                   153 -6.792754605463912E-004
                   154  2.298453159490387E-004
                   155 -1.361450308891282E-004
                   156  1.303915936824321E-006
                   157 -3.294827917499460E-004
                   158  0.000000000000000E+000
                   159  4.588002573091755E-005
                   160  5.645965045240671E-004