[Molden Format]
[Atoms] AU
  N     1    7    -4.4519150800    0.1645695100   -0.0000004400        
  C     2    6    -1.7695092000   -0.0145096000   -0.0000001700        
  C     3    6    -0.4270927200   -0.0061402300   -2.2691546100        
  C     4    6    -0.4270931100   -0.0061391100    2.2691544900        
  C     5    6     2.1889955900   -0.0004823800   -2.2566388900        
  C     6    6     2.1889952100   -0.0004812700    2.2566392100        
  C     7    6     3.5149715000    0.0022090000    0.0000002700        
  H     8    1    -5.5282839200   -1.1224497700   -2.2847121200        
  H     9    1    -5.1855380900   -0.7126258900    1.5571951400        
  H    10    1    -1.4305344500   -0.0005073500   -4.0318143700        
  H    11    1    -1.4305351200   -0.0005053700    4.0318140800        
  H    12    1     3.1914120400   -0.0010699000   -4.0209976100        
  H    13    1     3.1914113700   -0.0010679200    4.0209980900        
  H    14    1     5.5428332300    0.0050250700    0.0000004400        
[5D]
[7F]
[GTO]
  1  0
   s    12 1.00
  0.114200D+05  0.172695D-04
  0.171200D+04  0.134411D-03
  0.389300D+03  0.694561D-03
  0.110000D+03  0.278531D-02
  0.355700D+02  0.863457D-02
  0.125400D+02  0.199805D-01
  0.464400D+01  0.262908D-01
  0.129300D+01 -0.243845D-01
  0.511800D+00 -0.924934D-01
  0.178700D+00 -0.339683D+00
  0.246240D-01  0.345111D+00
  0.112530D-01  0.752750D+00
   s    10 1.00
  0.114200D+05  0.523000D-03
  0.171200D+04  0.404500D-02
  0.389300D+03  0.207750D-01
  0.110000D+03  0.807269D-01
  0.355700D+02  0.233074D+00
  0.125400D+02  0.433501D+00
  0.464400D+01  0.347472D+00
  0.129300D+01  0.412620D-01
  0.511800D+00 -0.850799D-02
  0.178700D+00  0.238400D-02
   s    10 1.00
  0.114200D+05 -0.115000D-03
  0.171200D+04 -0.895000D-03
  0.389300D+03 -0.462400D-02
  0.110000D+03 -0.185280D-01
  0.355700D+02 -0.573390D-01
  0.125400D+02 -0.132076D+00
  0.464400D+01 -0.172510D+00
  0.129300D+01  0.151814D+00
  0.511800D+00  0.599944D+00
  0.178700D+00  0.387462D+00
   s     1 1.00
  0.129300D+01  0.100000D+01
   s     1 1.00
  0.178700D+00  0.100000D+01
   p     5 1.00
  0.266300D+02  0.146700D-01
  0.594800D+01  0.917640D-01
  0.174200D+01  0.298683D+00
  0.555000D+00  0.498487D+00
  0.172500D+00  0.337023D+00
   p     1 1.00
  0.174200D+01  0.100000D+01
   p     1 1.00
  0.555000D+00  0.100000D+01
   d     1 1.00
  0.165400D+01  0.100000D+01
   d     1 1.00
  0.469000D+00  0.100000D+01
   f     1 1.00
  0.109300D+01  0.100000D+01
  
  2  0
   s    10 1.00
  0.823600D+04  0.531000D-03
  0.123500D+04  0.410800D-02
  0.280800D+03  0.210870D-01
  0.792700D+02  0.818530D-01
  0.255900D+02  0.234817D+00
  0.899700D+01  0.434401D+00
  0.331900D+01  0.346129D+00
  0.905900D+00  0.393780D-01
  0.364300D+00 -0.898300D-02
  0.128500D+00  0.238500D-02
   s    10 1.00
  0.823600D+04 -0.113000D-03
  0.123500D+04 -0.878000D-03
  0.280800D+03 -0.454000D-02
  0.792700D+02 -0.181330D-01
  0.255900D+02 -0.557600D-01
  0.899700D+01 -0.126895D+00
  0.331900D+01 -0.170352D+00
  0.905900D+00  0.140382D+00
  0.364300D+00  0.598684D+00
  0.128500D+00  0.395389D+00
   s     1 1.00
  0.905900D+00  0.100000D+01
   s     1 1.00
  0.364300D+00  0.100000D+01
   p     5 1.00
  0.187100D+02  0.140310D-01
  0.413300D+01  0.868660D-01
  0.120000D+01  0.290216D+00
  0.382700D+00  0.501008D+00
  0.120900D+00  0.343406D+00
   p     1 1.00
  0.382700D+00  0.100000D+01
   p     1 1.00
  0.120900D+00  0.100000D+01
   d     1 1.00
  0.109700D+01  0.100000D+01
   d     1 1.00
  0.318000D+00  0.100000D+01
   f     1 1.00
  0.761000D+00  0.100000D+01
  
  3  0
   s    10 1.00
  0.823600D+04  0.531000D-03
  0.123500D+04  0.410800D-02
  0.280800D+03  0.210870D-01
  0.792700D+02  0.818530D-01
  0.255900D+02  0.234817D+00
  0.899700D+01  0.434401D+00
  0.331900D+01  0.346129D+00
  0.905900D+00  0.393780D-01
  0.364300D+00 -0.898300D-02
  0.128500D+00  0.238500D-02
   s    10 1.00
  0.823600D+04 -0.113000D-03
  0.123500D+04 -0.878000D-03
  0.280800D+03 -0.454000D-02
  0.792700D+02 -0.181330D-01
  0.255900D+02 -0.557600D-01
  0.899700D+01 -0.126895D+00
  0.331900D+01 -0.170352D+00
  0.905900D+00  0.140382D+00
  0.364300D+00  0.598684D+00
  0.128500D+00  0.395389D+00
   s     1 1.00
  0.905900D+00  0.100000D+01
   s     1 1.00
  0.364300D+00  0.100000D+01
   p     5 1.00
  0.187100D+02  0.140310D-01
  0.413300D+01  0.868660D-01
  0.120000D+01  0.290216D+00
  0.382700D+00  0.501008D+00
  0.120900D+00  0.343406D+00
   p     1 1.00
  0.382700D+00  0.100000D+01
   p     1 1.00
  0.120900D+00  0.100000D+01
   d     1 1.00
  0.109700D+01  0.100000D+01
   d     1 1.00
  0.318000D+00  0.100000D+01
   f     1 1.00
  0.761000D+00  0.100000D+01
  
  4  0
   s    10 1.00
  0.823600D+04  0.531000D-03
  0.123500D+04  0.410800D-02
  0.280800D+03  0.210870D-01
  0.792700D+02  0.818530D-01
  0.255900D+02  0.234817D+00
  0.899700D+01  0.434401D+00
  0.331900D+01  0.346129D+00
  0.905900D+00  0.393780D-01
  0.364300D+00 -0.898300D-02
  0.128500D+00  0.238500D-02
   s    10 1.00
  0.823600D+04 -0.113000D-03
  0.123500D+04 -0.878000D-03
  0.280800D+03 -0.454000D-02
  0.792700D+02 -0.181330D-01
  0.255900D+02 -0.557600D-01
  0.899700D+01 -0.126895D+00
  0.331900D+01 -0.170352D+00
  0.905900D+00  0.140382D+00
  0.364300D+00  0.598684D+00
  0.128500D+00  0.395389D+00
   s     1 1.00
  0.905900D+00  0.100000D+01
   s     1 1.00
  0.364300D+00  0.100000D+01
   p     5 1.00
  0.187100D+02  0.140310D-01
  0.413300D+01  0.868660D-01
  0.120000D+01  0.290216D+00
  0.382700D+00  0.501008D+00
  0.120900D+00  0.343406D+00
   p     1 1.00
  0.382700D+00  0.100000D+01
   p     1 1.00
  0.120900D+00  0.100000D+01
   d     1 1.00
  0.109700D+01  0.100000D+01
   d     1 1.00
  0.318000D+00  0.100000D+01
   f     1 1.00
  0.761000D+00  0.100000D+01
  
  5  0
   s    10 1.00
  0.823600D+04  0.531000D-03
  0.123500D+04  0.410800D-02
  0.280800D+03  0.210870D-01
  0.792700D+02  0.818530D-01
  0.255900D+02  0.234817D+00
  0.899700D+01  0.434401D+00
  0.331900D+01  0.346129D+00
  0.905900D+00  0.393780D-01
  0.364300D+00 -0.898300D-02
  0.128500D+00  0.238500D-02
   s    10 1.00
  0.823600D+04 -0.113000D-03
  0.123500D+04 -0.878000D-03
  0.280800D+03 -0.454000D-02
  0.792700D+02 -0.181330D-01
  0.255900D+02 -0.557600D-01
  0.899700D+01 -0.126895D+00
  0.331900D+01 -0.170352D+00
  0.905900D+00  0.140382D+00
  0.364300D+00  0.598684D+00
  0.128500D+00  0.395389D+00
   s     1 1.00
  0.905900D+00  0.100000D+01
   s     1 1.00
  0.364300D+00  0.100000D+01
   p     5 1.00
  0.187100D+02  0.140310D-01
  0.413300D+01  0.868660D-01
  0.120000D+01  0.290216D+00
  0.382700D+00  0.501008D+00
  0.120900D+00  0.343406D+00
   p     1 1.00
  0.382700D+00  0.100000D+01
   p     1 1.00
  0.120900D+00  0.100000D+01
   d     1 1.00
  0.109700D+01  0.100000D+01
   d     1 1.00
  0.318000D+00  0.100000D+01
   f     1 1.00
  0.761000D+00  0.100000D+01
  
  6  0
   s    10 1.00
  0.823600D+04  0.531000D-03
  0.123500D+04  0.410800D-02
  0.280800D+03  0.210870D-01
  0.792700D+02  0.818530D-01
  0.255900D+02  0.234817D+00
  0.899700D+01  0.434401D+00
  0.331900D+01  0.346129D+00
  0.905900D+00  0.393780D-01
  0.364300D+00 -0.898300D-02
  0.128500D+00  0.238500D-02
   s    10 1.00
  0.823600D+04 -0.113000D-03
  0.123500D+04 -0.878000D-03
  0.280800D+03 -0.454000D-02
  0.792700D+02 -0.181330D-01
  0.255900D+02 -0.557600D-01
  0.899700D+01 -0.126895D+00
  0.331900D+01 -0.170352D+00
  0.905900D+00  0.140382D+00
  0.364300D+00  0.598684D+00
  0.128500D+00  0.395389D+00
   s     1 1.00
  0.905900D+00  0.100000D+01
   s     1 1.00
  0.364300D+00  0.100000D+01
   p     5 1.00
  0.187100D+02  0.140310D-01
  0.413300D+01  0.868660D-01
  0.120000D+01  0.290216D+00
  0.382700D+00  0.501008D+00
  0.120900D+00  0.343406D+00
   p     1 1.00
  0.382700D+00  0.100000D+01
   p     1 1.00
  0.120900D+00  0.100000D+01
   d     1 1.00
  0.109700D+01  0.100000D+01
   d     1 1.00
  0.318000D+00  0.100000D+01
   f     1 1.00
  0.761000D+00  0.100000D+01
  
  7  0
   s    10 1.00
  0.823600D+04  0.531000D-03
  0.123500D+04  0.410800D-02
  0.280800D+03  0.210870D-01
  0.792700D+02  0.818530D-01
  0.255900D+02  0.234817D+00
  0.899700D+01  0.434401D+00
  0.331900D+01  0.346129D+00
  0.905900D+00  0.393780D-01
  0.364300D+00 -0.898300D-02
  0.128500D+00  0.238500D-02
   s    10 1.00
  0.823600D+04 -0.113000D-03
  0.123500D+04 -0.878000D-03
  0.280800D+03 -0.454000D-02
  0.792700D+02 -0.181330D-01
  0.255900D+02 -0.557600D-01
  0.899700D+01 -0.126895D+00
  0.331900D+01 -0.170352D+00
  0.905900D+00  0.140382D+00
  0.364300D+00  0.598684D+00
  0.128500D+00  0.395389D+00
   s     1 1.00
  0.905900D+00  0.100000D+01
   s     1 1.00
  0.364300D+00  0.100000D+01
   p     5 1.00
  0.187100D+02  0.140310D-01
  0.413300D+01  0.868660D-01
  0.120000D+01  0.290216D+00
  0.382700D+00  0.501008D+00
  0.120900D+00  0.343406D+00
   p     1 1.00
  0.382700D+00  0.100000D+01
   p     1 1.00
  0.120900D+00  0.100000D+01
   d     1 1.00
  0.109700D+01  0.100000D+01
   d     1 1.00
  0.318000D+00  0.100000D+01
   f     1 1.00
  0.761000D+00  0.100000D+01
  
  8  0
   s     4 1.00
  0.130100D+02  0.196850D-01
  0.196200D+01  0.137977D+00
  0.444600D+00  0.478148D+00
  0.122000D+00  0.501240D+00
   s     1 1.00
  0.122000D+00  0.100000D+01
   p     1 1.00
  0.727000D+00  0.100000D+01
  
  9  0
   s     4 1.00
  0.130100D+02  0.196850D-01
  0.196200D+01  0.137977D+00
  0.444600D+00  0.478148D+00
  0.122000D+00  0.501240D+00
   s     1 1.00
  0.122000D+00  0.100000D+01
   p     1 1.00
  0.727000D+00  0.100000D+01
  
 10  0
   s     4 1.00
  0.130100D+02  0.196850D-01
  0.196200D+01  0.137977D+00
  0.444600D+00  0.478148D+00
  0.122000D+00  0.501240D+00
   s     1 1.00
  0.122000D+00  0.100000D+01
   p     1 1.00
  0.727000D+00  0.100000D+01
  
 11  0
   s     4 1.00
  0.130100D+02  0.196850D-01
  0.196200D+01  0.137977D+00
  0.444600D+00  0.478148D+00
  0.122000D+00  0.501240D+00
   s     1 1.00
  0.122000D+00  0.100000D+01
   p     1 1.00
  0.727000D+00  0.100000D+01
  
 12  0
   s     4 1.00
  0.130100D+02  0.196850D-01
  0.196200D+01  0.137977D+00
  0.444600D+00  0.478148D+00
  0.122000D+00  0.501240D+00
   s     1 1.00
  0.122000D+00  0.100000D+01
   p     1 1.00
  0.727000D+00  0.100000D+01
  
 13  0
   s     4 1.00
  0.130100D+02  0.196850D-01
  0.196200D+01  0.137977D+00
  0.444600D+00  0.478148D+00
  0.122000D+00  0.501240D+00
   s     1 1.00
  0.122000D+00  0.100000D+01
   p     1 1.00
  0.727000D+00  0.100000D+01
  
 14  0
   s     4 1.00
  0.130100D+02  0.196850D-01
  0.196200D+01  0.137977D+00
  0.444600D+00  0.478148D+00
  0.122000D+00  0.501240D+00
   s     1 1.00
  0.122000D+00  0.100000D+01
   p     1 1.00
  0.727000D+00  0.100000D+01
  
[MO]
 Sym= __1_A__
 Ene=   1.00000000000000     
 Spin= Alpha
 Occup=    1.00000000000000     
                     1  1.841306099417223E-004
                     2  0.998351181536960     
                     3  7.432464674498281E-005
                     4  1.646171916754243E-003
                     5  6.649579892476546E-003
                     6  6.591519097066890E-003
                     7 -3.539326572309800E-003
                     8  2.339810112072291E-003
                     9 -9.826741889971393E-004
                    10  3.255268587142428E-004
                    11 -3.644344407503718E-004
                    12 -2.305132232209085E-003
                    13  2.451624571706392E-003
                    14 -1.709697721311495E-003
                    15 -4.525370177179033E-005
                    16 -6.138680210215114E-005
                    17 -2.396280496941191E-005
                    18  6.882375850168726E-005
                    19  2.106490018601909E-005
                    20 -2.514221484182521E-004
                    21  2.788581339515779E-004
                    22  8.252336761445768E-006
                    23  7.777576598191323E-005
                    24 -3.595887375091216E-004
                    25  7.113495411363553E-006
                    26 -1.006062387868938E-004
                    27 -2.678203551559250E-005
                    28 -6.513401862123672E-006
                    29  1.341080302379392E-005
                    30 -6.615924522435887E-005
                    31 -4.637609678446830E-005
                    32 -3.372861500666411E-004
                    33  5.592809669945336E-004
                    34  2.768144984387898E-004
                    35 -2.506199405126822E-004
                    36 -3.315782911148732E-003
                    37 -1.289071312808459E-004
                    38 -1.482887953538585E-004
                    39  1.273929598155020E-005
                    40  3.049815110042732E-006
                    41  4.338508972598628E-004
                    42  5.416876001579716E-003
                    43  4.973615785214327E-004
                    44 -1.335374879588079E-003
                    45 -1.790213106860822E-004
                    46 -7.178942674803293E-006
                    47  7.356130585479992E-006
                    48  1.591452194440812E-004
                    49  2.203161230655594E-005
                    50  2.376327032899257E-004
                    51  4.665287911586601E-004
                    52 -4.075689276184760E-005
                    53  1.168147744708942E-005
                    54 -2.769679860390923E-004
                    55  2.671840715197174E-006
                    56 -5.858358076172599E-005
                    57  5.276017889780606E-006
                    58  2.074312535801280E-005
                    59 -3.278540383595599E-006
                    60 -3.661462896222243E-005
                    61  2.961110595511768E-005
                    62 -5.210780383531577E-004
                    63 -2.123359591793610E-003
                    64 -2.425473946724404E-005
                    65  1.845719629124993E-003
                    66  3.097872022085537E-004
                    67 -1.627888280171506E-004
                    68 -4.878593913482363E-004
                    69  6.003533643363018E-004
                    70  1.536152358337820E-005
                    71  4.319210690283296E-004
                    72  1.929150246726297E-004
                    73 -1.723428726647736E-004
                    74 -1.477250261846596E-003
                    75 -4.721218711160477E-005
                    76 -3.015635845773843E-005
                    77  7.034298097794353E-006
                    78  7.069650361275119E-005
                    79 -5.017260585608058E-006
                    80  2.260670987735754E-004
                    81  4.679217404432506E-005
                    82 -2.555524709596104E-005
                    83 -2.345070039799176E-005
                    84  4.531748170646129E-005
                    85 -1.307266818884601E-005
                    86 -1.030159504132734E-004
                    87  1.258366110385788E-005
                    88 -3.872190979754424E-006
                    89  1.486285029662017E-005
                    90 -6.269771454587940E-005
                    91 -8.591355814419959E-006
                    92 -2.765919466754795E-004
                    93 -1.347919189218918E-003
                    94  1.697130113203191E-004
                    95  2.655848084286605E-004
                    96  4.408736272607505E-004
                    97 -2.687504212896243E-004
                    98  4.312069584973201E-004
                    99  4.071774116371004E-004
                   100  1.118280843918727E-004
                   101  1.615765463732389E-004
                   102 -1.292047055321290E-003
                   103 -2.855828447369320E-004
                   104  7.665305934404260E-004
                   105 -5.837848701334999E-005
                   106 -3.893660847304924E-006
                   107 -1.238935098548133E-005
                   108  4.849817036765642E-005
                   109 -1.462459847262359E-005
                   110 -7.541901027710802E-006
                   111 -6.368708708274092E-005
                   112  1.395873777663428E-005
                   113 -9.666977060216765E-005
                   114  5.466898226417241E-005
                   115 -5.744615784964700E-007
                   116 -2.705564998174311E-005
                   117  1.416578072135220E-005
                   118  1.054035243254861E-005
                   119 -6.919940329654467E-006
                   120 -3.710199702815280E-005
                   121 -1.035816614660127E-005
                   122 -2.670855179953910E-004
                   123 -6.425818572369280E-004
                   124  9.593662645465413E-005
                   125  6.960944930202810E-004
                   126 -4.185433816932858E-004
                   127 -1.046646046203112E-004
                   128 -1.168311277214826E-005
                   129  3.895769976180497E-004
                   130 -1.455673227307978E-005
                   131  1.511913662456837E-004
                   132  1.640772185127546E-003
                   133  8.906246953843902E-005
                   134  5.996657186519847E-005
                   135  2.021526660944393E-005
                   136  5.800647753989976E-007
                   137 -5.098751627006688E-006
                   138 -1.036945787595442E-005
                   139  5.307459472601492E-006
                   140  1.434676612048055E-004
                   141  2.218498076782501E-004
                   142  4.014205702082781E-006
                   143 -2.844483077765030E-004
                   144 -7.959708744718174E-007
                   145 -2.047275590886634E-005
                   146 -2.117199863528237E-005
                   147  6.671733473696423E-007
                   148 -7.081295264668768E-006
                   149 -8.528597507766659E-007
                   150 -6.251197750962314E-005
                   151 -1.662582222450489E-006
                   152 -2.022877701946737E-004
                   153 -4.283637720950325E-004
                   154  2.692645201568423E-005
                   155  5.900588688787202E-004
                   156 -3.863821516898399E-004
                   157 -1.502140908809801E-004
                   158 -1.301339972894721E-005
                   159  8.585084742928354E-005
                   160 -4.004916981169306E-005
                   161  6.295036960584676E-006
                   162  1.687622911235133E-004
                   163  1.485620206897071E-004
                   164  5.712994023854565E-004
                   165 -1.107075271550217E-006
                   166  3.241568276803479E-006
                   167  5.629555422822287E-006
                   168  7.973613625563239E-006
                   169  1.261791634444677E-005
                   170  1.866287830659870E-005
                   171 -8.599132829509037E-005
                   172 -9.589110745010600E-006
                   173 -1.210615122606620E-004
                   174 -2.094468242781113E-006
                   175 -2.072044521227100E-006
                   176 -1.102158368627629E-005
                   177  3.076904692667291E-006
                   178 -6.809908600709480E-006
                   179  3.104837117768210E-007
                   180 -2.816241737493889E-005
                   181 -6.325333735726696E-006
                   182 -1.549035555333212E-004
                   183 -4.784849428989854E-004
                   184  4.101925936878525E-005
                   185  2.201460255861010E-004
                   186 -2.740214263770887E-005
                   187 -1.175151066307329E-004
                   188 -2.701346716664018E-005
                   189  1.108241482865233E-004
                   190  1.028670527193650E-005
                   191  1.362613078207638E-004
                   192 -3.932082046669500E-004
                   193 -6.444959075390938E-005
                   194  8.209537081154028E-004
                   195 -7.620486546114007E-006
                   196  2.595521184654120E-006
                   197  1.523528702012473E-006
                   198  3.146124692939722E-006
                   199  1.144292180565383E-006
                   200 -1.133631188598142E-004
                   201 -1.180506519972148E-004
                   202 -9.580686882754910E-006
                   203  4.789207423767980E-005
                   204  1.531892640988829E-005
                   205  3.077263057266212E-006
                   206  5.599156182505623E-006
                   207  8.089325303119720E-007
                   208  8.693087985038976E-006
                   209  9.559727537278257E-007
                   210 -6.223931788490824E-006
                   211 -3.098083692676865E-006
                   212  1.432428089983001E-005
                   213 -1.636111421480128E-004
                   214  6.125821734030591E-005
                   215  1.463350214407827E-004
                   216  9.070859887837837E-005
                   217  1.136692160845655E-003
                   218 -1.609484702221817E-003
                   219  1.221803096652037E-004
                   220  2.254830411904031E-004
                   221 -3.027900753948073E-004
                   222 -3.737592776648903E-004
                   223 -6.071560405495575E-004
                   224 -7.362256450630281E-005
                   225  5.083634139873372E-006
                   226  3.471185248880664E-005
                   227 -2.891739808677810E-004
                   228 -5.251803332823954E-004
                   229 -4.105261695561609E-005
                   230  8.471911374291755E-006
                   231 -3.998006458595870E-005
                   232 -3.433555105596663E-005
                   233 -5.471957706127646E-004
                   234 -3.127283545793423E-006
                   235 -9.991775827390579E-007
                   236 -2.145319928338904E-006
                   237 -9.351602542641712E-005
                   238 -4.329815813386187E-004
                   239  2.869557765633246E-006
                   240 -3.981843462853188E-006
                   241  9.199731876362592E-006
                   242 -3.789049118013986E-006
                   243  1.165075874361205E-004
                   244  3.084465564540634E-005
                   245  4.671122957082228E-007
                   246 -4.017141920555792E-007
 Sym= __2_A__
 Ene=   2.00000000000000     
 Spin= Alpha
 Occup=    1.00000000000000     
                     1 -3.565051654616961E-005
                     2 -1.501989448868601E-004
                     3  1.970903564600990E-003
                     4  2.786170467015069E-005
                     5  1.202215752545628E-003
                     6  2.308464536288439E-003
                     7 -6.958461875819192E-005
                     8 -2.945945544130576E-004
                     9 -1.284578709935728E-004
                    10  9.281945513790026E-005
                    11 -3.656909137331087E-005
                    12 -2.989651583983609E-005
                    13  4.958437665009054E-005
                    14  4.142324481030528E-005
                    15 -7.309124003909584E-005
                    16  2.130347721190800E-006
                    17  4.917652236180039E-006
                    18  3.777500456780784E-005
                    19 -1.143453444961120E-005
                    20  1.260022655433774E-004
                    21  2.284875682548324E-005
                    22 -6.923323463160798E-006
                    23  1.000398301918594E-004
                    24 -2.145458268461336E-005
                    25 -9.722260252992213E-006
                    26  1.378955462942183E-004
                    27 -4.303891772569670E-005
                    28 -5.403872595705668E-006
                    29 -2.677455202836203E-006
                    30  1.179289831646566E-004
                    31  3.079358053952885E-005
                    32   1.00087033394285     
                    33  9.010067086299485E-003
                    34  2.809736760358809E-003
                    35 -8.312397608595437E-003
                    36 -2.407617626705815E-003
                    37  4.810030930758537E-004
                    38 -5.721904783451058E-006
                    39  5.335235468008397E-004
                    40 -2.577346944868783E-004
                    41 -2.051148554032321E-006
                    42  3.407841799412047E-003
                    43 -1.330088924392708E-004
                    44  7.600964292821185E-005
                    45  2.756250995993558E-004
                    46 -6.834759687949315E-006
                    47 -4.161961548301042E-006
                    48  4.175796854866752E-004
                    49 -2.498340643408342E-005
                    50 -1.073819695700756E-003
                    51  3.080296540370392E-005
                    52  2.130744614767984E-006
                    53 -9.498588635422210E-005
                    54  4.749792121560590E-005
                    55  3.728027447785458E-007
                    56  3.078764722353733E-004
                    57 -1.086009966222569E-005
                    58 -1.782625087165591E-006
                    59 -4.890193213252583E-006
                    60  1.046130565476635E-004
                    61  1.423804497143728E-005
                    62  1.499499953786645E-002
                    63 -1.912863008357096E-003
                    64 -3.095199309657724E-004
                    65  3.169982640995426E-003
                    66 -6.303622740455809E-005
                    67  3.385298966151322E-005
                    68  1.779439360172530E-004
                    69 -4.621240667801631E-007
                    70  3.125117307766900E-008
                    71  6.110613656784190E-004
                    72  1.070510829068416E-004
                    73 -1.843565321639786E-005
                    74 -1.813936957278723E-003
                    75 -1.299644265733812E-005
                    76  1.550315926838769E-005
                    77  4.956159627884314E-006
                    78 -2.984621407884470E-005
                    79 -2.551634475708866E-006
                    80 -3.770523317465394E-004
                    81 -4.264261071157617E-004
                    82 -5.649346978995438E-006
                    83  7.379752695302964E-004
                    84 -2.117728214587725E-006
                    85  4.821450862677688E-005
                    86  1.176649525844256E-004
                    87 -1.030686514276258E-006
                    88 -1.740394233454757E-005
                    89 -6.508574618838246E-006
                    90 -3.078571233221354E-005
                    91  4.180646609107649E-006
                    92  1.659375633138092E-002
                    93 -1.901351333773290E-003
                    94 -3.048964611361250E-004
                    95  3.159434344049486E-003
                    96 -7.982321168425292E-005
                    97  1.490765722614219E-005
                    98 -1.696021133595400E-004
                    99  8.136191004823064E-006
                   100  6.723572841694713E-007
                   101 -5.991565562571381E-004
                   102  1.766216035208663E-004
                   103 -1.713404932699134E-005
                   104  1.840361168755048E-003
                   105 -1.251993062091230E-005
                   106 -1.715864485506886E-005
                   107 -5.356033217025987E-006
                   108 -3.082323207597876E-005
                   109 -2.624868056100899E-006
                   110 -3.834925406809732E-004
                   111  4.328218111154540E-004
                   112  5.388544890128334E-006
                   113  7.469140506892147E-004
                   114 -2.563447840900145E-006
                   115 -4.700007833172195E-005
                   116  1.152785949252027E-004
                   117  1.985287626419444E-007
                   118  1.591621607012287E-005
                   119  6.572122233204551E-006
                   120 -3.070251230121820E-005
                   121  3.657548166912892E-006
                   122 -3.459701348646037E-005
                   123 -6.588257893910448E-004
                   124  2.475253311864976E-004
                   125 -2.848861207692923E-004
                   126 -2.628270230848914E-004
                   127  1.326325890213576E-005
                   128 -2.891064386122063E-005
                   129  5.962605236779306E-004
                   130 -1.718249940187415E-007
                   131  3.480470853248805E-006
                   132  5.733184588656584E-004
                   133  1.076286312786388E-005
                   134  2.950602188315173E-004
                   135 -7.623232507206809E-007
                   136  4.195096935468791E-005
                   137  3.719886588297841E-007
                   138 -3.182771375996598E-005
                   139  1.908363732293349E-008
                   140  1.772602258117562E-004
                   141 -2.182288943008323E-004
                   142  1.135498535435959E-006
                   143 -2.561451506758350E-004
                   144 -2.647650651469059E-006
                   145 -2.060625768183169E-005
                   146  1.846397639794598E-005
                   147  1.832504843655662E-008
                   148 -1.739948214511301E-005
                   149 -1.723961994822995E-006
                   150 -2.721990683266587E-005
                   151 -8.217637509749112E-007
                   152  4.514059685080303E-005
                   153 -6.742987130817723E-004
                   154  2.479759888880603E-004
                   155 -2.791251548573524E-004
                   156 -2.534259900250010E-004
                   157 -1.547746122666206E-006
                   158  3.011750125779662E-005
                   159  6.054035640880096E-004
                   160 -4.554928016732203E-008