[Molden Format]
[Atoms] AU
  N     1    7    -0.0001895500   -0.0000520600   -4.2959905600        
  C     2    6    -0.0003422400   -0.0004163400   -1.7753651400        
  C     3    6     0.0286948400   -2.3382141300   -0.4119208700        
  C     4    6    -0.0295445800    2.3369872600   -0.4112487300        
  C     5    6     0.0453709900   -2.3000254800    2.1642571000        
  C     6    6    -0.0465329100    2.2980539900    2.1649160500        
  C     7    6    -0.0006603300   -0.0011750700    3.4746114500        
  H     8    1    -0.4466814300   -1.5939152200   -5.3142109300        
  H     9    1     0.4464256600    1.5941053500   -5.3136960900        
  H    10    1     0.0735681200   -4.0723599600   -1.4469531000        
  H    11    1    -0.0742924800    4.0714321900   -1.4457851000        
  H    12    1     0.0973526700   -4.0414351900    3.1967330200        
  H    13    1    -0.0986397500    4.0391651900    3.1978889600        
  H    14    1    -0.0007831300   -0.0014679800    5.5013078400        
[5D]
[7F]
[GTO]
  1  0
   s    12 1.00
  0.114200D+05  0.172695D-04
  0.171200D+04  0.134411D-03
  0.389300D+03  0.694561D-03
  0.110000D+03  0.278531D-02
  0.355700D+02  0.863457D-02
  0.125400D+02  0.199805D-01
  0.464400D+01  0.262908D-01
  0.129300D+01 -0.243845D-01
  0.511800D+00 -0.924934D-01
  0.178700D+00 -0.339683D+00
  0.246240D-01  0.345111D+00
  0.112530D-01  0.752750D+00
   s    10 1.00
  0.114200D+05  0.523000D-03
  0.171200D+04  0.404500D-02
  0.389300D+03  0.207750D-01
  0.110000D+03  0.807269D-01
  0.355700D+02  0.233074D+00
  0.125400D+02  0.433501D+00
  0.464400D+01  0.347472D+00
  0.129300D+01  0.412620D-01
  0.511800D+00 -0.850799D-02
  0.178700D+00  0.238400D-02
   s    10 1.00
  0.114200D+05 -0.115000D-03
  0.171200D+04 -0.895000D-03
  0.389300D+03 -0.462400D-02
  0.110000D+03 -0.185280D-01
  0.355700D+02 -0.573390D-01
  0.125400D+02 -0.132076D+00
  0.464400D+01 -0.172510D+00
  0.129300D+01  0.151814D+00
  0.511800D+00  0.599944D+00
  0.178700D+00  0.387462D+00
   s     1 1.00
  0.129300D+01  0.100000D+01
   s     1 1.00
  0.178700D+00  0.100000D+01
   p     5 1.00
  0.266300D+02  0.146700D-01
  0.594800D+01  0.917640D-01
  0.174200D+01  0.298683D+00
  0.555000D+00  0.498487D+00
  0.172500D+00  0.337023D+00
   p     1 1.00
  0.174200D+01  0.100000D+01
   p     1 1.00
  0.555000D+00  0.100000D+01
   d     1 1.00
  0.165400D+01  0.100000D+01
   d     1 1.00
  0.469000D+00  0.100000D+01
   f     1 1.00
  0.109300D+01  0.100000D+01
  
  2  0
   s    10 1.00
  0.823600D+04  0.531000D-03
  0.123500D+04  0.410800D-02
  0.280800D+03  0.210870D-01
  0.792700D+02  0.818530D-01
  0.255900D+02  0.234817D+00
  0.899700D+01  0.434401D+00
  0.331900D+01  0.346129D+00
  0.905900D+00  0.393780D-01
  0.364300D+00 -0.898300D-02
  0.128500D+00  0.238500D-02
   s    10 1.00
  0.823600D+04 -0.113000D-03
  0.123500D+04 -0.878000D-03
  0.280800D+03 -0.454000D-02
  0.792700D+02 -0.181330D-01
  0.255900D+02 -0.557600D-01
  0.899700D+01 -0.126895D+00
  0.331900D+01 -0.170352D+00
  0.905900D+00  0.140382D+00
  0.364300D+00  0.598684D+00
  0.128500D+00  0.395389D+00
   s     1 1.00
  0.905900D+00  0.100000D+01
   s     1 1.00
  0.364300D+00  0.100000D+01
   p     5 1.00
  0.187100D+02  0.140310D-01
  0.413300D+01  0.868660D-01
  0.120000D+01  0.290216D+00
  0.382700D+00  0.501008D+00
  0.120900D+00  0.343406D+00
   p     1 1.00
  0.382700D+00  0.100000D+01
   p     1 1.00
  0.120900D+00  0.100000D+01
   d     1 1.00
  0.109700D+01  0.100000D+01
   d     1 1.00
  0.318000D+00  0.100000D+01
   f     1 1.00
  0.761000D+00  0.100000D+01
  
  3  0
   s    10 1.00
  0.823600D+04  0.531000D-03
  0.123500D+04  0.410800D-02
  0.280800D+03  0.210870D-01
  0.792700D+02  0.818530D-01
  0.255900D+02  0.234817D+00
  0.899700D+01  0.434401D+00
  0.331900D+01  0.346129D+00
  0.905900D+00  0.393780D-01
  0.364300D+00 -0.898300D-02
  0.128500D+00  0.238500D-02
   s    10 1.00
  0.823600D+04 -0.113000D-03
  0.123500D+04 -0.878000D-03
  0.280800D+03 -0.454000D-02
  0.792700D+02 -0.181330D-01
  0.255900D+02 -0.557600D-01
  0.899700D+01 -0.126895D+00
  0.331900D+01 -0.170352D+00
  0.905900D+00  0.140382D+00
  0.364300D+00  0.598684D+00
  0.128500D+00  0.395389D+00
   s     1 1.00
  0.905900D+00  0.100000D+01
   s     1 1.00
  0.364300D+00  0.100000D+01
   p     5 1.00
  0.187100D+02  0.140310D-01
  0.413300D+01  0.868660D-01
  0.120000D+01  0.290216D+00
  0.382700D+00  0.501008D+00
  0.120900D+00  0.343406D+00
   p     1 1.00
  0.382700D+00  0.100000D+01
   p     1 1.00
  0.120900D+00  0.100000D+01
   d     1 1.00
  0.109700D+01  0.100000D+01
   d     1 1.00
  0.318000D+00  0.100000D+01
   f     1 1.00
  0.761000D+00  0.100000D+01
  
  4  0
   s    10 1.00
  0.823600D+04  0.531000D-03
  0.123500D+04  0.410800D-02
  0.280800D+03  0.210870D-01
  0.792700D+02  0.818530D-01
  0.255900D+02  0.234817D+00
  0.899700D+01  0.434401D+00
  0.331900D+01  0.346129D+00
  0.905900D+00  0.393780D-01
  0.364300D+00 -0.898300D-02
  0.128500D+00  0.238500D-02
   s    10 1.00
  0.823600D+04 -0.113000D-03
  0.123500D+04 -0.878000D-03
  0.280800D+03 -0.454000D-02
  0.792700D+02 -0.181330D-01
  0.255900D+02 -0.557600D-01
  0.899700D+01 -0.126895D+00
  0.331900D+01 -0.170352D+00
  0.905900D+00  0.140382D+00
  0.364300D+00  0.598684D+00
  0.128500D+00  0.395389D+00
   s     1 1.00
  0.905900D+00  0.100000D+01
   s     1 1.00
  0.364300D+00  0.100000D+01
   p     5 1.00
  0.187100D+02  0.140310D-01
  0.413300D+01  0.868660D-01
  0.120000D+01  0.290216D+00
  0.382700D+00  0.501008D+00
  0.120900D+00  0.343406D+00
   p     1 1.00
  0.382700D+00  0.100000D+01
   p     1 1.00
  0.120900D+00  0.100000D+01
   d     1 1.00
  0.109700D+01  0.100000D+01
   d     1 1.00
  0.318000D+00  0.100000D+01
   f     1 1.00
  0.761000D+00  0.100000D+01
  
  5  0
   s    10 1.00
  0.823600D+04  0.531000D-03
  0.123500D+04  0.410800D-02
  0.280800D+03  0.210870D-01
  0.792700D+02  0.818530D-01
  0.255900D+02  0.234817D+00
  0.899700D+01  0.434401D+00
  0.331900D+01  0.346129D+00
  0.905900D+00  0.393780D-01
  0.364300D+00 -0.898300D-02
  0.128500D+00  0.238500D-02
   s    10 1.00
  0.823600D+04 -0.113000D-03
  0.123500D+04 -0.878000D-03
  0.280800D+03 -0.454000D-02
  0.792700D+02 -0.181330D-01
  0.255900D+02 -0.557600D-01
  0.899700D+01 -0.126895D+00
  0.331900D+01 -0.170352D+00
  0.905900D+00  0.140382D+00
  0.364300D+00  0.598684D+00
  0.128500D+00  0.395389D+00
   s     1 1.00
  0.905900D+00  0.100000D+01
   s     1 1.00
  0.364300D+00  0.100000D+01
   p     5 1.00
  0.187100D+02  0.140310D-01
  0.413300D+01  0.868660D-01
  0.120000D+01  0.290216D+00
  0.382700D+00  0.501008D+00
  0.120900D+00  0.343406D+00
   p     1 1.00
  0.382700D+00  0.100000D+01
   p     1 1.00
  0.120900D+00  0.100000D+01
   d     1 1.00
  0.109700D+01  0.100000D+01
   d     1 1.00
  0.318000D+00  0.100000D+01
   f     1 1.00
  0.761000D+00  0.100000D+01
  
  6  0
   s    10 1.00
  0.823600D+04  0.531000D-03
  0.123500D+04  0.410800D-02
  0.280800D+03  0.210870D-01
  0.792700D+02  0.818530D-01
  0.255900D+02  0.234817D+00
  0.899700D+01  0.434401D+00
  0.331900D+01  0.346129D+00
  0.905900D+00  0.393780D-01
  0.364300D+00 -0.898300D-02
  0.128500D+00  0.238500D-02
   s    10 1.00
  0.823600D+04 -0.113000D-03
  0.123500D+04 -0.878000D-03
  0.280800D+03 -0.454000D-02
  0.792700D+02 -0.181330D-01
  0.255900D+02 -0.557600D-01
  0.899700D+01 -0.126895D+00
  0.331900D+01 -0.170352D+00
  0.905900D+00  0.140382D+00
  0.364300D+00  0.598684D+00
  0.128500D+00  0.395389D+00
   s     1 1.00
  0.905900D+00  0.100000D+01
   s     1 1.00
  0.364300D+00  0.100000D+01
   p     5 1.00
  0.187100D+02  0.140310D-01
  0.413300D+01  0.868660D-01
  0.120000D+01  0.290216D+00
  0.382700D+00  0.501008D+00
  0.120900D+00  0.343406D+00
   p     1 1.00
  0.382700D+00  0.100000D+01
   p     1 1.00
  0.120900D+00  0.100000D+01
   d     1 1.00
  0.109700D+01  0.100000D+01
   d     1 1.00
  0.318000D+00  0.100000D+01
   f     1 1.00
  0.761000D+00  0.100000D+01
  
  7  0
   s    10 1.00
  0.823600D+04  0.531000D-03
  0.123500D+04  0.410800D-02
  0.280800D+03  0.210870D-01
  0.792700D+02  0.818530D-01
  0.255900D+02  0.234817D+00
  0.899700D+01  0.434401D+00
  0.331900D+01  0.346129D+00
  0.905900D+00  0.393780D-01
  0.364300D+00 -0.898300D-02
  0.128500D+00  0.238500D-02
   s    10 1.00
  0.823600D+04 -0.113000D-03
  0.123500D+04 -0.878000D-03
  0.280800D+03 -0.454000D-02
  0.792700D+02 -0.181330D-01
  0.255900D+02 -0.557600D-01
  0.899700D+01 -0.126895D+00
  0.331900D+01 -0.170352D+00
  0.905900D+00  0.140382D+00
  0.364300D+00  0.598684D+00
  0.128500D+00  0.395389D+00
   s     1 1.00
  0.905900D+00  0.100000D+01
   s     1 1.00
  0.364300D+00  0.100000D+01
   p     5 1.00
  0.187100D+02  0.140310D-01
  0.413300D+01  0.868660D-01
  0.120000D+01  0.290216D+00
  0.382700D+00  0.501008D+00
  0.120900D+00  0.343406D+00
   p     1 1.00
  0.382700D+00  0.100000D+01
   p     1 1.00
  0.120900D+00  0.100000D+01
   d     1 1.00
  0.109700D+01  0.100000D+01
   d     1 1.00
  0.318000D+00  0.100000D+01
   f     1 1.00
  0.761000D+00  0.100000D+01
  
  8  0
   s     4 1.00
  0.130100D+02  0.196850D-01
  0.196200D+01  0.137977D+00
  0.444600D+00  0.478148D+00
  0.122000D+00  0.501240D+00
   s     1 1.00
  0.122000D+00  0.100000D+01
   p     1 1.00
  0.727000D+00  0.100000D+01
  
  9  0
   s     4 1.00
  0.130100D+02  0.196850D-01
  0.196200D+01  0.137977D+00
  0.444600D+00  0.478148D+00
  0.122000D+00  0.501240D+00
   s     1 1.00
  0.122000D+00  0.100000D+01
   p     1 1.00
  0.727000D+00  0.100000D+01
  
 10  0
   s     4 1.00
  0.130100D+02  0.196850D-01
  0.196200D+01  0.137977D+00
  0.444600D+00  0.478148D+00
  0.122000D+00  0.501240D+00
   s     1 1.00
  0.122000D+00  0.100000D+01
   p     1 1.00
  0.727000D+00  0.100000D+01
  
 11  0
   s     4 1.00
  0.130100D+02  0.196850D-01
  0.196200D+01  0.137977D+00
  0.444600D+00  0.478148D+00
  0.122000D+00  0.501240D+00
   s     1 1.00
  0.122000D+00  0.100000D+01
   p     1 1.00
  0.727000D+00  0.100000D+01
  
 12  0
   s     4 1.00
  0.130100D+02  0.196850D-01
  0.196200D+01  0.137977D+00
  0.444600D+00  0.478148D+00
  0.122000D+00  0.501240D+00
   s     1 1.00
  0.122000D+00  0.100000D+01
   p     1 1.00
  0.727000D+00  0.100000D+01
  
 13  0
   s     4 1.00
  0.130100D+02  0.196850D-01
  0.196200D+01  0.137977D+00
  0.444600D+00  0.478148D+00
  0.122000D+00  0.501240D+00
   s     1 1.00
  0.122000D+00  0.100000D+01
   p     1 1.00
  0.727000D+00  0.100000D+01
  
 14  0
   s     4 1.00
  0.130100D+02  0.196850D-01
  0.196200D+01  0.137977D+00
  0.444600D+00  0.478148D+00
  0.122000D+00  0.501240D+00
   s     1 1.00
  0.122000D+00  0.100000D+01
   p     1 1.00
  0.727000D+00  0.100000D+01
  
[MO]
 Sym= __1_a__
 Ene=  0.000000000000000E+000
 Spin= Alpha
 Occup=    2.00000000000000     
                     1  4.258070631876010E-005
                     2  0.998057913693874     
                     3  9.179523774625709E-003
                     4  2.067218368058080E-003
                     5  1.569510631559750E-003
                     6 -2.679819115051980E-007
                     7 -6.559135291479990E-007
                     8  4.464294160522160E-003
                     9  6.008220660123250E-009
                    10  2.959838318413700E-008
                    11 -1.303271517205560E-004
                    12  5.967983313849050E-009
                    13 -1.272424397095380E-008
                    14 -1.341915517425350E-004
                    15  2.604821993591811E-004
                    16 -2.642059077993630E-008
                    17 -4.710504916201340E-008
                    18 -1.021536189154258E-004
                    19  4.644867562008390E-005
                    20  1.541676833292052E-004
                    21 -2.551787207842050E-008
                    22 -1.521401646904270E-007
                    23  5.012395539230300E-004
                    24 -2.591404788802300E-004
                    25 -1.882810603598512E-004
                    26 -2.611801601267431E-008
                    27 -8.736704577690409E-008
                    28  8.334785865842880E-005
                    29 -2.781426554590000E-005
                    30  1.137529720722661E-008
                    31 -1.398556857498541E-008
                    32 -3.502108960729780E-004
                    33  2.722030539633290E-003
                    34  1.462605695410860E-004
                    35 -2.799137075030770E-004
                    36  4.211843445797950E-007
                    37  1.034044472922860E-006
                    38 -7.028755452115570E-003
                    39 -1.615696834384920E-008
                    40 -9.937087417424619E-008
                    41  3.383883860250390E-004
                    42 -2.685809194908960E-007
                    43 -5.945644886441270E-007
                    44  4.385328116366950E-003
                    45  3.477288100441668E-004
                    46 -2.947981427120410E-008
                    47 -9.713000719547090E-008
                    48  1.337357847371212E-004
                    49 -7.997518122361450E-006
                    50  1.022954030687741E-004
                    51 -2.541467171185610E-008
                    52 -1.058347296485150E-007
                    53 -4.051576229273380E-004
                    54  6.622071744906960E-005
                    55 -1.086639455209922E-004
                    56 -1.160828239486712E-008
                    57 -5.906312138618706E-008
                    58  7.436141695848020E-005
                    59 -1.294104495559060E-005
                    60  7.811824800147195E-009
                    61 -1.592337110050870E-008
                    62 -2.100921720627700E-004
                    63 -1.672138159977500E-003
                    64  5.257402693337790E-005
                    65  5.860461086923790E-004
                    66 -1.542870532271210E-005
                    67 -8.399102851470970E-004
                    68  1.012233880420210E-003
                    69  3.264422277718720E-005
                    70 -2.158578005207770E-005
                    71  5.830794623543720E-004
                    72  1.818973134047030E-005
                    73 -5.905209632022800E-004
                    74 -1.480241882026840E-004
                    75  9.140958365145471E-005
                    76  1.777158001260480E-006
                    77 -9.150370044568130E-006
                    78  4.019466561907000E-005
                    79 -2.766468190444410E-007
                    80 -1.149994236389413E-005
                    81 -2.338623931023830E-005
                    82  1.897410948313640E-004
                    83 -2.480594745876560E-005
                    84  1.933034233656500E-005
                    85 -9.205815539048552E-005
                    86  2.340754676167015E-006
                    87 -2.713491044892802E-005
                    88  2.053042284485000E-005
                    89 -4.636881639401050E-006
                    90  1.198021061235267E-006
                    91  1.388310117466413E-005
                    92 -2.100558035233180E-004
                    93 -1.671991860285270E-003
                    94  5.274023923253350E-005
                    95  5.854968967348920E-004
                    96  1.530445873980640E-005
                    97  8.396369322937710E-004
                    98  1.012587198782280E-003
                    99 -3.271095350773100E-005
                   100  2.127657254790810E-005
                   101  5.824470830467560E-004
                   102 -1.815777068033330E-005
                   103  5.899856961794960E-004
                   104 -1.476995809620930E-004
                   105  9.138093230805962E-005
                   106 -1.791345132570440E-006
                   107  9.109945630537940E-006
                   108  4.019955896368520E-005
                   109 -2.772739985470730E-007
                   110 -1.203352465453857E-005
                   111  2.339469966984160E-005
                   112 -1.898327781440630E-004
                   113 -2.495350829425500E-005
                   114  1.934532857516240E-005
                   115 -9.200901984444804E-005
                   116 -2.366147978974405E-006
                   117  2.706132745296611E-005
                   118  2.053415846502640E-005
                   119 -4.643906131062850E-006
                   120 -1.193634017472838E-006
                   121 -1.388891329270275E-005
                   122 -1.490486793723920E-004
                   123 -8.768656323184410E-007
                   124  1.091458734034540E-004
                   125  1.354490008898880E-004
                   126 -1.794437296396890E-005
                   127  4.132922874657580E-005
                   128 -7.915056680832910E-004
                   129  1.161790284047040E-006
                   130  2.142397152434220E-005
                   131  3.415188998095950E-004
                   132  1.155779457320830E-005
                   133 -1.569674548956230E-004
                   134  7.002512764926800E-004
                   135 -1.650326143930037E-005
                   136  1.322595926509700E-006
                   137  2.019161516859950E-006
                   138  1.172612184472748E-006
                   139  1.014051011983830E-006
                   140 -1.856692689783406E-004
                   141 -1.213653116148250E-005
                   142  1.627566343338760E-004
                   143  1.441881391303424E-005
                   144 -5.965084018736650E-006
                   145 -3.828015590885839E-005
                   146  3.901035708026108E-007
                   147  8.575540455867576E-007
                   148 -9.329487674261179E-006
                   149 -9.623173631800700E-007
                   150 -4.976471392102812E-007
                   151 -3.453644330239835E-006
                   152 -1.495256785642000E-004
                   153 -2.561702280557360E-006
                   154  1.086668888791680E-004
                   155  1.384770904844320E-004
                   156  1.803361695198830E-005
                   157 -4.104474634081430E-005
                   158 -7.914838429347550E-004
                   159 -1.185016752093830E-006
                   160 -2.187434913969140E-005
                   161  3.411502341121460E-004
                   162 -1.165695609140220E-005
                   163  1.573180193417750E-004
                   164  7.004634199637249E-004
                   165 -1.645023009145381E-005
                   166 -1.319487774506350E-006
                   167 -2.018689320440480E-006
                   168  1.120549488658532E-006
                   169  1.012088255278180E-006
                   170 -1.856113641276407E-004
                   171  1.217581766648770E-005
                   172 -1.629254248301460E-004
                   173  1.432678373507422E-005
                   174 -5.948234135652810E-006
                   175 -3.819207897414577E-005
                   176 -4.019278161639284E-007
                   177 -8.728220493458295E-007
                   178 -9.379669595898700E-006
                   179 -9.631831346084400E-007
                   180  4.965183339751133E-007
                   181  3.466329386186073E-006
                   182 -1.237591863435490E-004
                   183 -3.322939533426250E-004
                   184  3.171838118070280E-005
                   185  1.574643967205350E-004
                   186 -2.662203334920890E-009
                   187  9.227132460918820E-008
                   188 -4.199332797037900E-005
                   189  1.238404194735300E-008
                   190 -4.319525822382840E-007
                   191  1.761136673249010E-005
                   192 -1.231289074300700E-010
                   193 -4.371540966369580E-008
                   194  4.167355064786930E-005
                   195  1.894479280340510E-005
                   196 -2.056801755383900E-009
                   197  1.777764478364450E-008
                   198  8.806474829778559E-006
                   199  4.702526096267000E-007
                   200  5.741131835924221E-005
                   201 -7.615027502707420E-009
                   202  1.880277133777320E-007
                   203  4.713024284838540E-005
                   204 -4.485323701175190E-006
                   205 -1.168333211250975E-005
                   206 -8.065972199212025E-010
                   207 -1.286854514736767E-008
                   208  3.272888817695000E-006
                   209  1.240358552893770E-006
                   210  1.691049903136245E-009
                   211  2.640333608801308E-008
                   212  3.850226613321570E-003
                   213 -2.320343908419800E-003
                   214  1.374690080820680E-004
                   215  4.466674679417400E-004
                   216  3.754877132901030E-004
                   217  3.850204399637590E-003
                   218 -2.320334091626020E-003
                   219 -1.375144945467810E-004
                   220 -4.467745493072830E-004
                   221  3.753450504811550E-004
                   222 -6.562270085906270E-004
                   223 -1.447478310784580E-004
                   224  1.210914081047970E-006
                   225 -1.871785820430110E-005
                   226 -4.421091436928450E-005
                   227 -6.562963259320160E-004
                   228 -1.443739352110220E-004
                   229 -1.205661636195520E-006
                   230  1.871243281928480E-005
                   231 -4.423233655887070E-005
                   232 -2.324485527415300E-004
                   233 -3.974948266054740E-004
                   234 -1.477856222628650E-006
                   235 -6.158524319336470E-006
                   236  5.364280002188440E-006
                   237 -2.324880292997500E-004
                   238 -3.976566740075400E-004
                   239  1.475486908287840E-006
                   240  6.203324626909620E-006
                   241  5.413248615026210E-006
                   242  6.864815883166330E-005
                   243 -1.213536418986000E-004
                   244 -9.877708013478840E-010
                   245 -2.312880284989800E-008
                   246  1.461769124046820E-005
 Sym= __2_a__
 Ene=  0.000000000000000E+000
 Spin= Alpha
 Occup=    2.00000000000000     
                     1 -4.373980956717490E-005
                     2 -2.047062403002270E-004
                     3  2.266847714706270E-003
                     4  9.842955446133571E-005
                     5  1.264206073052090E-003
                     6 -1.789936369773380E-007
                     7 -4.201216240951040E-007
                     8  2.942207095455660E-003
                     9  3.720602117531730E-009
                    10  3.914828561262570E-009
                    11 -5.519154949640960E-005
                    12  3.228639387020900E-008
                    13  7.828748010151369E-008
                    14 -4.981573596242100E-004
                    15  4.321772493371611E-005
                    16 -3.583148695616640E-009
                    17 -2.002268530702450E-008
                    18  5.959684085682580E-005
                    19 -1.704006021806560E-005
                    20 -2.684594420921268E-004
                    21  2.479340008749680E-008
                    22  1.149548211663830E-007
                    23 -2.975675479444440E-004
                    24  9.639500965940229E-005
                    25  1.829951709894504E-004
                    26  2.260426953067825E-008
                    27  6.489811657073418E-008
                    28 -7.073194934560180E-006
                    29 -2.049211075872520E-005
                    30  3.306145236577970E-009
                    31  3.435372859680685E-009
                    32   1.00105800519917     
                    33  9.247000263177379E-003
                    34  2.627924585955120E-003
                    35 -7.766686072244410E-003
                    36  2.469403227411530E-007
                    37  5.850371753338450E-007
                    38 -4.080549266816840E-003
                    39 -6.292893732759240E-008
                    40 -1.496870894842160E-007
                    41  1.035427657694390E-003
                    42 -2.638073396853550E-007
                    43 -7.026169088686470E-007
                    44  4.395596581985500E-003
                    45  4.628809526114897E-004
                    46 -7.262902611334210E-008
                    47 -5.614242065209990E-008
                    48 -4.263724880124360E-004
                    49  1.168549198652630E-005
                    50  5.500273635070370E-004
                    51 -4.110349637092750E-009
                    52 -2.632242604405710E-007
                    53  9.159897156395280E-004
                    54 -1.900827175923710E-005
                    55  3.799976174712919E-004
                    56  3.835860366476288E-008
                    57  1.804590232392852E-007
                    58 -2.031426634738220E-004
                    59  8.644278522405399E-006
                    60 -1.650171597382432E-008
                    61  3.692249912731298E-008
                    62  7.449883177729280E-003
                    63 -2.039994437657220E-003
                    64 -2.743327631537430E-004
                    65  3.020614573951500E-003
                    66  5.696759058281500E-006
                    67  1.035433538937820E-004
                    68 -1.811187315868880E-005
                    69 -2.487927596858850E-005
                    70  5.904999671586810E-004
                    71  3.326374523405820E-005
                    72  4.325876429812320E-005
                    73 -2.071010348630400E-003
                    74  9.521239113769191E-005
                    75 -1.553329681709937E-005
                    76  8.023390575185090E-007
                    77  1.453254617301850E-005
                    78  2.920885116638280E-005
                    79  1.435163216080000E-006
                    80  7.605911639301032E-004
                    81  1.875599613339310E-005
                    82 -4.207816918454090E-004
                    83 -1.371764895549546E-005
                    84 -1.214803782248960E-005
                    85  7.169629079728297E-005
                    86 -4.890545782849572E-007
                    87  4.417625381152116E-005
                    88 -1.260099166902214E-004
                    89  1.205268068861200E-006
                    90  1.155244336734857E-006
                    91  4.994911577155914E-005
                    92  7.449856895077680E-003
                    93 -2.040078074531340E-003
                    94 -2.743734759176790E-004
                    95  3.020809341019060E-003
                    96 -5.693991840069400E-006
                    97 -1.035386062846670E-004
                    98 -1.816433496477620E-005
                    99  2.487426520804400E-005
                   100 -5.905109890121480E-004
                   101  3.321931478905000E-005
                   102 -4.327414448041000E-005
                   103  2.071102189375930E-003
                   104  9.565216706264330E-005
                   105 -1.552719633449590E-005
                   106 -7.952271690947130E-007
                   107 -1.453892875598540E-005
                   108  2.920318442711020E-005
                   109  1.437185749370170E-006
                   110  7.608540616005921E-004
                   111 -1.892217916252780E-005
                   112  4.204500362578660E-004
                   113 -1.357612160312444E-005
                   114 -1.219306805242910E-005
                   115  7.171480890308820E-005
                   116  4.864195219978941E-007
                   117 -4.406474854904986E-005
                   118 -1.260453812685384E-004
                   119  1.205714152044560E-006
                   120 -1.174159820646202E-006
                   121 -4.990303501289332E-005
                   122 -2.290505263638590E-004
                   123 -7.521934793991140E-004
                   124  2.245405998454720E-004
                   125 -1.151989945843680E-004
                   126 -3.167810876860850E-006
                   127 -1.978853287845200E-005
                   128 -2.512239350228590E-004
                   129  5.928975192321920E-006
                   130 -6.017191306404430E-006
                   131  5.383895856103370E-004
                   132 -8.686618243426070E-006
                   133  3.220533371534250E-004
                   134  7.452244507707980E-004
                   135 -1.457705355625452E-005
                   136 -1.777533209182710E-006
                   137  5.138162767743090E-005
                   138  1.406324929787874E-005
                   139  1.029040605209040E-006
                   140 -2.917935253429342E-004
                   141  3.784616783316170E-006
                   142 -2.202326230158170E-004
                   143 -1.451480517955720E-005
                   144 -3.936154674684520E-006
                   145  4.447035563944950E-007
                   146  1.633338475543346E-006
                   147 -3.990464479362899E-005
                   148 -3.916352619060780E-005
                   149 -1.682761581028530E-006
                   150  6.364030683833937E-007
                   151 -5.802870461855071E-006
                   152 -2.287691264156890E-004
                   153 -7.512597746385330E-004
                   154  2.245969380850930E-004
                   155 -1.161691272439320E-004
                   156  3.198432869481500E-006
                   157  1.985282332376790E-005
                   158 -2.512212094233910E-004
                   159 -5.995695219508120E-006
                   160  5.899386116844610E-006