[Molden Format]
[Atoms] AU
  N     1    7    -0.0001895500   -0.0000520600   -4.2959905600        
  C     2    6    -0.0003422400   -0.0004163400   -1.7753651400        
  C     3    6     0.0286948400   -2.3382141300   -0.4119208700        
  C     4    6    -0.0295445800    2.3369872600   -0.4112487300        
  C     5    6     0.0453709900   -2.3000254800    2.1642571000        
  C     6    6    -0.0465329100    2.2980539900    2.1649160500        
  C     7    6    -0.0006603300   -0.0011750700    3.4746114500        
  H     8    1    -0.4466814300   -1.5939152200   -5.3142109300        
  H     9    1     0.4464256600    1.5941053500   -5.3136960900        
  H    10    1     0.0735681200   -4.0723599600   -1.4469531000        
  H    11    1    -0.0742924800    4.0714321900   -1.4457851000        
  H    12    1     0.0973526700   -4.0414351900    3.1967330200        
  H    13    1    -0.0986397500    4.0391651900    3.1978889600        
  H    14    1    -0.0007831300   -0.0014679800    5.5013078400        
[5D]
[7F]
[GTO]
  1  0
   s    12 1.00
  0.114200D+05  0.172695D-04
  0.171200D+04  0.134411D-03
  0.389300D+03  0.694561D-03
  0.110000D+03  0.278531D-02
  0.355700D+02  0.863457D-02
  0.125400D+02  0.199805D-01
  0.464400D+01  0.262908D-01
  0.129300D+01 -0.243845D-01
  0.511800D+00 -0.924934D-01
  0.178700D+00 -0.339683D+00
  0.246240D-01  0.345111D+00
  0.112530D-01  0.752750D+00
   s    10 1.00
  0.114200D+05  0.523000D-03
  0.171200D+04  0.404500D-02
  0.389300D+03  0.207750D-01
  0.110000D+03  0.807269D-01
  0.355700D+02  0.233074D+00
  0.125400D+02  0.433501D+00
  0.464400D+01  0.347472D+00
  0.129300D+01  0.412620D-01
  0.511800D+00 -0.850799D-02
  0.178700D+00  0.238400D-02
   s    10 1.00
  0.114200D+05 -0.115000D-03
  0.171200D+04 -0.895000D-03
  0.389300D+03 -0.462400D-02
  0.110000D+03 -0.185280D-01
  0.355700D+02 -0.573390D-01
  0.125400D+02 -0.132076D+00
  0.464400D+01 -0.172510D+00
  0.129300D+01  0.151814D+00
  0.511800D+00  0.599944D+00
  0.178700D+00  0.387462D+00
   s     1 1.00
  0.129300D+01  0.100000D+01
   s     1 1.00
  0.178700D+00  0.100000D+01
   p     5 1.00
  0.266300D+02  0.146700D-01
  0.594800D+01  0.917640D-01
  0.174200D+01  0.298683D+00
  0.555000D+00  0.498487D+00
  0.172500D+00  0.337023D+00
   p     1 1.00
  0.174200D+01  0.100000D+01
   p     1 1.00
  0.555000D+00  0.100000D+01
   d     1 1.00
  0.165400D+01  0.100000D+01
   d     1 1.00
  0.469000D+00  0.100000D+01
   f     1 1.00
  0.109300D+01  0.100000D+01
  
  2  0
   s    10 1.00
  0.823600D+04  0.531000D-03
  0.123500D+04  0.410800D-02
  0.280800D+03  0.210870D-01
  0.792700D+02  0.818530D-01
  0.255900D+02  0.234817D+00
  0.899700D+01  0.434401D+00
  0.331900D+01  0.346129D+00
  0.905900D+00  0.393780D-01
  0.364300D+00 -0.898300D-02
  0.128500D+00  0.238500D-02
   s    10 1.00
  0.823600D+04 -0.113000D-03
  0.123500D+04 -0.878000D-03
  0.280800D+03 -0.454000D-02
  0.792700D+02 -0.181330D-01
  0.255900D+02 -0.557600D-01
  0.899700D+01 -0.126895D+00
  0.331900D+01 -0.170352D+00
  0.905900D+00  0.140382D+00
  0.364300D+00  0.598684D+00
  0.128500D+00  0.395389D+00
   s     1 1.00
  0.905900D+00  0.100000D+01
   s     1 1.00
  0.364300D+00  0.100000D+01
   p     5 1.00
  0.187100D+02  0.140310D-01
  0.413300D+01  0.868660D-01
  0.120000D+01  0.290216D+00
  0.382700D+00  0.501008D+00
  0.120900D+00  0.343406D+00
   p     1 1.00
  0.382700D+00  0.100000D+01
   p     1 1.00
  0.120900D+00  0.100000D+01
   d     1 1.00
  0.109700D+01  0.100000D+01
   d     1 1.00
  0.318000D+00  0.100000D+01
   f     1 1.00
  0.761000D+00  0.100000D+01
  
  3  0
   s    10 1.00
  0.823600D+04  0.531000D-03
  0.123500D+04  0.410800D-02
  0.280800D+03  0.210870D-01
  0.792700D+02  0.818530D-01
  0.255900D+02  0.234817D+00
  0.899700D+01  0.434401D+00
  0.331900D+01  0.346129D+00
  0.905900D+00  0.393780D-01
  0.364300D+00 -0.898300D-02
  0.128500D+00  0.238500D-02
   s    10 1.00
  0.823600D+04 -0.113000D-03
  0.123500D+04 -0.878000D-03
  0.280800D+03 -0.454000D-02
  0.792700D+02 -0.181330D-01
  0.255900D+02 -0.557600D-01
  0.899700D+01 -0.126895D+00
  0.331900D+01 -0.170352D+00
  0.905900D+00  0.140382D+00
  0.364300D+00  0.598684D+00
  0.128500D+00  0.395389D+00
   s     1 1.00
  0.905900D+00  0.100000D+01
   s     1 1.00
  0.364300D+00  0.100000D+01
   p     5 1.00
  0.187100D+02  0.140310D-01
  0.413300D+01  0.868660D-01
  0.120000D+01  0.290216D+00
  0.382700D+00  0.501008D+00
  0.120900D+00  0.343406D+00
   p     1 1.00
  0.382700D+00  0.100000D+01
   p     1 1.00
  0.120900D+00  0.100000D+01
   d     1 1.00
  0.109700D+01  0.100000D+01
   d     1 1.00
  0.318000D+00  0.100000D+01
   f     1 1.00
  0.761000D+00  0.100000D+01
  
  4  0
   s    10 1.00
  0.823600D+04  0.531000D-03
  0.123500D+04  0.410800D-02
  0.280800D+03  0.210870D-01
  0.792700D+02  0.818530D-01
  0.255900D+02  0.234817D+00
  0.899700D+01  0.434401D+00
  0.331900D+01  0.346129D+00
  0.905900D+00  0.393780D-01
  0.364300D+00 -0.898300D-02
  0.128500D+00  0.238500D-02
   s    10 1.00
  0.823600D+04 -0.113000D-03
  0.123500D+04 -0.878000D-03
  0.280800D+03 -0.454000D-02
  0.792700D+02 -0.181330D-01
  0.255900D+02 -0.557600D-01
  0.899700D+01 -0.126895D+00
  0.331900D+01 -0.170352D+00
  0.905900D+00  0.140382D+00
  0.364300D+00  0.598684D+00
  0.128500D+00  0.395389D+00
   s     1 1.00
  0.905900D+00  0.100000D+01
   s     1 1.00
  0.364300D+00  0.100000D+01
   p     5 1.00
  0.187100D+02  0.140310D-01
  0.413300D+01  0.868660D-01
  0.120000D+01  0.290216D+00
  0.382700D+00  0.501008D+00
  0.120900D+00  0.343406D+00
   p     1 1.00
  0.382700D+00  0.100000D+01
   p     1 1.00
  0.120900D+00  0.100000D+01
   d     1 1.00
  0.109700D+01  0.100000D+01
   d     1 1.00
  0.318000D+00  0.100000D+01
   f     1 1.00
  0.761000D+00  0.100000D+01
  
  5  0
   s    10 1.00
  0.823600D+04  0.531000D-03
  0.123500D+04  0.410800D-02
  0.280800D+03  0.210870D-01
  0.792700D+02  0.818530D-01
  0.255900D+02  0.234817D+00
  0.899700D+01  0.434401D+00
  0.331900D+01  0.346129D+00
  0.905900D+00  0.393780D-01
  0.364300D+00 -0.898300D-02
  0.128500D+00  0.238500D-02
   s    10 1.00
  0.823600D+04 -0.113000D-03
  0.123500D+04 -0.878000D-03
  0.280800D+03 -0.454000D-02
  0.792700D+02 -0.181330D-01
  0.255900D+02 -0.557600D-01
  0.899700D+01 -0.126895D+00
  0.331900D+01 -0.170352D+00
  0.905900D+00  0.140382D+00
  0.364300D+00  0.598684D+00
  0.128500D+00  0.395389D+00
   s     1 1.00
  0.905900D+00  0.100000D+01
   s     1 1.00
  0.364300D+00  0.100000D+01
   p     5 1.00
  0.187100D+02  0.140310D-01
  0.413300D+01  0.868660D-01
  0.120000D+01  0.290216D+00
  0.382700D+00  0.501008D+00
  0.120900D+00  0.343406D+00
   p     1 1.00
  0.382700D+00  0.100000D+01
   p     1 1.00
  0.120900D+00  0.100000D+01
   d     1 1.00
  0.109700D+01  0.100000D+01
   d     1 1.00
  0.318000D+00  0.100000D+01
   f     1 1.00
  0.761000D+00  0.100000D+01
  
  6  0
   s    10 1.00
  0.823600D+04  0.531000D-03
  0.123500D+04  0.410800D-02
  0.280800D+03  0.210870D-01
  0.792700D+02  0.818530D-01
  0.255900D+02  0.234817D+00
  0.899700D+01  0.434401D+00
  0.331900D+01  0.346129D+00
  0.905900D+00  0.393780D-01
  0.364300D+00 -0.898300D-02
  0.128500D+00  0.238500D-02
   s    10 1.00
  0.823600D+04 -0.113000D-03
  0.123500D+04 -0.878000D-03
  0.280800D+03 -0.454000D-02
  0.792700D+02 -0.181330D-01
  0.255900D+02 -0.557600D-01
  0.899700D+01 -0.126895D+00
  0.331900D+01 -0.170352D+00
  0.905900D+00  0.140382D+00
  0.364300D+00  0.598684D+00
  0.128500D+00  0.395389D+00
   s     1 1.00
  0.905900D+00  0.100000D+01
   s     1 1.00
  0.364300D+00  0.100000D+01
   p     5 1.00
  0.187100D+02  0.140310D-01
  0.413300D+01  0.868660D-01
  0.120000D+01  0.290216D+00
  0.382700D+00  0.501008D+00
  0.120900D+00  0.343406D+00
   p     1 1.00
  0.382700D+00  0.100000D+01
   p     1 1.00
  0.120900D+00  0.100000D+01
   d     1 1.00
  0.109700D+01  0.100000D+01
   d     1 1.00
  0.318000D+00  0.100000D+01
   f     1 1.00
  0.761000D+00  0.100000D+01
  
  7  0
   s    10 1.00
  0.823600D+04  0.531000D-03
  0.123500D+04  0.410800D-02
  0.280800D+03  0.210870D-01
  0.792700D+02  0.818530D-01
  0.255900D+02  0.234817D+00
  0.899700D+01  0.434401D+00
  0.331900D+01  0.346129D+00
  0.905900D+00  0.393780D-01
  0.364300D+00 -0.898300D-02
  0.128500D+00  0.238500D-02
   s    10 1.00
  0.823600D+04 -0.113000D-03
  0.123500D+04 -0.878000D-03
  0.280800D+03 -0.454000D-02
  0.792700D+02 -0.181330D-01
  0.255900D+02 -0.557600D-01
  0.899700D+01 -0.126895D+00
  0.331900D+01 -0.170352D+00
  0.905900D+00  0.140382D+00
  0.364300D+00  0.598684D+00
  0.128500D+00  0.395389D+00
   s     1 1.00
  0.905900D+00  0.100000D+01
   s     1 1.00
  0.364300D+00  0.100000D+01
   p     5 1.00
  0.187100D+02  0.140310D-01
  0.413300D+01  0.868660D-01
  0.120000D+01  0.290216D+00
  0.382700D+00  0.501008D+00
  0.120900D+00  0.343406D+00
   p     1 1.00
  0.382700D+00  0.100000D+01
   p     1 1.00
  0.120900D+00  0.100000D+01
   d     1 1.00
  0.109700D+01  0.100000D+01
   d     1 1.00
  0.318000D+00  0.100000D+01
   f     1 1.00
  0.761000D+00  0.100000D+01
  
  8  0
   s     4 1.00
  0.130100D+02  0.196850D-01
  0.196200D+01  0.137977D+00
  0.444600D+00  0.478148D+00
  0.122000D+00  0.501240D+00
   s     1 1.00
  0.122000D+00  0.100000D+01
   p     1 1.00
  0.727000D+00  0.100000D+01
  
  9  0
   s     4 1.00
  0.130100D+02  0.196850D-01
  0.196200D+01  0.137977D+00
  0.444600D+00  0.478148D+00
  0.122000D+00  0.501240D+00
   s     1 1.00
  0.122000D+00  0.100000D+01
   p     1 1.00
  0.727000D+00  0.100000D+01
  
 10  0
   s     4 1.00
  0.130100D+02  0.196850D-01
  0.196200D+01  0.137977D+00
  0.444600D+00  0.478148D+00
  0.122000D+00  0.501240D+00
   s     1 1.00
  0.122000D+00  0.100000D+01
   p     1 1.00
  0.727000D+00  0.100000D+01
  
 11  0
   s     4 1.00
  0.130100D+02  0.196850D-01
  0.196200D+01  0.137977D+00
  0.444600D+00  0.478148D+00
  0.122000D+00  0.501240D+00
   s     1 1.00
  0.122000D+00  0.100000D+01
   p     1 1.00
  0.727000D+00  0.100000D+01
  
 12  0
   s     4 1.00
  0.130100D+02  0.196850D-01
  0.196200D+01  0.137977D+00
  0.444600D+00  0.478148D+00
  0.122000D+00  0.501240D+00
   s     1 1.00
  0.122000D+00  0.100000D+01
   p     1 1.00
  0.727000D+00  0.100000D+01
  
 13  0
   s     4 1.00
  0.130100D+02  0.196850D-01
  0.196200D+01  0.137977D+00
  0.444600D+00  0.478148D+00
  0.122000D+00  0.501240D+00
   s     1 1.00
  0.122000D+00  0.100000D+01
   p     1 1.00
  0.727000D+00  0.100000D+01
  
 14  0
   s     4 1.00
  0.130100D+02  0.196850D-01
  0.196200D+01  0.137977D+00
  0.444600D+00  0.478148D+00
  0.122000D+00  0.501240D+00
   s     1 1.00
  0.122000D+00  0.100000D+01
   p     1 1.00
  0.727000D+00  0.100000D+01
  
[MO]
 Sym= __1_A__
 Ene=   1.00000000000000     
 Spin= Alpha
 Occup=    1.00000000000000     
                     1  4.258070631876013E-005
                     2  0.998057913693874     
                     3  9.179523774625714E-003
                     4  2.067218368058081E-003
                     5  1.569510631559754E-003
                     6 -2.679819115051978E-007
                     7 -6.559135291479991E-007
                     8  4.464294160522160E-003
                     9  6.008220660123248E-009
                    10  2.959838318413704E-008
                    11 -1.303271517205559E-004
                    12  5.967983313849054E-009
                    13 -1.272424397095385E-008
                    14 -1.341915517425354E-004
                    15  2.604821993591812E-004
                    16 -2.642059077993627E-008
                    17 -4.710504916201336E-008
                    18 -1.021536189154258E-004
                    19  4.644867562008394E-005
                    20  1.541676833292052E-004
                    21 -2.551787207842054E-008
                    22 -1.521401646904274E-007
                    23  5.012395539230294E-004
                    24 -2.591404788802301E-004
                    25 -1.882810603598511E-004
                    26 -2.611801601267430E-008
                    27 -8.736704577690423E-008
                    28  8.334785865842870E-005
                    29 -2.781426554589999E-005
                    30  1.137529720722661E-008
                    31 -1.398556857498541E-008
                    32 -3.502108960729778E-004
                    33  2.722030539633289E-003
                    34  1.462605695410861E-004
                    35 -2.799137075030774E-004
                    36  4.211843445797950E-007
                    37  1.034044472922858E-006
                    38 -7.028755452115569E-003
                    39 -1.615696834384917E-008
                    40 -9.937087417424621E-008
                    41  3.383883860250391E-004
                    42 -2.685809194908959E-007
                    43 -5.945644886441272E-007
                    44  4.385328116366949E-003
                    45  3.477288100441672E-004
                    46 -2.947981427120409E-008
                    47 -9.713000719547086E-008
                    48  1.337357847371212E-004
                    49 -7.997518122361455E-006
                    50  1.022954030687742E-004
                    51 -2.541467171185610E-008
                    52 -1.058347296485151E-007
                    53 -4.051576229273386E-004
                    54  6.622071744906957E-005
                    55 -1.086639455209922E-004
                    56 -1.160828239486710E-008
                    57 -5.906312138618709E-008
                    58  7.436141695848011E-005
                    59 -1.294104495559056E-005
                    60  7.811824800147190E-009
                    61 -1.592337110050870E-008
                    62 -2.100921720627705E-004
                    63 -1.672138159977502E-003
                    64  5.257402693337794E-005
                    65  5.860461086923794E-004
                    66 -1.542870532271206E-005
                    67 -8.399102851470973E-004
                    68  1.012233880420211E-003
                    69  3.264422277718717E-005
                    70 -2.158578005207773E-005
                    71  5.830794623543724E-004
                    72  1.818973134047033E-005
                    73 -5.905209632022802E-004
                    74 -1.480241882026845E-004
                    75  9.140958365145488E-005
                    76  1.777158001260483E-006
                    77 -9.150370044568132E-006
                    78  4.019466561906996E-005
                    79 -2.766468190444412E-007
                    80 -1.149994236389415E-005
                    81 -2.338623931023826E-005
                    82  1.897410948313642E-004
                    83 -2.480594745876552E-005
                    84  1.933034233656496E-005
                    85 -9.205815539048552E-005
                    86  2.340754676167013E-006
                    87 -2.713491044892804E-005
                    88  2.053042284485000E-005
                    89 -4.636881639401052E-006
                    90  1.198021061235267E-006
                    91  1.388310117466413E-005
                    92 -2.100558035233177E-004
                    93 -1.671991860285274E-003
                    94  5.274023923253346E-005
                    95  5.854968967348919E-004
                    96  1.530445873980636E-005
                    97  8.396369322937713E-004
                    98  1.012587198782275E-003
                    99 -3.271095350773100E-005
                   100  2.127657254790806E-005
                   101  5.824470830467560E-004
                   102 -1.815777068033333E-005
                   103  5.899856961794956E-004
                   104 -1.476995809620932E-004
                   105  9.138093230805976E-005
                   106 -1.791345132570436E-006
                   107  9.109945630537943E-006
                   108  4.019955896368522E-005
                   109 -2.772739985470729E-007
                   110 -1.203352465453857E-005
                   111  2.339469966984161E-005
                   112 -1.898327781440627E-004
                   113 -2.495350829425492E-005
                   114  1.934532857516240E-005
                   115 -9.200901984444806E-005
                   116 -2.366147978974402E-006
                   117  2.706132745296611E-005
                   118  2.053415846502634E-005
                   119 -4.643906131062852E-006
                   120 -1.193634017472838E-006
                   121 -1.388891329270276E-005
                   122 -1.490486793723919E-004
                   123 -8.768656323184406E-007
                   124  1.091458734034537E-004
                   125  1.354490008898884E-004
                   126 -1.794437296396894E-005
                   127  4.132922874657578E-005
                   128 -7.915056680832910E-004
                   129  1.161790284047042E-006
                   130  2.142397152434222E-005
                   131  3.415188998095951E-004
                   132  1.155779457320830E-005
                   133 -1.569674548956229E-004
                   134  7.002512764926799E-004
                   135 -1.650326143930038E-005
                   136  1.322595926509698E-006
                   137  2.019161516859953E-006
                   138  1.172612184472749E-006
                   139  1.014051011983835E-006
                   140 -1.856692689783407E-004
                   141 -1.213653116148245E-005
                   142  1.627566343338756E-004
                   143  1.441881391303424E-005
                   144 -5.965084018736646E-006
                   145 -3.828015590885827E-005
                   146  3.901035708026106E-007
                   147  8.575540455867602E-007
                   148 -9.329487674261173E-006
                   149 -9.623173631800697E-007
                   150 -4.976471392102816E-007
                   151 -3.453644330239833E-006
                   152 -1.495256785641998E-004
                   153 -2.561702280557365E-006
                   154  1.086668888791680E-004
                   155  1.384770904844322E-004
                   156  1.803361695198832E-005
                   157 -4.104474634081427E-005
                   158 -7.914838429347555E-004
                   159 -1.185016752093829E-006
                   160 -2.187434913969145E-005
                   161  3.411502341121458E-004
                   162 -1.165695609140224E-005
                   163  1.573180193417752E-004
                   164  7.004634199637249E-004
                   165 -1.645023009145382E-005
                   166 -1.319487774506354E-006
                   167 -2.018689320440477E-006
                   168  1.120549488658533E-006
                   169  1.012088255278175E-006
                   170 -1.856113641276405E-004
                   171  1.217581766648772E-005
                   172 -1.629254248301457E-004
                   173  1.432678373507421E-005
                   174 -5.948234135652810E-006
                   175 -3.819207897414571E-005
                   176 -4.019278161639284E-007
                   177 -8.728220493458277E-007
                   178 -9.379669595898694E-006
                   179 -9.631831346084396E-007
                   180  4.965183339751138E-007
                   181  3.466329386186075E-006
                   182 -1.237591863435486E-004
                   183 -3.322939533426247E-004
                   184  3.171838118070279E-005
                   185  1.574643967205347E-004
                   186 -2.662203334920891E-009
                   187  9.227132460918815E-008
                   188 -4.199332797037896E-005
                   189  1.238404194735305E-008
                   190 -4.319525822382839E-007
                   191  1.761136673249013E-005
                   192 -1.231289074300701E-010
                   193 -4.371540966369582E-008
                   194  4.167355064786926E-005
                   195  1.894479280340511E-005
                   196 -2.056801755383901E-009
                   197  1.777764478364454E-008
                   198  8.806474829778559E-006
                   199  4.702526096267004E-007
                   200  5.741131835924214E-005
                   201 -7.615027502707420E-009
                   202  1.880277133777317E-007
                   203  4.713024284838536E-005
                   204 -4.485323701175193E-006
                   205 -1.168333211250974E-005
                   206 -8.065972199212043E-010
                   207 -1.286854514736769E-008
                   208  3.272888817694992E-006
                   209  1.240358552893772E-006
                   210  1.691049903136249E-009
                   211  2.640333608801307E-008
                   212  3.850226613321573E-003
                   213 -2.320343908419800E-003
                   214  1.374690080820681E-004
                   215  4.466674679417401E-004
                   216  3.754877132901029E-004
                   217  3.850204399637588E-003
                   218 -2.320334091626022E-003
                   219 -1.375144945467810E-004
                   220 -4.467745493072831E-004
                   221  3.753450504811550E-004
                   222 -6.562270085906271E-004
                   223 -1.447478310784582E-004
                   224  1.210914081047966E-006
                   225 -1.871785820430111E-005
                   226 -4.421091436928446E-005
                   227 -6.562963259320155E-004
                   228 -1.443739352110224E-004
                   229 -1.205661636195519E-006
                   230  1.871243281928477E-005
                   231 -4.423233655887070E-005
                   232 -2.324485527415295E-004
                   233 -3.974948266054743E-004
                   234 -1.477856222628647E-006
                   235 -6.158524319336471E-006
                   236  5.364280002188437E-006
                   237 -2.324880292997499E-004
                   238 -3.976566740075398E-004
                   239  1.475486908287837E-006
                   240  6.203324626909621E-006
                   241  5.413248615026214E-006
                   242  6.864815883166333E-005
                   243 -1.213536418986002E-004
                   244 -9.877708013478840E-010
                   245 -2.312880284989800E-008
                   246  1.461769124046816E-005
 Sym= __2_A__
 Ene=   2.00000000000000     
 Spin= Alpha
 Occup=    1.00000000000000     
                     1 -4.373980956717492E-005
                     2 -2.047062403002271E-004
                     3  2.266847714706268E-003
                     4  9.842955446133573E-005
                     5  1.264206073052092E-003
                     6 -1.789936369773382E-007
                     7 -4.201216240951042E-007
                     8  2.942207095455663E-003
                     9  3.720602117531735E-009
                    10  3.914828561262566E-009
                    11 -5.519154949640958E-005
                    12  3.228639387020898E-008
                    13  7.828748010151367E-008
                    14 -4.981573596242103E-004
                    15  4.321772493371600E-005
                    16 -3.583148695616639E-009
                    17 -2.002268530702448E-008
                    18  5.959684085682582E-005
                    19 -1.704006021806561E-005
                    20 -2.684594420921267E-004
                    21  2.479340008749678E-008
                    22  1.149548211663826E-007
                    23 -2.975675479444444E-004
                    24  9.639500965940229E-005
                    25  1.829951709894504E-004
                    26  2.260426953067825E-008
                    27  6.489811657073448E-008
                    28 -7.073194934560186E-006
                    29 -2.049211075872521E-005
                    30  3.306145236577966E-009
                    31  3.435372859680684E-009
                    32   1.00105800519917     
                    33  9.247000263177383E-003
                    34  2.627924585955121E-003
                    35 -7.766686072244408E-003
                    36  2.469403227411527E-007
                    37  5.850371753338447E-007
                    38 -4.080549266816836E-003
                    39 -6.292893732759235E-008
                    40 -1.496870894842155E-007
                    41  1.035427657694389E-003
                    42 -2.638073396853549E-007
                    43 -7.026169088686473E-007
                    44  4.395596581985500E-003
                    45  4.628809526114907E-004
                    46 -7.262902611334208E-008
                    47 -5.614242065209991E-008
                    48 -4.263724880124362E-004
                    49  1.168549198652629E-005
                    50  5.500273635070380E-004
                    51 -4.110349637092755E-009
                    52 -2.632242604405709E-007
                    53  9.159897156395272E-004
                    54 -1.900827175923713E-005
                    55  3.799976174712909E-004
                    56  3.835860366476289E-008
                    57  1.804590232392849E-007
                    58 -2.031426634738212E-004
                    59  8.644278522405403E-006
                    60 -1.650171597382436E-008
                    61  3.692249912731298E-008
                    62  7.449883177729277E-003
                    63 -2.039994437657216E-003
                    64 -2.743327631537430E-004
                    65  3.020614573951500E-003
                    66  5.696759058281498E-006
                    67  1.035433538937821E-004
                    68 -1.811187315868881E-005
                    69 -2.487927596858848E-005
                    70  5.904999671586808E-004
                    71  3.326374523405822E-005
                    72  4.325876429812317E-005
                    73 -2.071010348630404E-003
                    74  9.521239113769187E-005
                    75 -1.553329681709938E-005
                    76  8.023390575185095E-007
                    77  1.453254617301845E-005
                    78  2.920885116638272E-005
                    79  1.435163216080001E-006
                    80  7.605911639301032E-004
                    81  1.875599613339306E-005
                    82 -4.207816918454095E-004
                    83 -1.371764895549546E-005
                    84 -1.214803782248956E-005
                    85  7.169629079728306E-005
                    86 -4.890545782849569E-007
                    87  4.417625381152119E-005
                    88 -1.260099166902215E-004
                    89  1.205268068861204E-006
                    90  1.155244336734858E-006
                    91  4.994911577155905E-005
                    92  7.449856895077676E-003
                    93 -2.040078074531341E-003
                    94 -2.743734759176792E-004
                    95  3.020809341019056E-003
                    96 -5.693991840069397E-006
                    97 -1.035386062846672E-004
                    98 -1.816433496477619E-005
                    99  2.487426520804396E-005
                   100 -5.905109890121478E-004
                   101  3.321931478905004E-005
                   102 -4.327414448040999E-005
                   103  2.071102189375927E-003
                   104  9.565216706264330E-005
                   105 -1.552719633449588E-005
                   106 -7.952271690947128E-007
                   107 -1.453892875598539E-005
                   108  2.920318442711012E-005
                   109  1.437185749370173E-006
                   110  7.608540616005916E-004
                   111 -1.892217916252776E-005
                   112  4.204500362578658E-004
                   113 -1.357612160312445E-005
                   114 -1.219306805242906E-005
                   115  7.171480890308823E-005
                   116  4.864195219978943E-007
                   117 -4.406474854904987E-005
                   118 -1.260453812685384E-004
                   119  1.205714152044561E-006
                   120 -1.174159820646202E-006
                   121 -4.990303501289351E-005
                   122 -2.290505263638592E-004
                   123 -7.521934793991138E-004
                   124  2.245405998454715E-004
                   125 -1.151989945843683E-004
                   126 -3.167810876860852E-006
                   127 -1.978853287845202E-005
                   128 -2.512239350228590E-004
                   129  5.928975192321924E-006
                   130 -6.017191306404435E-006
                   131  5.383895856103368E-004
                   132 -8.686618243426071E-006
                   133  3.220533371534252E-004
                   134  7.452244507707976E-004
                   135 -1.457705355625453E-005
                   136 -1.777533209182711E-006
                   137  5.138162767743085E-005
                   138  1.406324929787874E-005
                   139  1.029040605209044E-006
                   140 -2.917935253429341E-004
                   141  3.784616783316173E-006
                   142 -2.202326230158172E-004
                   143 -1.451480517955720E-005
                   144 -3.936154674684525E-006
                   145  4.447035563944940E-007
                   146  1.633338475543343E-006
                   147 -3.990464479362900E-005
                   148 -3.916352619060772E-005
                   149 -1.682761581028528E-006
                   150  6.364030683833934E-007
                   151 -5.802870461855085E-006
                   152 -2.287691264156886E-004
                   153 -7.512597746385333E-004
                   154  2.245969380850931E-004
                   155 -1.161691272439322E-004
                   156  3.198432869481498E-006
                   157  1.985282332376793E-005
                   158 -2.512212094233910E-004
                   159 -5.995695219508125E-006
                   160  5.899386116844607E-006