[Molden Format]
[Atoms] AU
  N     1    7     0.0000000000    0.0000000000   -4.2907334100        
  C     2    6     0.0000000000    0.0000000000   -1.7772236300        
  C     3    6     0.0000000000   -2.3389203600   -0.4111016300        
  C     4    6     0.0000000000    2.3389203600   -0.4111016300        
  C     5    6     0.0000000000   -2.2998668500    2.1639215300        
  C     6    6     0.0000000000    2.2998668500    2.1639215300        
  C     7    6     0.0000000000    0.0000000000    3.4755251800        
  H     8    1     0.0000000000   -2.2516208400   -5.6797945000        
  H     9    1     0.0000000000    1.9299607200   -5.4813572000        
  H    10    1     0.0000000000   -4.0745407300   -1.4447408500        
  H    11    1     0.0000000000    4.0745407300   -1.4447408500        
  H    12    1     0.0000000000   -4.0420632100    3.1963889500        
  H    13    1     0.0000000000    4.0420632100    3.1963889500        
  H    14    1     0.0000000000    0.0000000000    5.5020335600        
[5D]
[7F]
[GTO]
  1  0
   s    12 1.00
  0.114200D+05  0.172695D-04
  0.171200D+04  0.134411D-03
  0.389300D+03  0.694561D-03
  0.110000D+03  0.278531D-02
  0.355700D+02  0.863457D-02
  0.125400D+02  0.199805D-01
  0.464400D+01  0.262908D-01
  0.129300D+01 -0.243845D-01
  0.511800D+00 -0.924934D-01
  0.178700D+00 -0.339683D+00
  0.246240D-01  0.345111D+00
  0.112530D-01  0.752750D+00
   s    10 1.00
  0.114200D+05  0.523000D-03
  0.171200D+04  0.404500D-02
  0.389300D+03  0.207750D-01
  0.110000D+03  0.807269D-01
  0.355700D+02  0.233074D+00
  0.125400D+02  0.433501D+00
  0.464400D+01  0.347472D+00
  0.129300D+01  0.412620D-01
  0.511800D+00 -0.850799D-02
  0.178700D+00  0.238400D-02
   s    10 1.00
  0.114200D+05 -0.115000D-03
  0.171200D+04 -0.895000D-03
  0.389300D+03 -0.462400D-02
  0.110000D+03 -0.185280D-01
  0.355700D+02 -0.573390D-01
  0.125400D+02 -0.132076D+00
  0.464400D+01 -0.172510D+00
  0.129300D+01  0.151814D+00
  0.511800D+00  0.599944D+00
  0.178700D+00  0.387462D+00
   s     1 1.00
  0.129300D+01  0.100000D+01
   s     1 1.00
  0.178700D+00  0.100000D+01
   p     5 1.00
  0.266300D+02  0.146700D-01
  0.594800D+01  0.917640D-01
  0.174200D+01  0.298683D+00
  0.555000D+00  0.498487D+00
  0.172500D+00  0.337023D+00
   p     1 1.00
  0.174200D+01  0.100000D+01
   p     1 1.00
  0.555000D+00  0.100000D+01
   d     1 1.00
  0.165400D+01  0.100000D+01
   d     1 1.00
  0.469000D+00  0.100000D+01
   f     1 1.00
  0.109300D+01  0.100000D+01
  
  2  0
   s    10 1.00
  0.823600D+04  0.531000D-03
  0.123500D+04  0.410800D-02
  0.280800D+03  0.210870D-01
  0.792700D+02  0.818530D-01
  0.255900D+02  0.234817D+00
  0.899700D+01  0.434401D+00
  0.331900D+01  0.346129D+00
  0.905900D+00  0.393780D-01
  0.364300D+00 -0.898300D-02
  0.128500D+00  0.238500D-02
   s    10 1.00
  0.823600D+04 -0.113000D-03
  0.123500D+04 -0.878000D-03
  0.280800D+03 -0.454000D-02
  0.792700D+02 -0.181330D-01
  0.255900D+02 -0.557600D-01
  0.899700D+01 -0.126895D+00
  0.331900D+01 -0.170352D+00
  0.905900D+00  0.140382D+00
  0.364300D+00  0.598684D+00
  0.128500D+00  0.395389D+00
   s     1 1.00
  0.905900D+00  0.100000D+01
   s     1 1.00
  0.364300D+00  0.100000D+01
   p     5 1.00
  0.187100D+02  0.140310D-01
  0.413300D+01  0.868660D-01
  0.120000D+01  0.290216D+00
  0.382700D+00  0.501008D+00
  0.120900D+00  0.343406D+00
   p     1 1.00
  0.382700D+00  0.100000D+01
   p     1 1.00
  0.120900D+00  0.100000D+01
   d     1 1.00
  0.109700D+01  0.100000D+01
   d     1 1.00
  0.318000D+00  0.100000D+01
   f     1 1.00
  0.761000D+00  0.100000D+01
  
  3  0
   s    10 1.00
  0.823600D+04  0.531000D-03
  0.123500D+04  0.410800D-02
  0.280800D+03  0.210870D-01
  0.792700D+02  0.818530D-01
  0.255900D+02  0.234817D+00
  0.899700D+01  0.434401D+00
  0.331900D+01  0.346129D+00
  0.905900D+00  0.393780D-01
  0.364300D+00 -0.898300D-02
  0.128500D+00  0.238500D-02
   s    10 1.00
  0.823600D+04 -0.113000D-03
  0.123500D+04 -0.878000D-03
  0.280800D+03 -0.454000D-02
  0.792700D+02 -0.181330D-01
  0.255900D+02 -0.557600D-01
  0.899700D+01 -0.126895D+00
  0.331900D+01 -0.170352D+00
  0.905900D+00  0.140382D+00
  0.364300D+00  0.598684D+00
  0.128500D+00  0.395389D+00
   s     1 1.00
  0.905900D+00  0.100000D+01
   s     1 1.00
  0.364300D+00  0.100000D+01
   p     5 1.00
  0.187100D+02  0.140310D-01
  0.413300D+01  0.868660D-01
  0.120000D+01  0.290216D+00
  0.382700D+00  0.501008D+00
  0.120900D+00  0.343406D+00
   p     1 1.00
  0.382700D+00  0.100000D+01
   p     1 1.00
  0.120900D+00  0.100000D+01
   d     1 1.00
  0.109700D+01  0.100000D+01
   d     1 1.00
  0.318000D+00  0.100000D+01
   f     1 1.00
  0.761000D+00  0.100000D+01
  
  4  0
   s    10 1.00
  0.823600D+04  0.531000D-03
  0.123500D+04  0.410800D-02
  0.280800D+03  0.210870D-01
  0.792700D+02  0.818530D-01
  0.255900D+02  0.234817D+00
  0.899700D+01  0.434401D+00
  0.331900D+01  0.346129D+00
  0.905900D+00  0.393780D-01
  0.364300D+00 -0.898300D-02
  0.128500D+00  0.238500D-02
   s    10 1.00
  0.823600D+04 -0.113000D-03
  0.123500D+04 -0.878000D-03
  0.280800D+03 -0.454000D-02
  0.792700D+02 -0.181330D-01
  0.255900D+02 -0.557600D-01
  0.899700D+01 -0.126895D+00
  0.331900D+01 -0.170352D+00
  0.905900D+00  0.140382D+00
  0.364300D+00  0.598684D+00
  0.128500D+00  0.395389D+00
   s     1 1.00
  0.905900D+00  0.100000D+01
   s     1 1.00
  0.364300D+00  0.100000D+01
   p     5 1.00
  0.187100D+02  0.140310D-01
  0.413300D+01  0.868660D-01
  0.120000D+01  0.290216D+00
  0.382700D+00  0.501008D+00
  0.120900D+00  0.343406D+00
   p     1 1.00
  0.382700D+00  0.100000D+01
   p     1 1.00
  0.120900D+00  0.100000D+01
   d     1 1.00
  0.109700D+01  0.100000D+01
   d     1 1.00
  0.318000D+00  0.100000D+01
   f     1 1.00
  0.761000D+00  0.100000D+01
  
  5  0
   s    10 1.00
  0.823600D+04  0.531000D-03
  0.123500D+04  0.410800D-02
  0.280800D+03  0.210870D-01
  0.792700D+02  0.818530D-01
  0.255900D+02  0.234817D+00
  0.899700D+01  0.434401D+00
  0.331900D+01  0.346129D+00
  0.905900D+00  0.393780D-01
  0.364300D+00 -0.898300D-02
  0.128500D+00  0.238500D-02
   s    10 1.00
  0.823600D+04 -0.113000D-03
  0.123500D+04 -0.878000D-03
  0.280800D+03 -0.454000D-02
  0.792700D+02 -0.181330D-01
  0.255900D+02 -0.557600D-01
  0.899700D+01 -0.126895D+00
  0.331900D+01 -0.170352D+00
  0.905900D+00  0.140382D+00
  0.364300D+00  0.598684D+00
  0.128500D+00  0.395389D+00
   s     1 1.00
  0.905900D+00  0.100000D+01
   s     1 1.00
  0.364300D+00  0.100000D+01
   p     5 1.00
  0.187100D+02  0.140310D-01
  0.413300D+01  0.868660D-01
  0.120000D+01  0.290216D+00
  0.382700D+00  0.501008D+00
  0.120900D+00  0.343406D+00
   p     1 1.00
  0.382700D+00  0.100000D+01
   p     1 1.00
  0.120900D+00  0.100000D+01
   d     1 1.00
  0.109700D+01  0.100000D+01
   d     1 1.00
  0.318000D+00  0.100000D+01
   f     1 1.00
  0.761000D+00  0.100000D+01
  
  6  0
   s    10 1.00
  0.823600D+04  0.531000D-03
  0.123500D+04  0.410800D-02
  0.280800D+03  0.210870D-01
  0.792700D+02  0.818530D-01
  0.255900D+02  0.234817D+00
  0.899700D+01  0.434401D+00
  0.331900D+01  0.346129D+00
  0.905900D+00  0.393780D-01
  0.364300D+00 -0.898300D-02
  0.128500D+00  0.238500D-02
   s    10 1.00
  0.823600D+04 -0.113000D-03
  0.123500D+04 -0.878000D-03
  0.280800D+03 -0.454000D-02
  0.792700D+02 -0.181330D-01
  0.255900D+02 -0.557600D-01
  0.899700D+01 -0.126895D+00
  0.331900D+01 -0.170352D+00
  0.905900D+00  0.140382D+00
  0.364300D+00  0.598684D+00
  0.128500D+00  0.395389D+00
   s     1 1.00
  0.905900D+00  0.100000D+01
   s     1 1.00
  0.364300D+00  0.100000D+01
   p     5 1.00
  0.187100D+02  0.140310D-01
  0.413300D+01  0.868660D-01
  0.120000D+01  0.290216D+00
  0.382700D+00  0.501008D+00
  0.120900D+00  0.343406D+00
   p     1 1.00
  0.382700D+00  0.100000D+01
   p     1 1.00
  0.120900D+00  0.100000D+01
   d     1 1.00
  0.109700D+01  0.100000D+01
   d     1 1.00
  0.318000D+00  0.100000D+01
   f     1 1.00
  0.761000D+00  0.100000D+01
  
  7  0
   s    10 1.00
  0.823600D+04  0.531000D-03
  0.123500D+04  0.410800D-02
  0.280800D+03  0.210870D-01
  0.792700D+02  0.818530D-01
  0.255900D+02  0.234817D+00
  0.899700D+01  0.434401D+00
  0.331900D+01  0.346129D+00
  0.905900D+00  0.393780D-01
  0.364300D+00 -0.898300D-02
  0.128500D+00  0.238500D-02
   s    10 1.00
  0.823600D+04 -0.113000D-03
  0.123500D+04 -0.878000D-03
  0.280800D+03 -0.454000D-02
  0.792700D+02 -0.181330D-01
  0.255900D+02 -0.557600D-01
  0.899700D+01 -0.126895D+00
  0.331900D+01 -0.170352D+00
  0.905900D+00  0.140382D+00
  0.364300D+00  0.598684D+00
  0.128500D+00  0.395389D+00
   s     1 1.00
  0.905900D+00  0.100000D+01
   s     1 1.00
  0.364300D+00  0.100000D+01
   p     5 1.00
  0.187100D+02  0.140310D-01
  0.413300D+01  0.868660D-01
  0.120000D+01  0.290216D+00
  0.382700D+00  0.501008D+00
  0.120900D+00  0.343406D+00
   p     1 1.00
  0.382700D+00  0.100000D+01
   p     1 1.00
  0.120900D+00  0.100000D+01
   d     1 1.00
  0.109700D+01  0.100000D+01
   d     1 1.00
  0.318000D+00  0.100000D+01
   f     1 1.00
  0.761000D+00  0.100000D+01
  
  8  0
   s     4 1.00
  0.130100D+02  0.196850D-01
  0.196200D+01  0.137977D+00
  0.444600D+00  0.478148D+00
  0.122000D+00  0.501240D+00
   s     1 1.00
  0.122000D+00  0.100000D+01
   p     1 1.00
  0.727000D+00  0.100000D+01
  
  9  0
   s     4 1.00
  0.130100D+02  0.196850D-01
  0.196200D+01  0.137977D+00
  0.444600D+00  0.478148D+00
  0.122000D+00  0.501240D+00
   s     1 1.00
  0.122000D+00  0.100000D+01
   p     1 1.00
  0.727000D+00  0.100000D+01
  
 10  0
   s     4 1.00
  0.130100D+02  0.196850D-01
  0.196200D+01  0.137977D+00
  0.444600D+00  0.478148D+00
  0.122000D+00  0.501240D+00
   s     1 1.00
  0.122000D+00  0.100000D+01
   p     1 1.00
  0.727000D+00  0.100000D+01
  
 11  0
   s     4 1.00
  0.130100D+02  0.196850D-01
  0.196200D+01  0.137977D+00
  0.444600D+00  0.478148D+00
  0.122000D+00  0.501240D+00
   s     1 1.00
  0.122000D+00  0.100000D+01
   p     1 1.00
  0.727000D+00  0.100000D+01
  
 12  0
   s     4 1.00
  0.130100D+02  0.196850D-01
  0.196200D+01  0.137977D+00
  0.444600D+00  0.478148D+00
  0.122000D+00  0.501240D+00
   s     1 1.00
  0.122000D+00  0.100000D+01
   p     1 1.00
  0.727000D+00  0.100000D+01
  
 13  0
   s     4 1.00
  0.130100D+02  0.196850D-01
  0.196200D+01  0.137977D+00
  0.444600D+00  0.478148D+00
  0.122000D+00  0.501240D+00
   s     1 1.00
  0.122000D+00  0.100000D+01
   p     1 1.00
  0.727000D+00  0.100000D+01
  
 14  0
   s     4 1.00
  0.130100D+02  0.196850D-01
  0.196200D+01  0.137977D+00
  0.444600D+00  0.478148D+00
  0.122000D+00  0.501240D+00
   s     1 1.00
  0.122000D+00  0.100000D+01
   p     1 1.00
  0.727000D+00  0.100000D+01
  
[MO]
 Sym= __1_a__
 Ene=  0.000000000000000E+000
 Spin= Alpha
 Occup=    2.00000000000000     
                     1  1.014654534826760E-005
                     2  0.998653571933250     
                     3  2.105746313467440E-003
                     4  1.477406097165120E-003
                     5  4.059283914665050E-003
                     6 -7.382168331998780E-012
                     7  2.290168588474580E-003
                     8  6.003411091651820E-003
                     9  6.382861963967940E-012
                    10 -4.744694071789960E-004
                    11 -4.568468860866520E-004
                    12  1.228733743615890E-012
                    13 -1.476802196831340E-003
                    14 -1.509986505901140E-003
                    15  2.413986265878802E-004
                    16 -2.121647351311760E-012
                    17 -2.421485907148990E-005
                    18  3.832761304747020E-005
                    19  9.814283946261610E-013
                    20  9.889587569415125E-005
                    21 -1.611519031343050E-012
                    22  2.948147419221090E-004
                    23  3.780260809005080E-004
                    24 -1.697500400777660E-012
                    25 -1.073600354114690E-004
                    26 -3.269922639773881E-013
                    27  1.167806958139680E-005
                    28  9.897005770703721E-006
                    29 -3.406902773964290E-013
                    30  9.760223185935518E-013
                    31  4.348247537579875E-006
                    32 -2.869485539590880E-004
                    33  1.519796545154560E-003
                    34  2.098000305761520E-004
                    35 -2.440847867291170E-004
                    36 -6.007845701803520E-012
                    37 -1.335242765288920E-004
                    38 -4.579723688880530E-003
                    39  9.324029084263790E-013
                    40  3.245422017120050E-004
                    41  1.104335382658810E-004
                    42  8.001768550683151E-012
                    43 -1.345362095801890E-003
                    44  5.072898826470360E-003
                    45  2.237963022048760E-004
                    46 -3.177381324055400E-012
                    47 -1.244241757318790E-005
                    48  1.008081902287598E-004
                    49  1.065428604192960E-013
                    50  1.221503463679653E-004
                    51 -7.605170510381820E-012
                    52  4.593497286522030E-004
                    53 -2.794281012995500E-004
                    54  1.069685758509560E-012
                    55 -1.134631350551673E-004
                    56  7.751937364273678E-013
                    57  3.838291534853075E-006
                    58  4.217494044169280E-005
                    59  2.143540800689610E-012
                    60 -2.136743639234473E-012
                    61 -1.039974783784202E-005
                    62 -3.961204807270290E-004
                    63 -1.828964785242570E-003
                    64 -3.988819231039330E-005
                    65  1.533736656343630E-003
                    66 -1.477226248419120E-012
                    67 -5.971238997800100E-004
                    68  4.283662631697910E-004
                    69  5.257117868728480E-012
                    70  2.694731946543940E-004
                    71  6.995240125413910E-004
                    72 -4.075552714722000E-012
                    73 -1.398491880499740E-003
                    74  3.584625802015310E-004
                    75  7.932260581666824E-005
                    76  1.082899121100790E-012
                    77 -2.105429777669100E-005
                    78  7.971105775024860E-006
                    79  1.333296474519130E-012
                    80  1.204731593451322E-005
                    81 -4.141580515499080E-012
                    82  7.238630843038831E-005
                    83 -1.074816777859476E-004
                    84  4.455948113756150E-012
                    85 -1.286614723579316E-004
                    86  4.472062789771128E-013
                    87 -2.409107540783422E-005
                    88  4.475259643236740E-005
                    89  1.043005009602730E-012
                    90  1.638116610990234E-012
                    91  4.201544260032391E-006
                    92 -1.765543273985040E-004
                    93 -1.144589719120470E-003
                    94  1.485089501408800E-004
                    95  7.563596295534351E-005
                    96  8.267624575477360E-012
                    97  5.495760893372039E-004
                    98  5.780013311287590E-004
                    99  1.676540304991410E-012
                   100  2.643165812997520E-004
                   101  4.101533139926750E-004
                   102 -9.074211810332499E-012
                   103  6.355734788430830E-004
                   104 -9.302440965633130E-004
                   105  6.168286758997479E-005
                   106  9.916770792543361E-013
                   107 -9.219704559877750E-006
                   108  2.467858075356280E-005
                   109 -3.831531152084850E-012
                   110  3.116300214213051E-005
                   111  1.487112775051040E-012
                   112 -5.830124469294820E-005
                   113  1.057082655031398E-004
                   114  3.984286207842840E-012
                   115 -6.295665162022381E-005
                   116 -1.439508597425185E-012
                   117  2.388001158340254E-005
                   118  4.420966946390900E-006
                   119 -1.865511153545480E-012
                   120  3.260647687753286E-012
                   121 -1.574316788519219E-005
                   122 -2.398457964711360E-004
                   123 -4.919930064373540E-004
                   124  1.474103889837010E-004
                   125  3.417530364734480E-004
                   126 -7.685748486828090E-012
                   127 -4.180111921438670E-006
                   128 -4.845647199748400E-004
                   129  2.656096534845630E-012
                   130  1.595648855753730E-004
                   131  4.963845665023930E-004
                   132  5.609954130033790E-012
                   133  1.366187647349460E-004
                   134  1.488089312725590E-003
                   135 -3.584713446156973E-005
                   136  8.277011557618010E-014
                   137 -1.851178362691190E-006
                   138 -8.687883357303300E-006
                   139  5.691187170428280E-013
                   140 -3.259614647154663E-004
                   141 -2.690373287052420E-012
                   142  1.970664776895840E-004
                   143  7.940074327314460E-006
                   144 -3.904010680101740E-012
                   145 -6.172183746691197E-005
                   146  1.727638817894771E-012
                   147 -5.845791470991351E-006
                   148 -1.454464615445036E-005
                   149 -5.149592189695260E-013
                   150  2.718660273202649E-013
                   151 -9.950058154314707E-006
                   152 -1.855202479601220E-004
                   153 -3.099981499125100E-004
                   154  6.547846301176159E-005
                   155  3.521621601897420E-004
                   156 -7.375385139556980E-012
                   157 -1.882821329474920E-005
                   158 -4.594237861682960E-004
                   159  3.264814398159980E-012
                   160 -3.103041834704580E-005
                   161  1.588917389204340E-004
                   162  8.866168645597020E-012
                   163  5.042600085183191E-004
                   164  1.456980258594230E-004
                   165 -4.704651556883498E-006
                   166  1.297485657335760E-012
                   167  4.448117605904350E-006
                   168 -1.150915750261990E-006
                   169  1.922382405967000E-012
                   170 -1.049038831497725E-004
                   171  1.589026649911750E-012
                   172 -6.831590161868559E-005
                   173  3.582721655674880E-005
                   174 -1.242008219569960E-012
                   175 -2.375074123510788E-005
                   176 -1.795011832536292E-012
                   177 -1.739057938475029E-005
                   178 -4.193490418038340E-006
                   179  1.078039289598030E-012
                   180  5.068658602689841E-012
                   181  1.295129704551892E-006
                   182 -1.573078273278700E-004
                   183 -4.451443012760550E-004
                   184  4.847453733284180E-005
                   185  2.261878957150390E-004
                   186 -1.534903677540090E-012
                   187 -2.352149637130790E-005
                   188 -5.089697523142490E-005
                   189  3.190810330867600E-012
                   190  1.196477343297510E-004
                   191  5.342433657709710E-005
                   192 -4.366259569526330E-012
                   193  7.583380983548120E-004
                   194 -9.711249851632310E-005
                   195  1.352249529709319E-005
                   196  1.029916675956560E-012
                   197  3.845017409645930E-006
                   198  5.532973502375060E-006
                   199  4.523588779416060E-012
                   200  5.310627709777732E-005
                   201 -1.858165306698910E-012
                   202 -1.062497255320980E-004
                   203  6.291014801014780E-005
                   204 -6.949500907620310E-012
                   205 -6.393420862408633E-006
                   206 -5.444831757310844E-012
                   207  6.600545940969460E-006
                   208 -3.021648628936360E-006
                   209  1.796054038744730E-012
                   210  5.069997804472231E-013
                   211 -1.824570917308692E-006
                   212  1.266650310890040E-004
                   213 -1.611878401741580E-004
                   214  3.602025579150060E-013
                   215  2.037316884254610E-004
                   216  1.842035960104210E-004
                   217  6.195901337813651E-004
                   218 -8.143529449287391E-004
                   219  9.515589324200270E-013
                   220 -3.528267295070680E-004
                   221  2.218027348546000E-004
                   222 -3.641648670979390E-004
                   223 -5.787888743521759E-004
                   224  3.129565650167680E-013
                   225  2.586635257310490E-006
                   226 -5.391561138984720E-005
                   227 -2.821899779488440E-004
                   228 -4.337510619106490E-004
                   229 -1.647892641003720E-012
                   230 -2.453030206863290E-006
                   231 -2.484936160154460E-005
                   232 -7.799511854134420E-005
                   233 -5.064350532347170E-004
                   234 -3.135677336078680E-012
                   235  4.709064551757240E-006
                   236 -1.632538344438590E-006
                   237 -1.376390338731780E-004
                   238 -4.124936916479100E-004
                   239 -3.582592130463770E-012
                   240  3.294044223312240E-006
                   241  1.550189345334140E-006
                   242  1.989031081696380E-005
                   243 -6.612739885500500E-005
                   244  4.645365015108760E-012
                   245 -1.588610189530530E-007
                   246  1.855170594299900E-005
 Sym= __2_a__
 Ene=  0.000000000000000E+000
 Spin= Alpha
 Occup=    2.00000000000000     
                     1 -5.660154813265420E-005
                     2 -3.372153540620050E-004
                     3  2.902714004255220E-003
                     4  1.533046790522350E-004
                     5  1.299441054397430E-003
                     6  8.702539652304610E-012
                     7 -1.357946908265530E-004
                     8  3.103562411764630E-003
                     9 -4.092163614920800E-012
                    10 -2.527244045005860E-005
                    11 -9.826639331926831E-005
                    12  4.944796082527160E-012
                    13  4.821713613096800E-005
                    14 -4.505239790105930E-004
                    15  3.629862113519972E-005
                    16  3.795447105281700E-014
                    17  2.927597012076710E-006
                    18  6.135854223353580E-005
                    19 -1.518731050346370E-013
                    20 -9.850604056825009E-005
                    21  1.002771172943430E-011
                    22  5.529366785250050E-006
                    23 -2.080517270269780E-004
                    24 -1.373024096039930E-013
                    25  1.733926983359407E-004
                    26  4.608474902769837E-013
                    27 -4.916867461885589E-006
                    28 -1.480359416607198E-005
                    29 -6.411817679795310E-013
                    30 -2.122496592829801E-012
                    31 -8.499383817306448E-006
                    32   1.00101472786435     
                    33  9.392649083469189E-003
                    34  2.728710715116280E-003
                    35 -8.042701447420940E-003
                    36  5.468235115068810E-012
                    37 -8.564147109050459E-005
                    38 -3.949191869361790E-003
                    39 -5.039691019724910E-012
                    40  6.842479950772661E-005
                    41  6.629199042820310E-004
                    42 -1.505699207737170E-011
                    43  4.228906411242800E-005
                    44  4.346388012526810E-003
                    45  4.720340314003078E-004
                    46  4.933814589835620E-012
                    47 -3.564934810679840E-006
                    48 -4.032555277451000E-004
                    49 -4.113000574555450E-012
                    50  5.202834267841430E-004
                    51  8.061528832115221E-012
                    52  3.591121391684560E-005
                    53  9.250684930235400E-004
                    54  8.661685037379890E-012
                    55  3.810289551267949E-004
                    56 -3.642150302165761E-012
                    57  1.215729663890146E-006
                    58 -1.820194509642298E-004
                    59  5.738048256517160E-013
                    60  1.540483131306167E-013
                    61 -1.409720088137567E-006
                    62  8.609622949708479E-003
                    63 -2.091811938923330E-003
                    64 -2.853407503450650E-004
                    65  3.061120363278830E-003
                    66 -5.708411350182670E-012
                    67  5.629104429721600E-006
                    68  8.084715638233600E-005
                    69  6.967645372296560E-012
                    70  6.902222499630410E-004
                    71  5.615594410468530E-006
                    72  1.066267801443390E-011
                    73 -2.070155688521320E-003
                    74  8.400899098149870E-005
                    75 -1.025645537392974E-005
                    76  1.640328990448240E-013
                    77  4.988849570534420E-006
                    78  2.724778371604680E-005
                    79 -1.890733819314930E-012
                    80  7.238278717681337E-004
                    81 -1.120612025705500E-012
                    82 -3.825051258255390E-004
                    83 -4.704911467119300E-005
                    84  6.126339407301960E-012
                    85  7.537426630035736E-005
                    86 -2.203042658924255E-012
                    87  4.409916988207652E-005
                    88 -1.316370571484256E-004
                    89  1.118557656230740E-012
                    90 -1.095961343113303E-012
                    91  4.691785110469220E-005
                    92  8.950569794280249E-003
                    93 -2.111208387145940E-003
                    94 -2.771337070166550E-004
                    95  3.026992507283250E-003
                    96  1.227668169554830E-011
                    97  1.415304735452470E-005
                    98  9.116867589844421E-005
                    99 -1.263002209894760E-011
                   100 -6.483198864432720E-004
                   101  3.892921968508580E-005
                   102  1.317971225152830E-012
                   103  2.072210843529580E-003
                   104  8.564277818702520E-005
                   105 -1.069461486781745E-005
                   106  5.204633938417190E-013
                   107 -9.210918522368140E-006
                   108  3.024741089172720E-005
                   109  6.875281762903660E-013
                   110  7.453083255652528E-004
                   111 -1.758528419687360E-012
                   112  3.766720324951130E-004
                   113 -3.666725255365720E-005
                   114  3.705553411267780E-013
                   115  7.402894872123164E-005
                   116  2.499509120629652E-012
                   117 -4.305860908027868E-005
                   118 -1.311933734997548E-004
                   119  4.310048036723590E-012
                   120 -1.911461545414263E-012
                   121 -4.600407062229623E-005
                   122 -1.944683001629210E-004
                   123 -6.979427310394440E-004
                   124  2.249339018027990E-004
                   125 -1.013120064219320E-004
                   126  1.282003254936200E-011
                   127 -4.630772923689220E-006
                   128 -3.260530118837920E-004
                   129 -9.608947407264670E-012
                   130 -5.091128630232970E-005
                   131  5.343209528887900E-004
                   132 -6.065034416560600E-012
                   133  3.188243139625060E-004
                   134  7.578566749259790E-004
                   135 -1.248111244451208E-005
                   136  1.061420204227360E-012
                   137  5.293185057314170E-005
                   138  1.452742987293648E-005
                   139 -2.907170950451300E-012
                   140 -2.805073165856361E-004
                   141 -4.941094935187950E-012
                   142 -1.895180548212100E-004
                   143 -6.117244161729700E-006
                   144 -5.566214943578120E-013
                   145  2.080765361696653E-006
                   146 -4.387868141413077E-012
                   147 -4.665788537675618E-005
                   148 -4.303185401652840E-005
                   149  3.762775421081770E-012
                   150 -2.206984002050783E-012
                   151 -5.060872815320520E-006
                   152 -1.704791877538230E-004
                   153 -6.942547817359850E-004
                   154  2.279879002003790E-004
                   155 -1.218918711723480E-004
                   156 -7.812166097519770E-012
                   157  3.652173641271210E-006
                   158 -3.301816554781980E-004
                   159  8.673161740663120E-012
                   160  4.067444799510920E-005