[Molden Format]
[Atoms] AU
  N     1    7     0.0000000000   -4.2907334100    0.0000000000        
  C     2    6     0.0000000000   -1.7772236300    0.0000000000        
  C     3    6    -2.3389203600   -0.4111016300    0.0000000000        
  C     4    6     2.3389203600   -0.4111016300    0.0000000000        
  C     5    6    -2.2998668500    2.1639215300    0.0000000000        
  C     6    6     2.2998668500    2.1639215300    0.0000000000        
  C     7    6     0.0000000000    3.4755251800    0.0000000000        
  H     8    1    -2.7341110200   -5.9774504400    0.0000000000        
  H     9    1     1.7691306600   -5.3821385500    0.0000000000        
  H    10    1    -4.0745407300   -1.4447408500    0.0000000000        
  H    11    1     4.0745407300   -1.4447408500    0.0000000000        
  H    12    1    -4.0420632100    3.1963889500    0.0000000000        
  H    13    1     4.0420632100    3.1963889500    0.0000000000        
  H    14    1     0.0000000000    5.5020335600    0.0000000000        
[5D]
[7F]
[GTO]
  1  0
   s    12 1.00
  0.114200D+05  0.172695D-04
  0.171200D+04  0.134411D-03
  0.389300D+03  0.694561D-03
  0.110000D+03  0.278531D-02
  0.355700D+02  0.863457D-02
  0.125400D+02  0.199805D-01
  0.464400D+01  0.262908D-01
  0.129300D+01 -0.243845D-01
  0.511800D+00 -0.924934D-01
  0.178700D+00 -0.339683D+00
  0.246240D-01  0.345111D+00
  0.112530D-01  0.752750D+00
   s    10 1.00
  0.114200D+05  0.523000D-03
  0.171200D+04  0.404500D-02
  0.389300D+03  0.207750D-01
  0.110000D+03  0.807269D-01
  0.355700D+02  0.233074D+00
  0.125400D+02  0.433501D+00
  0.464400D+01  0.347472D+00
  0.129300D+01  0.412620D-01
  0.511800D+00 -0.850799D-02
  0.178700D+00  0.238400D-02
   s    10 1.00
  0.114200D+05 -0.115000D-03
  0.171200D+04 -0.895000D-03
  0.389300D+03 -0.462400D-02
  0.110000D+03 -0.185280D-01
  0.355700D+02 -0.573390D-01
  0.125400D+02 -0.132076D+00
  0.464400D+01 -0.172510D+00
  0.129300D+01  0.151814D+00
  0.511800D+00  0.599944D+00
  0.178700D+00  0.387462D+00
   s     1 1.00
  0.129300D+01  0.100000D+01
   s     1 1.00
  0.178700D+00  0.100000D+01
   p     5 1.00
  0.266300D+02  0.146700D-01
  0.594800D+01  0.917640D-01
  0.174200D+01  0.298683D+00
  0.555000D+00  0.498487D+00
  0.172500D+00  0.337023D+00
   p     1 1.00
  0.174200D+01  0.100000D+01
   p     1 1.00
  0.555000D+00  0.100000D+01
   d     1 1.00
  0.165400D+01  0.100000D+01
   d     1 1.00
  0.469000D+00  0.100000D+01
   f     1 1.00
  0.109300D+01  0.100000D+01
  
  2  0
   s    10 1.00
  0.823600D+04  0.531000D-03
  0.123500D+04  0.410800D-02
  0.280800D+03  0.210870D-01
  0.792700D+02  0.818530D-01
  0.255900D+02  0.234817D+00
  0.899700D+01  0.434401D+00
  0.331900D+01  0.346129D+00
  0.905900D+00  0.393780D-01
  0.364300D+00 -0.898300D-02
  0.128500D+00  0.238500D-02
   s    10 1.00
  0.823600D+04 -0.113000D-03
  0.123500D+04 -0.878000D-03
  0.280800D+03 -0.454000D-02
  0.792700D+02 -0.181330D-01
  0.255900D+02 -0.557600D-01
  0.899700D+01 -0.126895D+00
  0.331900D+01 -0.170352D+00
  0.905900D+00  0.140382D+00
  0.364300D+00  0.598684D+00
  0.128500D+00  0.395389D+00
   s     1 1.00
  0.905900D+00  0.100000D+01
   s     1 1.00
  0.364300D+00  0.100000D+01
   p     5 1.00
  0.187100D+02  0.140310D-01
  0.413300D+01  0.868660D-01
  0.120000D+01  0.290216D+00
  0.382700D+00  0.501008D+00
  0.120900D+00  0.343406D+00
   p     1 1.00
  0.382700D+00  0.100000D+01
   p     1 1.00
  0.120900D+00  0.100000D+01
   d     1 1.00
  0.109700D+01  0.100000D+01
   d     1 1.00
  0.318000D+00  0.100000D+01
   f     1 1.00
  0.761000D+00  0.100000D+01
  
  3  0
   s    10 1.00
  0.823600D+04  0.531000D-03
  0.123500D+04  0.410800D-02
  0.280800D+03  0.210870D-01
  0.792700D+02  0.818530D-01
  0.255900D+02  0.234817D+00
  0.899700D+01  0.434401D+00
  0.331900D+01  0.346129D+00
  0.905900D+00  0.393780D-01
  0.364300D+00 -0.898300D-02
  0.128500D+00  0.238500D-02
   s    10 1.00
  0.823600D+04 -0.113000D-03
  0.123500D+04 -0.878000D-03
  0.280800D+03 -0.454000D-02
  0.792700D+02 -0.181330D-01
  0.255900D+02 -0.557600D-01
  0.899700D+01 -0.126895D+00
  0.331900D+01 -0.170352D+00
  0.905900D+00  0.140382D+00
  0.364300D+00  0.598684D+00
  0.128500D+00  0.395389D+00
   s     1 1.00
  0.905900D+00  0.100000D+01
   s     1 1.00
  0.364300D+00  0.100000D+01
   p     5 1.00
  0.187100D+02  0.140310D-01
  0.413300D+01  0.868660D-01
  0.120000D+01  0.290216D+00
  0.382700D+00  0.501008D+00
  0.120900D+00  0.343406D+00
   p     1 1.00
  0.382700D+00  0.100000D+01
   p     1 1.00
  0.120900D+00  0.100000D+01
   d     1 1.00
  0.109700D+01  0.100000D+01
   d     1 1.00
  0.318000D+00  0.100000D+01
   f     1 1.00
  0.761000D+00  0.100000D+01
  
  4  0
   s    10 1.00
  0.823600D+04  0.531000D-03
  0.123500D+04  0.410800D-02
  0.280800D+03  0.210870D-01
  0.792700D+02  0.818530D-01
  0.255900D+02  0.234817D+00
  0.899700D+01  0.434401D+00
  0.331900D+01  0.346129D+00
  0.905900D+00  0.393780D-01
  0.364300D+00 -0.898300D-02
  0.128500D+00  0.238500D-02
   s    10 1.00
  0.823600D+04 -0.113000D-03
  0.123500D+04 -0.878000D-03
  0.280800D+03 -0.454000D-02
  0.792700D+02 -0.181330D-01
  0.255900D+02 -0.557600D-01
  0.899700D+01 -0.126895D+00
  0.331900D+01 -0.170352D+00
  0.905900D+00  0.140382D+00
  0.364300D+00  0.598684D+00
  0.128500D+00  0.395389D+00
   s     1 1.00
  0.905900D+00  0.100000D+01
   s     1 1.00
  0.364300D+00  0.100000D+01
   p     5 1.00
  0.187100D+02  0.140310D-01
  0.413300D+01  0.868660D-01
  0.120000D+01  0.290216D+00
  0.382700D+00  0.501008D+00
  0.120900D+00  0.343406D+00
   p     1 1.00
  0.382700D+00  0.100000D+01
   p     1 1.00
  0.120900D+00  0.100000D+01
   d     1 1.00
  0.109700D+01  0.100000D+01
   d     1 1.00
  0.318000D+00  0.100000D+01
   f     1 1.00
  0.761000D+00  0.100000D+01
  
  5  0
   s    10 1.00
  0.823600D+04  0.531000D-03
  0.123500D+04  0.410800D-02
  0.280800D+03  0.210870D-01
  0.792700D+02  0.818530D-01
  0.255900D+02  0.234817D+00
  0.899700D+01  0.434401D+00
  0.331900D+01  0.346129D+00
  0.905900D+00  0.393780D-01
  0.364300D+00 -0.898300D-02
  0.128500D+00  0.238500D-02
   s    10 1.00
  0.823600D+04 -0.113000D-03
  0.123500D+04 -0.878000D-03
  0.280800D+03 -0.454000D-02
  0.792700D+02 -0.181330D-01
  0.255900D+02 -0.557600D-01
  0.899700D+01 -0.126895D+00
  0.331900D+01 -0.170352D+00
  0.905900D+00  0.140382D+00
  0.364300D+00  0.598684D+00
  0.128500D+00  0.395389D+00
   s     1 1.00
  0.905900D+00  0.100000D+01
   s     1 1.00
  0.364300D+00  0.100000D+01
   p     5 1.00
  0.187100D+02  0.140310D-01
  0.413300D+01  0.868660D-01
  0.120000D+01  0.290216D+00
  0.382700D+00  0.501008D+00
  0.120900D+00  0.343406D+00
   p     1 1.00
  0.382700D+00  0.100000D+01
   p     1 1.00
  0.120900D+00  0.100000D+01
   d     1 1.00
  0.109700D+01  0.100000D+01
   d     1 1.00
  0.318000D+00  0.100000D+01
   f     1 1.00
  0.761000D+00  0.100000D+01
  
  6  0
   s    10 1.00
  0.823600D+04  0.531000D-03
  0.123500D+04  0.410800D-02
  0.280800D+03  0.210870D-01
  0.792700D+02  0.818530D-01
  0.255900D+02  0.234817D+00
  0.899700D+01  0.434401D+00
  0.331900D+01  0.346129D+00
  0.905900D+00  0.393780D-01
  0.364300D+00 -0.898300D-02
  0.128500D+00  0.238500D-02
   s    10 1.00
  0.823600D+04 -0.113000D-03
  0.123500D+04 -0.878000D-03
  0.280800D+03 -0.454000D-02
  0.792700D+02 -0.181330D-01
  0.255900D+02 -0.557600D-01
  0.899700D+01 -0.126895D+00
  0.331900D+01 -0.170352D+00
  0.905900D+00  0.140382D+00
  0.364300D+00  0.598684D+00
  0.128500D+00  0.395389D+00
   s     1 1.00
  0.905900D+00  0.100000D+01
   s     1 1.00
  0.364300D+00  0.100000D+01
   p     5 1.00
  0.187100D+02  0.140310D-01
  0.413300D+01  0.868660D-01
  0.120000D+01  0.290216D+00
  0.382700D+00  0.501008D+00
  0.120900D+00  0.343406D+00
   p     1 1.00
  0.382700D+00  0.100000D+01
   p     1 1.00
  0.120900D+00  0.100000D+01
   d     1 1.00
  0.109700D+01  0.100000D+01
   d     1 1.00
  0.318000D+00  0.100000D+01
   f     1 1.00
  0.761000D+00  0.100000D+01
  
  7  0
   s    10 1.00
  0.823600D+04  0.531000D-03
  0.123500D+04  0.410800D-02
  0.280800D+03  0.210870D-01
  0.792700D+02  0.818530D-01
  0.255900D+02  0.234817D+00
  0.899700D+01  0.434401D+00
  0.331900D+01  0.346129D+00
  0.905900D+00  0.393780D-01
  0.364300D+00 -0.898300D-02
  0.128500D+00  0.238500D-02
   s    10 1.00
  0.823600D+04 -0.113000D-03
  0.123500D+04 -0.878000D-03
  0.280800D+03 -0.454000D-02
  0.792700D+02 -0.181330D-01
  0.255900D+02 -0.557600D-01
  0.899700D+01 -0.126895D+00
  0.331900D+01 -0.170352D+00
  0.905900D+00  0.140382D+00
  0.364300D+00  0.598684D+00
  0.128500D+00  0.395389D+00
   s     1 1.00
  0.905900D+00  0.100000D+01
   s     1 1.00
  0.364300D+00  0.100000D+01
   p     5 1.00
  0.187100D+02  0.140310D-01
  0.413300D+01  0.868660D-01
  0.120000D+01  0.290216D+00
  0.382700D+00  0.501008D+00
  0.120900D+00  0.343406D+00
   p     1 1.00
  0.382700D+00  0.100000D+01
   p     1 1.00
  0.120900D+00  0.100000D+01
   d     1 1.00
  0.109700D+01  0.100000D+01
   d     1 1.00
  0.318000D+00  0.100000D+01
   f     1 1.00
  0.761000D+00  0.100000D+01
  
  8  0
   s     4 1.00
  0.130100D+02  0.196850D-01
  0.196200D+01  0.137977D+00
  0.444600D+00  0.478148D+00
  0.122000D+00  0.501240D+00
   s     1 1.00
  0.122000D+00  0.100000D+01
   p     1 1.00
  0.727000D+00  0.100000D+01
  
  9  0
   s     4 1.00
  0.130100D+02  0.196850D-01
  0.196200D+01  0.137977D+00
  0.444600D+00  0.478148D+00
  0.122000D+00  0.501240D+00
   s     1 1.00
  0.122000D+00  0.100000D+01
   p     1 1.00
  0.727000D+00  0.100000D+01
  
 10  0
   s     4 1.00
  0.130100D+02  0.196850D-01
  0.196200D+01  0.137977D+00
  0.444600D+00  0.478148D+00
  0.122000D+00  0.501240D+00
   s     1 1.00
  0.122000D+00  0.100000D+01
   p     1 1.00
  0.727000D+00  0.100000D+01
  
 11  0
   s     4 1.00
  0.130100D+02  0.196850D-01
  0.196200D+01  0.137977D+00
  0.444600D+00  0.478148D+00
  0.122000D+00  0.501240D+00
   s     1 1.00
  0.122000D+00  0.100000D+01
   p     1 1.00
  0.727000D+00  0.100000D+01
  
 12  0
   s     4 1.00
  0.130100D+02  0.196850D-01
  0.196200D+01  0.137977D+00
  0.444600D+00  0.478148D+00
  0.122000D+00  0.501240D+00
   s     1 1.00
  0.122000D+00  0.100000D+01
   p     1 1.00
  0.727000D+00  0.100000D+01
  
 13  0
   s     4 1.00
  0.130100D+02  0.196850D-01
  0.196200D+01  0.137977D+00
  0.444600D+00  0.478148D+00
  0.122000D+00  0.501240D+00
   s     1 1.00
  0.122000D+00  0.100000D+01
   p     1 1.00
  0.727000D+00  0.100000D+01
  
 14  0
   s     4 1.00
  0.130100D+02  0.196850D-01
  0.196200D+01  0.137977D+00
  0.444600D+00  0.478148D+00
  0.122000D+00  0.501240D+00
   s     1 1.00
  0.122000D+00  0.100000D+01
   p     1 1.00
  0.727000D+00  0.100000D+01
  
[MO]
 Sym= __1_a__
 Ene=  0.000000000000000E+000
 Spin= Alpha
 Occup=    2.00000000000000     
                     1  6.551535452599331E-005
                     2  0.998473987562701     
                     3  2.015510125251900E-003
                     4  1.649443795000640E-003
                     5  4.721881010144220E-003
                     6  3.117237391289310E-003
                     7  5.829939581866210E-003
                     8  1.000333754963140E-011
                     9 -6.613169023660450E-004
                    10 -4.338652072825020E-004
                    11 -8.070936670379210E-013
                    12 -2.343754092018610E-003
                    13 -1.375030468291530E-003
                    14 -9.595294698773159E-012
                    15 -9.666187683316107E-005
                    16 -8.611961987714870E-013
                    17 -1.846310879478160E-012
                    18 -2.217559573338020E-004
                    19 -7.625687334566300E-005
                    20  2.029250937602517E-004
                    21 -2.565015571717640E-012
                    22  1.941456286328350E-013
                    23 -2.305407525734820E-004
                    24  6.132828800461390E-004
                    25  6.977047309192469E-014
                    26  8.517305334781342E-006
                    27 -5.802637576928174E-005
                    28  8.049509881546380E-013
                    29  8.016877347775269E-014
                    30  2.374685031381985E-005
                    31 -1.104691577458523E-004
                    32 -3.122127838583550E-004
                    33  1.362004949787950E-003
                    34  2.491287594259190E-004
                    35 -2.477777496391520E-004
                    36 -1.709986664426380E-004
                    37 -4.721088146445910E-003
                    38  3.070921414448500E-012
                    39  5.082745248094250E-004
                    40  2.201939532549590E-004
                    41 -3.873467443415470E-012
                    42 -2.121505363960100E-003
                    43  5.162012650635580E-003
                    44 -4.852382847389070E-012
                    45 -2.361395805493961E-005
                    46  8.718069369564930E-013
                    47  7.072762301877620E-013
                    48 -2.410766869041680E-004
                    49 -1.111558734096980E-005
                    50 -2.672260880831498E-004
                    51 -5.385691282608260E-012
                    52 -2.037811611606880E-012
                    53  6.113679230791400E-005
                    54  8.533809351228210E-004
                    55 -2.055802519258964E-012
                    56 -1.416922187384424E-005
                    57 -4.778061616616275E-005
                    58  2.372617300095620E-012
                    59 -6.881453955291540E-013
                    60 -1.353558616431873E-005
                    61 -1.198859869205481E-004
                    62 -4.738613862074650E-004
                    63 -2.202613343693080E-003
                    64 -9.171146927521910E-005
                    65  2.054225514591920E-003
                    66 -6.921689580607490E-004
                    67  4.993449869549179E-004
                    68 -1.250037879453780E-011
                    69  4.722040918033490E-004
                    70  7.834098413831100E-004
                    71  6.773102924130890E-012
                    72 -1.630330610078810E-003
                    73  7.029693710996110E-004
                    74  4.099120213633260E-012
                    75 -4.046729740559028E-005
                    76 -2.101569985452550E-012
                    77  2.005796074438810E-012
                    78 -8.468215448933860E-005
                    79 -3.206579109016780E-005
                    80 -1.387057560902399E-004
                    81 -5.087565968654330E-012
                    82 -6.145784642481740E-012
                    83  1.155535639205820E-004
                    84  1.063636878851940E-004
                    85  2.959082199099143E-012
                    86  1.045648369147032E-005
                    87 -4.630496269064627E-005
                    88  2.888721459120840E-012
                    89  1.245623390132810E-012
                    90 -1.632918146071491E-005
                    91 -1.499441521181966E-004
                    92 -1.177336915757990E-004
                    93 -9.595037444234820E-004
                    94  2.137079694563630E-004
                    95 -3.810302608830840E-004
                    96  5.499012677176280E-004
                    97  6.455671375115370E-004
                    98  7.166211188130920E-012
                    99  4.506764771301200E-004
                   100  3.175328571398100E-004
                   101  1.407417487205860E-012
                   102  4.697974597423600E-004
                   103 -1.358992851670290E-003
                   104  4.184091892726190E-012
                   105 -1.437143848536051E-006
                   106  1.924651277107670E-012
                   107 -2.542304230370520E-012
                   108 -6.522806791683101E-005
                   109 -1.935116541001390E-005
                   110  1.330091730331173E-004
                   111 -4.169828527013810E-012
                   112  3.414135320012740E-012
                   113 -1.374549008938404E-004
                   114 -6.165472016871010E-005
                   115  1.975148292264036E-012
                   116 -2.435416099281202E-005
                   117 -3.030121348753787E-005
                   118 -2.217023202565480E-012
                   119 -1.547977967073270E-012
                   120  1.450039587768172E-005
                   121 -2.354293786717471E-005
                   122 -2.551267598147450E-004
                   123 -5.001416026191279E-004
                   124  1.683638047548910E-004
                   125  3.621872338101140E-004
                   126 -6.922007556996310E-006
                   127 -5.494090046736871E-004
                   128 -1.917034896600130E-011
                   129  1.711812591877280E-004
                   130  5.842417266135460E-004
                   131  1.447358580194280E-011
                   132  3.372507399536740E-004
                   133  1.915070501981080E-003
                   134  6.089100762208390E-013
                   135  1.249279278198865E-005
                   136 -1.970497480342560E-012
                   137  3.275435109453430E-013
                   138  4.197411109997160E-005
                   139  6.587725974768060E-007
                   140  1.966406175103974E-004
                   141 -1.164503795993680E-012
                   142 -6.736190297645690E-012
                   143  3.430944802873780E-004
                   144  2.524971513273100E-004
                   145 -1.590970406132843E-012
                   146 -8.183623574892232E-006
                   147 -5.933172606757711E-005
                   148  2.115219878960660E-012
                   149  8.996244265406970E-013
                   150 -2.029661009551717E-005
                   151 -4.822428157012895E-005
                   152 -1.711454901246310E-004
                   153 -2.478611763277450E-004
                   154  3.493771929451030E-005
                   155  3.713125469934560E-004
                   156 -2.871243271553130E-005
                   157 -4.738443905615620E-004
                   158 -2.149360163963610E-013
                   159  1.455349134703390E-005
                   160  5.169464634154870E-005
                   161 -1.075855590939250E-011
                   162  6.829012823985960E-004
                   163 -2.352796614894500E-004
                   164 -3.172714332051700E-012
                   165 -2.790036205745412E-006
                   166 -1.128801276562570E-012
                   167  7.105213032635820E-013
                   168 -8.067822439583539E-006
                   169  4.759366044669510E-006
                   170  5.536723405627466E-005
                   171  1.199239159697020E-012
                   172  1.349502626132900E-012
                   173  1.302806060395872E-005
                   174 -3.184176745391000E-005
                   175 -4.794956500110870E-013
                   176  4.460942511455869E-006
                   177 -7.634862370546944E-006
                   178  2.007046660334400E-012
                   179 -6.930489637721070E-013
                   180 -2.312649169486379E-005
                   181 -7.256804564395497E-006
                   182 -1.611119745372410E-004
                   183 -4.577602909770180E-004
                   184  4.643964510816450E-005
                   185  2.294282235916760E-004
                   186 -3.575900887618840E-005
                   187 -5.343445190198430E-005
                   188 -7.065788962111690E-012
                   189  1.884154797356460E-004
                   190  6.055527988439940E-005
                   191  8.970049720685240E-012
                   192  1.212932051111400E-003
                   193 -1.474813228682230E-004
                   194  1.164166876539450E-012
                   195 -1.073192066542449E-006
                   196  1.257207464349130E-013
                   197  2.491862626139610E-012
                   198 -1.377588816356348E-005
                   199  6.911089394893240E-006
                   200  1.829329387510502E-005
                   201 -5.183991383327980E-012
                   202 -5.181807536057070E-012
                   203 -8.332744960273279E-005
                   204 -1.672315759338120E-004
                   205 -2.285154434172122E-012
                   206 -4.839057025099839E-006
                   207 -5.596281657586879E-006
                   208  8.069865273418679E-012
                   209  9.774166292849710E-014
                   210  1.000568038562435E-005
                   211 -4.601369907101819E-006
                   212  2.012989981424280E-005
                   213  6.697526364573291E-005
                   214  9.452379280138040E-005
                   215  1.077031933215640E-004
                   216 -1.029880662850530E-012
                   217  7.931708166183740E-004
                   218 -1.229429552524790E-003
                   219 -4.257668140536120E-004
                   220  2.147128573057740E-004
                   221  1.248136897061850E-012
                   222 -4.519362163369950E-004
                   223 -5.915047309439750E-004
                   224  5.986620147436040E-006
                   225 -7.056551424028200E-005
                   226 -7.718472652861869E-012
                   227 -2.569031124293110E-004
                   228 -4.420575761369820E-004
                   229 -4.107617672352400E-006
                   230 -1.488101918698350E-005
                   231  5.199436707159800E-013
                   232 -7.432895663991669E-005
                   233 -5.434403934193350E-004
                   234  5.165494758130860E-006
                   235 -1.402449295840120E-006
                   236  1.782133372136390E-012
                   237 -1.667412117536850E-004
                   238 -3.867717296920180E-004
                   239  7.672164007106460E-006
                   240  3.699790928211150E-006
                   241  1.746785923483970E-012
                   242  1.517887250256700E-005
                   243 -3.420370977310430E-005
                   244 -6.676382356673630E-007
                   245  2.150713036836910E-005
                   246  1.978347575670500E-012
 Sym= __2_a__
 Ene=  0.000000000000000E+000
 Spin= Alpha
 Occup=    2.00000000000000     
                     1 -4.978861431914370E-005
                     2 -3.308565959738840E-004
                     3  2.791336345433900E-003
                     4  1.500369697102520E-004
                     5  1.344682540402810E-003
                     6 -2.958363670758860E-004
                     7  2.963398566879320E-003
                     8 -4.095921591102210E-012
                     9 -6.639186008597319E-005
                    10 -1.083559933464700E-004
                    11  1.707426947093950E-013
                    12  9.304362234691839E-005
                    13 -4.259572497929710E-004
                    14 -1.462151701337650E-012
                    15  3.326356765437881E-005
                    16 -3.289980596753620E-014
                    17  1.284488655855630E-012
                    18 -4.852404166142060E-005
                    19  8.833223506986431E-006
                    20 -1.203105663509643E-004
                    21  7.137629459880480E-013
                    22  1.123954151082010E-012
                    23  1.611804613247002E-004
                    24 -1.484802232478850E-005
                    25 -3.653388590840878E-012
                    26 -1.756630389163487E-005
                    27  8.871015220461792E-005
                    28  2.979744043571180E-012
                    29  3.757097611018140E-013
                    30 -1.714705850663751E-005
                    31  1.458908756156192E-004
                    32   1.00102929380933     
                    33  9.320537458530139E-003
                    34  2.718924291853100E-003
                    35 -8.123605275036460E-003
                    36 -1.132748844217720E-004
                    37 -3.589464083812770E-003
                    38 -3.131609162560730E-012
                    39  1.316321597506640E-004
                    40  4.428740714666310E-004
                    41 -1.962203584892700E-014
                    42  3.980030237848310E-005
                    43  4.226348770752370E-003
                    44 -9.502237755410830E-012
                    45 -5.677404262670495E-004
                    46  9.662874320063881E-013
                    47  6.400974009407970E-014
                    48 -1.987429321611540E-004
                    49 -5.787960674233030E-006
                    50  5.485417257401300E-004
                    51 -5.040878498937110E-012
                    52 -3.358224885891860E-012
                    53 -9.056020652546420E-004
                    54  6.040034078716290E-005
                    55  8.925530088510195E-013
                    56 -4.119420520222963E-006
                    57  9.382674315286960E-005
                    58 -1.229952038053504E-012
                    59 -1.634012916576960E-012
                    60  2.103540739478922E-006
                    61  4.005508774747545E-004
                    62  9.096007851733350E-003
                    63 -2.087187162490650E-003
                    64 -2.970302609993440E-004
                    65  3.075163948776820E-003
                    66 -1.886479522368400E-005
                    67  1.104619196645630E-004
                    68 -8.060564791641470E-012
                    69  7.384546582367471E-004
                    70 -1.203151199681220E-005
                    71  4.155747483525800E-012
                    72 -2.060015563434880E-003
                    73  7.171568233565080E-005
                    74  4.937821788784090E-012
                    75  2.597879651251329E-005
                    76 -1.645729364965170E-012
                    77 -1.641715625097180E-013
                    78 -2.386096726457400E-006
                    79  9.220013433175100E-007
                    80 -4.111154625470450E-004
                    81 -2.027683198488270E-012
                    82 -1.481345340427290E-012
                    83 -5.841466413235960E-004
                    84 -3.779360198086920E-004
                    85 -1.163173595988535E-012
                    86  3.312625293884188E-005
                    87 -5.903314277168401E-005
                    88 -2.214757028773040E-012
                    89 -1.849675419446710E-013
                    90  5.160530365155907E-005
                    91  1.406974334031720E-004
                    92  9.804264972508390E-003
                    93 -2.065316872391580E-003
                    94 -2.820576433268180E-004
                    95  3.021284887697260E-003
                    96  9.626351365769390E-006
                    97  7.647435398098690E-005
                    98  7.257686453455180E-012
                    99 -6.617080320504239E-004
                   100  4.868101642792510E-005
                   101 -5.750370331941660E-012
                   102  2.039402450755410E-003
                   103  6.095482612430880E-005
                   104  9.312130852273631E-012
                   105  3.057671671511784E-005
                   106  2.436751454567960E-012
                   107 -1.320217660357080E-012
                   108 -4.537500376243380E-006
                   109 -7.480373084798880E-006
                   110 -4.116262413835630E-004
                   111 -6.529071768822230E-012
                   112  1.476742600635690E-012
                   113 -6.162365711028400E-004
                   114  3.682000820038890E-004
                   115  7.104434778927686E-013
                   116 -3.206721568910882E-005
                   117 -5.964490555355510E-005
                   118  7.354033056161920E-013
                   119 -1.716716700598820E-012
                   120 -4.938098056181005E-005
                   121  1.366505997353151E-004
                   122 -1.554850424338280E-004
                   123 -6.722561333473760E-004
                   124  2.243269864709400E-004
                   125 -1.018494366629720E-004
                   126 -2.804303272722100E-006
                   127 -3.380451467535810E-004
                   128 -1.011541430624070E-011
                   129 -6.193891827696321E-005
                   130  5.353406770349020E-004
                   131  6.734901788502560E-012
                   132  3.197265193686520E-004
                   133  7.604146202762410E-004
                   134  1.531986636638890E-012
                   135  1.863122331083566E-005
                   136  3.558714232988460E-013
                   137 -1.887686565530310E-012
                   138  3.722940293037720E-006
                   139  5.267573576784630E-005
                   140  1.368598810087060E-004
                   141  1.140423623687160E-012
                   142  8.410055241516140E-013
                   143  2.409866807185520E-004
                   144 -1.804118589176460E-004
                   145  1.175532354060235E-012
                   146  7.242418479737773E-006
                   147 -3.369893454210045E-005
                   148  1.346889938827450E-012
                   149 -2.037250769225500E-012
                   150 -4.775778471411535E-005
                   151  2.874466361367430E-005
                   152 -1.353645619655420E-004
                   153 -6.792754590757750E-004
                   154  2.298453164218560E-004
                   155 -1.361450328900220E-004
                   156  1.303915429291250E-006
                   157 -3.294827938477200E-004
                   158  7.981605286232910E-012
                   159  4.588002549583490E-005
                   160  5.645965053153320E-004