===========================================================
===                   runc                              ===
===           version 7.0.2 , April 2021              ===
===          requires COLUMBUS version Col_7.0.2        ===
===                                                     ===
===   written by: Thomas Mueller                        ===
===   gradient ext. by: Michal Dallos                   ===
===               University of Vienna                  ===
===   maintained by: Felix Plasser                      ===
===               Loughborough University               ===
===========================================================


coremem. (seq.): 200000 MB,  coremem. (par.): 19000 MB
Vdisk size: 0 DP
Reading job control file control.run ... 
 ****** This is an 2c-QDPT MRCISD calculation ****** 
 model space size=4:0:4
SMOLCAS=/home-4/yshen57@jhu.edu/Software/Chemistry/Columbus-7.0.2_OpenMolcas-18.09-col/OpenMolcas/build
Found serial Molcas Installation at /home-4/yshen57@jhu.edu/Software/Chemistry/Columbus-7.0.2_OpenMolcas-18.09-col/OpenMolcas/build
  done 
INFO: keywords nadcoupl and seward are supported for DCI mode only!
seward specified, using also alaska
Creating various directories ... 
 done 
SMOLCAS=/home-4/yshen57@jhu.edu/Software/Chemistry/Columbus-7.0.2_OpenMolcas-18.09-col/OpenMolcas/build
PMOLCAS=
Checking for illegal keywords and keyword combinations ... done 

 Nonadiabatic coupling term calculation type: DCI+DCSF
  States involved in calcualtion:
   DRT1,state1;  DRT1,state2
   DRT1,state1;  DRT1,state3
   DRT1,state1;  DRT1,state4
   DRT1,state2;  DRT1,state3
   DRT1,state2;  DRT1,state4
   DRT1,state3;  DRT1,state4
   DRT2,state1;  DRT2,state2
   DRT2,state1;  DRT2,state3
   DRT2,state1;  DRT2,state4
   DRT2,state2;  DRT2,state3
   DRT2,state2;  DRT2,state4
   DRT2,state3;  DRT2,state4

Additional gradients computed:
   DRT1,state1
   DRT1,state2
   DRT1,state3
   DRT1,state4
   DRT2,state1
   DRT2,state2
   DRT2,state3
   DRT2,state4

Checking for complete set of input files ... 
mcscf calculation without preceeding scf calculation 
will use 
 /scratch/users/yshen57@jhu.edu/Molcas/linear-path/1.1-fast-slow/4/mrci/mocoef as starting MOs 
Performing coupled non-rel. SO-CI calculation, nrroots: 4 0 4
starting cidrt.x   -m 200000 < cidrtin > temp at Wed Jun  1 11:23:59 EDT 2022

 -------------------- cidrt.x ------------------------
 spatial symmetry:  
 total number of configurations          0
 number of reference configurations     0
 --------------------------------------------------- 
 Preparing SO cidrtin files for 1 symmetries
cat ../cidrtin | sed -e 's/^.*input the molecular spatial symmetry/1 \/ molsym/' > cidrtin.so_A 
calling cidrt.x -m 200000 < cidrtin.so_A > cidrtls.soci_A ...
Checking the DRTs for consistency ...
calling reindex.x -i 1 -m 200000  ...
done

 ++++++++++++++++++ input file generation +++++++++++++ 
 runc start: Wed Jun  1 11:24:21 EDT 2022
 
  runc start: Wed Jun  1 11:24:21 EDT 2022
 
 starting unik.gets.x > unikls at Wed Jun  1 11:24:21 EDT 2022

 -------------------- unik.gets.x ------------------------
 --------------------------------------------------- 
 ++++++++++++++++++++ ao integral calculation ++++++++++++++++
starting pymolcas molcas.input.seward > molcas.output.seward  at Wed Jun  1 11:24:21 EDT 2022

Generating link ln -s ./molcas.OrdInt ORDINT 
 -------------------- seward ------------------------
      Basis set label: N.ANILINE.........
      Basis set label: C.ANILINE.........
      Basis set label: H.ANILINE.........
  Nuclear Coordinates in                   atomic units                                   Angstrom 
     Center  Label                x              y              z                     x              y              z
        1      N1              -0.016949      -4.370300       0.276701             -0.008969      -2.312663       0.146424
        2      C2              -0.017817      -1.775949       0.102566             -0.009428      -0.939792       0.054276
        3      C3              -2.325152      -0.421813       0.055134             -1.230417      -0.223214       0.029175
        4      C4               2.288669      -0.418491       0.070264              1.211112      -0.221456       0.037182
        5      C5              -2.299782       2.170990      -0.026351             -1.216992       1.148838      -0.013944
        6      C6               2.259982       2.174500      -0.010049              1.195931       1.150696      -0.005318
        7      C7              -0.020679       3.490601      -0.059204             -0.010943       1.847147      -0.031329
        8      H8              -1.739681      -5.440215      -0.179880             -0.920599      -2.878838      -0.095189
        9      H9               1.579293      -5.397725      -0.122704              0.835726      -2.856353      -0.064932
       10      H10             -4.072205      -1.442536       0.085424             -2.154918      -0.763357       0.045204
       11      H11              4.037702      -1.435817       0.109752              2.136660      -0.759802       0.058078
       12      H12             -4.053136       3.187685      -0.065728             -2.144827       1.686850      -0.034782
       13      H13              4.011700       3.194215      -0.037315              2.122900       1.690306      -0.019746
       14      H14             -0.021907       5.516765      -0.123407             -0.011593       2.919346      -0.065304
 
            Nuclear Potential Energy            271.78062524 au
 --------------------------------------------------- 
  >>>>>>>>>>>>> info: preparing drt no 1 out of 1 <<<<<<
starting mcdrt.x -m 200000 < mcdrtin > mcdrtls at Wed Jun  1 11:29:51 EDT 2022

 -------------------- mcdrt.x ------------------------
  Spin multiplicity: singlet 
  Spatial symmetry (#): 1
  Number of Configurations:       1275 
  --------------------------------------------------- 
 starting mcuft.x at Wed Jun  1 11:29:51 EDT 2022

 -------------------- mcuft.x ------------------------
 --------------------------------------------------- 
 ++++++++++++++++++++ MCSCF calculation +++++++++++++++
info: taking mocoef file from /scratch/users/yshen57@jhu.edu/Molcas/linear-path/1.1-fast-slow/4/mrci/mocoef
adding flag 30 to mcscfin
Writing mcdenin files for mcscf.x for 1 DRTs
adding flag 26 to mcscfin
starting mcscf.x -m 200000 at Wed Jun  1 11:29:51 EDT 2022

 -------------------- mcscf.x ------------------------
 Individual total energies for all states: 
    DRT #1 state # 1 wt 0.250 total energy=     -285.898916988, rel. (eV)=   0.000000
    DRT #1 state # 2 wt 0.250 total energy=     -285.701735356, rel. (eV)=   5.365587
    DRT #1 state # 3 wt 0.250 total energy=     -285.669031497, rel. (eV)=   6.255505
    DRT #1 state # 4 wt 0.250 total energy=     -285.629776700, rel. (eV)=   7.323683
  --------------------------------------------------- 
 starting mcpc.x -m 200000 < mcpcin > mcpcls at Wed Jun  1 11:32:54 EDT 2022

 -------------------- mcpc.x ------------------------
 --------------------------------------------------- 
 starting mcpc.x -m 200000 < mcpcin > mcpcls at Wed Jun  1 11:32:54 EDT 2022

 -------------------- mcpc.x ------------------------
 --------------------------------------------------- 
 starting mcpc.x -m 200000 < mcpcin > mcpcls at Wed Jun  1 11:32:54 EDT 2022

 -------------------- mcpc.x ------------------------
 --------------------------------------------------- 
 starting mcpc.x -m 200000 < mcpcin > mcpcls at Wed Jun  1 11:32:54 EDT 2022

 -------------------- mcpc.x ------------------------
 --------------------------------------------------- 
 
========= state properties for state-averaged MCSCF =========
mcscf.drt1.st01.sp
starting exptvl.x -m 200000   at Wed Jun  1 11:32:54 EDT 2022

 -------------------- exptvl.x ------------------------
  === dipole moment === 
                     X               Y               Z   
   orign x       0.00000000      0.00000000      0.00000000
   orign y       0.00000000      0.00000000      0.00000000
   orign z       0.00000000      0.00000000      0.00000000
   nuclear      -1.06554789     -1.09070095      2.39721016
   electronic    1.04608856      0.21850504     -2.66473652
   total        -0.01945933     -0.87219591     -0.26752636
   total Dipole moment =   2.31937168    Debye
 --------------------------------------------------- 
 mcscf.drt1.st02.sp
starting exptvl.x -m 200000   at Wed Jun  1 11:32:54 EDT 2022

 -------------------- exptvl.x ------------------------
  === dipole moment === 
                     X               Y               Z   
   orign x       0.00000000      0.00000000      0.00000000
   orign y       0.00000000      0.00000000      0.00000000
   orign z       0.00000000      0.00000000      0.00000000
   nuclear      -1.06554789     -1.09070095      2.39721016
   electronic    1.07542040      4.56566243     -2.76647601
   total         0.00987251      3.47496148     -0.36926585
   total Dipole moment =   8.88224437    Debye
 --------------------------------------------------- 
 mcscf.drt1.st03.sp
starting exptvl.x -m 200000   at Wed Jun  1 11:32:54 EDT 2022

 -------------------- exptvl.x ------------------------
  === dipole moment === 
                     X               Y               Z   
   orign x       0.00000000      0.00000000      0.00000000
   orign y       0.00000000      0.00000000      0.00000000
   orign z       0.00000000      0.00000000      0.00000000
   nuclear      -1.06554789     -1.09070095      2.39721016
   electronic    1.04912056     -0.20734281     -2.61494916
   total        -0.01642733     -1.29804376     -0.21773900
   total Dipole moment =   3.34565791    Debye
 --------------------------------------------------- 
 mcscf.drt1.st04.sp
starting exptvl.x -m 200000   at Wed Jun  1 11:32:55 EDT 2022

 -------------------- exptvl.x ------------------------
  === dipole moment === 
                     X               Y               Z   
   orign x       0.00000000      0.00000000      0.00000000
   orign y       0.00000000      0.00000000      0.00000000
   orign z       0.00000000      0.00000000      0.00000000
   nuclear      -1.06554789     -1.09070095      2.39721016
   electronic    1.07588736      5.53062358     -2.83358534
   total         0.01033947      4.43992263     -0.43637518
   total Dipole moment =  11.33957475    Debye
 --------------------------------------------------- 
  using the MCSCF MOs ... 
starting cidrt.x  -m 200000 < cidrtin.1 > cidrtls at Wed Jun  1 11:32:55 EDT 2022

 -------------------- cidrt.x ------------------------
 total number of orbitals            :   246
 number of frozen core orbitals      :    18
 number of frozen virtual orbitals   :     0
 number of internal orbitals         :    14
 number of external orbitals         :   214
 spatial symmetry:   a  
 
 total number of configurations  158587185
 number of reference configurations  1275
 --------------------------------------------------- 
 starting cidrt.x  -m 200000 < cidrtin.2 > cidrtls at Wed Jun  1 11:32:57 EDT 2022

 -------------------- cidrt.x ------------------------
 total number of orbitals            :   246
 number of frozen core orbitals      :    18
 number of frozen virtual orbitals   :     0
 number of internal orbitals         :    14
 number of external orbitals         :   214
 spatial symmetry:   a  
 
 total number of configurations  282461366
 number of reference configurations  1666
 --------------------------------------------------- 
 starting tran.x -m 200000  at Wed Jun  1 11:33:00 EDT 2022

 -------------------- tran.x ------------------------
 --------------------------------------------------- 
  Starting ciudgav with DRT # 1 out of 2 

 *** starting pciudg section *** 
nproc: 48 machinefile:  
assuming machinefile syntax: one host name per line optionally repeated
 section2, MPI_STARTUP:
 /software/apps/mpi/openmpi/3.1/intel/18.0/bin/mpirun -np 48  /home-4/yshen57@jhu.edu/Software/Chemistry/Columbus-7.0.2_OpenMolcas-18.09-col/Columbus/pciudg.x -m 19000 
 -------------------- pciudg.x ------------------------
 type of calculation:          mr-sdci
 number of configurations:     158587185
 total mr-sdci energy             -286.0966525692 
 last mr-sdci energy change           0.0000000000 
 residual                             0.0000060388 
  type of calculation:          mr-sdci
 number of configurations:     158587185
 total mr-sdci energy             -285.9368224107 
 last mr-sdci energy change           0.0000000000 
 residual                             0.0000051683 
  type of calculation:          mr-sdci
 number of configurations:     158587185
 total mr-sdci energy             -285.9141992694 
 last mr-sdci energy change           0.0000000000 
 residual                             0.0000070601 
  type of calculation:          mr-sdci
 number of configurations:     158587185
 total mr-sdci energy             -285.8655759407 
 last mr-sdci energy change           0.0000000000 
 residual                             0.0000088788 
  --------------------------------------------------- 
 keyinfile returned docipci=0:
starting cipc.x -m 200000 < cipcin > cipcls at Thu Jun  2 05:15:58 EDT 2022

 -------------------- cipc.x ------------------------
 --------------------------------------------------- 
  Starting ciudgav with DRT # 2 out of 2 

 *** starting pciudg section *** 
nproc: 48 machinefile:  
assuming machinefile syntax: one host name per line optionally repeated
 section2, MPI_STARTUP:
 /software/apps/mpi/openmpi/3.1/intel/18.0/bin/mpirun -np 48  /home-4/yshen57@jhu.edu/Software/Chemistry/Columbus-7.0.2_OpenMolcas-18.09-col/Columbus/pciudg.x -m 19000 
 -------------------- pciudg.x ------------------------
 type of calculation:          mr-sdci
 number of configurations:     282461366
 total mr-sdci energy             -285.9468421464 
 last mr-sdci energy change           0.0000000000 
 residual                             0.0000063855 
  type of calculation:          mr-sdci
 number of configurations:     282461366
 total mr-sdci energy             -285.9390606872 
 last mr-sdci energy change          -0.0000000000 
 residual                             0.0000062877 
  type of calculation:          mr-sdci
 number of configurations:     282461366
 total mr-sdci energy             -285.9304560565 
 last mr-sdci energy change           0.0000000000 
 residual                             0.0000054007 
  type of calculation:          mr-sdci
 number of configurations:     282461366
 total mr-sdci energy             -285.9107849407 
 last mr-sdci energy change           0.0000000000 
 residual                             0.0000069992 
  --------------------------------------------------- 
 keyinfile returned docipci=0:
starting cipc.x -m 200000 < cipcin > cipcls at Fri Jun  3 22:04:59 EDT 2022

 -------------------- cipc.x ------------------------
 --------------------------------------------------- 
 Reindex call
run_socinr: imult=1 irrep=1 
opening file =ciudgls.drt1.sp
opening file =ciudgls.drt1.sp
opening file =ciudgls.drt1.sp
opening file =ciudgls.drt1.sp
run_socinr: imult=3 irrep=1 
opening file =ciudgls.drt2.sp
opening file =ciudgls.drt2.sp
opening file =ciudgls.drt2.sp
opening file =ciudgls.drt2.sp
 copying /scratch/users/yshen57@jhu.edu/Molcas/linear-path/1.1-fast-slow/4/mrci/cidrtfl.so__A --> cidrtfl.so__A 
 copying /scratch/users/yshen57@jhu.edu/Molcas/linear-path/1.1-fast-slow/4/mrci/cidrtfl.so__A --> cidrtfl.so__A 
starting reindex.x -m 200000 > reindexls at Fri Jun  3 22:05:19 EDT 2022

 -------------------- reindex.x ------------------------
 --------------------------------------------------- 
 1      1        1           civfl_1_A             1      1    0+       1             1         civfl.so__A
1      1        2           civfl_1_A             1      1    0+       2    1005971284         civfl.so__A
1      1        3           civfl_1_A             1      1    0+       3    2011942567         civfl.so__A
1      1        4           civfl_1_A             1      1    0+       4    3017913850         civfl.so__A
3      1        1           civfl_3_A             1      3    0+       5    4023885133         civfl.so__A
3      1        1           civfl_3_A             1      3    1+       6    5029856416         civfl.so__A
3      1        1           civfl_3_A             1      3    1-       7    6035827699         civfl.so__A
3      1        2           civfl_3_A             1      3    0+       8    7041798982         civfl.so__A
3      1        2           civfl_3_A             1      3    1+       9    8047770265         civfl.so__A
3      1        2           civfl_3_A             1      3    1-      10    9053741548         civfl.so__A
3      1        3           civfl_3_A             1      3    0+      11   10059712831         civfl.so__A
3      1        3           civfl_3_A             1      3    1+      12   11065684114         civfl.so__A
3      1        3           civfl_3_A             1      3    1-      13   12071655397         civfl.so__A
3      1        4           civfl_3_A             1      3    0+      14   13077626680         civfl.so__A
3      1        4           civfl_3_A             1      3    1+      15   14083597963         civfl.so__A
3      1        4           civfl_3_A             1      3    1-      16   15089569246         civfl.so__A
 Executing ciudg.x  for gamma =A ...

 *** starting pciudg section *** 
nproc: 48 machinefile:  
assuming machinefile syntax: one host name per line optionally repeated
 section2, MPI_STARTUP:
 /software/apps/mpi/openmpi/3.1/intel/18.0/bin/mpirun -np 48  /home-4/yshen57@jhu.edu/Software/Chemistry/Columbus-7.0.2_OpenMolcas-18.09-col/Columbus/pciudg.x -m 19000 
 -------------------- pciudg.x ------------------------
 type of calculation:          mr-sdci
 number of configurations:     1005971283
 total mr-sdci energy             -286.0966525741 
 last mr-sdci energy change           0.0000000049 
 residual                            35.9560000000 
  type of calculation:          mr-sdci
 number of configurations:     1005971283
 total mr-sdci energy             -285.9468421779 
 last mr-sdci energy change           0.0100200000 
 residual                            35.8060000000 
  type of calculation:          mr-sdci
 number of configurations:     1005971283
 total mr-sdci energy             -285.9468421778 
 last mr-sdci energy change           0.0326430000 
 residual                            35.8060000000 
  type of calculation:          mr-sdci
 number of configurations:     1005971283
 total mr-sdci energy             -285.9468421640 
 last mr-sdci energy change           0.0812660000 
 residual                            35.8060000000 
  type of calculation:          mr-sdci
 number of configurations:     1005971283
 total mr-sdci energy             -285.9390606962 
 last mr-sdci energy change          -0.0077815000 
 residual                            35.7980000000 
  type of calculation:          mr-sdci
 number of configurations:     1005971283
 total mr-sdci energy             -285.9390606572 
 last mr-sdci energy change          -0.0077815000 
 residual                            35.7980000000 
  type of calculation:          mr-sdci
 number of configurations:     1005971283
 total mr-sdci energy             -285.9390606570 
 last mr-sdci energy change          -0.0077815000 
 residual                            35.7980000000 
  type of calculation:          mr-sdci
 number of configurations:     1005971283
 total mr-sdci energy             -285.9368223812 
 last mr-sdci energy change          -0.0022383000 
 residual                            35.7960000000 
  type of calculation:          mr-sdci
 number of configurations:     1005971283
 total mr-sdci energy             -285.9304560568 
 last mr-sdci energy change          -0.0086046000 
 residual                            35.7900000000 
  type of calculation:          mr-sdci
 number of configurations:     1005971283
 total mr-sdci energy             -285.9304560559 
 last mr-sdci energy change          -0.0086046000 
 residual                            35.7900000000 
  type of calculation:          mr-sdci
 number of configurations:     1005971283
 total mr-sdci energy             -285.9304560558 
 last mr-sdci energy change          -0.0000000007 
 residual                            35.7900000000 
  type of calculation:          mr-sdci
 number of configurations:     1005971283
 total mr-sdci energy             -285.9141992689 
 last mr-sdci energy change          -0.0162570000 
 residual                            35.7730000000 
  type of calculation:          mr-sdci
 number of configurations:     1005971283
 total mr-sdci energy             -285.9107849400 
 last mr-sdci energy change          -0.0196710000 
 residual                            35.7700000000 
  type of calculation:          mr-sdci
 number of configurations:     1005971283
 total mr-sdci energy             -285.9107849399 
 last mr-sdci energy change          -0.0000000008 
 residual                            35.7700000000 
  type of calculation:          mr-sdci
 number of configurations:     1005971283
 total mr-sdci energy             -285.9107849399 
 last mr-sdci energy change          -0.0000000008 
 residual                            35.7700000000 
  type of calculation:          mr-sdci
 number of configurations:     1005971283
 total mr-sdci energy             -285.8655759398 
 last mr-sdci energy change          -0.0452090000 
 residual                            35.7250000000 
  --------------------------------------------------- 
 ************* Results for Spin-Orbit CI gamma=A **************** 
Final spin-orbit CI state energies: 


-------------- HT matrix in AU ----------------  
-35.955769    
 0.000000    -35.795939    
 0.000000     0.000000    -35.773316    
 0.000000     0.000000     0.000000    -35.724693    
-0.000000    -0.000000     0.000001    -0.000000    -35.805959    
-0.000004     0.000003     0.000002    -0.000001    -0.000000    -35.805959    
 0.000012    -0.000013    -0.000000     0.000000     0.000000     0.000000    -35.805959    
 0.000000     0.000000    -0.000001     0.000000     0.000000    -0.000015    -0.000003    -35.798177    
 0.000006     0.000001     0.000003    -0.000001     0.000015     0.000000    -0.000000     0.000000    -35.798177    
-0.000023    -0.000005     0.000000     0.000000     0.000003     0.000000     0.000000     0.000000    -0.000000    -35.798177    
-0.000000    -0.000001    -0.000000    -0.000000     0.000000    -0.000000     0.000001     0.000000    -0.000000     0.000002    -35.789573    
-0.000004     0.000002    -0.000000    -0.000001     0.000000     0.000000    -0.000000     0.000000     0.000000     0.000001    -0.000000    -35.789573    
-0.000000     0.000000     0.000000     0.000007    -0.000001     0.000000     0.000000    -0.000002    -0.000001     0.000000     0.000000    -0.000000    -35.789573    
-0.000000    -0.000000    -0.000000    -0.000000     0.000000    -0.000002    -0.000000     0.000000     0.000004     0.000001     0.000000    -0.000000    -0.000002    -35.769902    
-0.000000     0.000001    -0.000000     0.000001     0.000002     0.000000    -0.000000    -0.000004     0.000000     0.000000     0.000000     0.000000     0.000000     0.000000    -35.769902    
 0.000000    -0.000004     0.000000     0.000000     0.000000     0.000000     0.000000    -0.000001    -0.000000     0.000000     0.000002    -0.000000     0.000000    -0.000000     0.000000    -35.769902    
-------------- HT matrix in eV ---------------- 
 -978.406   
    0.000    -974.057   
    0.000       0.000    -973.441   
    0.000       0.000       0.000    -972.118   
   -0.000      -0.000       0.000      -0.000    -974.330   
   -0.000       0.000       0.000      -0.000      -0.000    -974.330   
    0.000      -0.000      -0.000       0.000       0.000       0.000    -974.330   
    0.000       0.000      -0.000       0.000       0.000      -0.000      -0.000    -974.118   
    0.000       0.000       0.000      -0.000       0.000       0.000      -0.000       0.000    -974.118   
   -0.001      -0.000       0.000       0.000       0.000       0.000       0.000       0.000      -0.000    -974.118   
   -0.000      -0.000      -0.000      -0.000       0.000      -0.000       0.000       0.000      -0.000       0.000    -973.884   
   -0.000       0.000      -0.000      -0.000       0.000       0.000      -0.000       0.000       0.000       0.000      -0.000    -973.884   
   -0.000       0.000       0.000       0.000      -0.000       0.000       0.000      -0.000      -0.000       0.000       0.000      -0.000    -973.884   
   -0.000      -0.000      -0.000      -0.000       0.000      -0.000      -0.000       0.000       0.000       0.000       0.000      -0.000      -0.000    -973.349   
   -0.000       0.000      -0.000       0.000       0.000       0.000      -0.000      -0.000       0.000       0.000       0.000       0.000       0.000       0.000    -973.349   
    0.000      -0.000       0.000       0.000       0.000       0.000       0.000      -0.000      -0.000       0.000       0.000      -0.000       0.000      -0.000       0.000    -973.349   
-------------- HT matrix in cm-1 ------------------- 
Eref = -35.95576935
     0.00   
     0.00    35078.72   
     0.00        0.00    40043.94   
     0.00        0.00        0.00    50715.54   
    -0.04       -0.01        0.14       -0.01    32879.64   
    -0.83        0.60        0.38       -0.32        0.00    32879.64   
     2.62       -2.93       -0.05        0.01        0.00        0.00    32879.64   
     0.06        0.01       -0.18        0.05        0.00       -3.36       -0.68    34587.48   
     1.39        0.19        0.73       -0.31        3.36        0.00       -0.00        0.00    34587.48   
    -5.13       -1.12        0.02        0.02        0.68        0.00        0.00        0.00        0.00    34587.48   
    -0.09       -0.19       -0.01        0.00        0.00       -0.02        0.18        0.00       -0.09        0.48    36475.98   
    -0.96        0.38       -0.01       -0.30        0.02        0.00       -0.11        0.09        0.00        0.17        0.00    36475.98   
    -0.07        0.07        0.02        1.57       -0.18        0.11        0.00       -0.48       -0.17        0.00        0.00        0.00    36475.98   
    -0.01       -0.01       -0.01       -0.10        0.00       -0.36       -0.05        0.00        0.85        0.20        0.00       -0.02       -0.39    40793.30   
    -0.11        0.17       -0.10        0.29        0.36        0.00       -0.00       -0.85        0.00        0.01        0.02        0.00        0.04        0.00    40793.30   
     0.04       -0.84        0.03        0.07        0.05        0.00        0.00       -0.20       -0.01        0.00        0.39       -0.04        0.00        0.00        0.00    40793.30   


Spin-Orbit CI: perturbational estimate of Spin-Orbit CI energies and wavefunctions 
                SO   1         SO   2         SO   3         SO   4         SO   5         SO   6         SO   7         SO   8

   energy  -286.09665257  -285.94684218  -285.94684218  -285.94684216  -285.93906070  -285.93906066  -285.93906066  -285.93682238
 
   NR   1     0.99999998    -0.00000883     0.00000010    -0.00008310     0.00015315    -0.00000796    -0.00000962     0.00000025
   NR   2    -0.00000000    -0.00000124     0.00000725    -0.00136169    -0.00232164    -0.00000544    -0.00004325     0.99999632
   NR   3     0.00000000    -0.00005295    -0.00001271    -0.00001819    -0.00002023     0.00004292     0.00012985    -0.00000008
   NR   4    -0.00000000     0.00001718    -0.00000169     0.00000394     0.00000461    -0.00000681    -0.00001733     0.00000002
   NR   5     0.00000124     0.13371653     0.99101517     0.00219050    -0.00002884    -0.00106573    -0.00169734    -0.00000418
   NR   6     0.00002511     0.97118236    -0.13147989     0.19878108    -0.00000347     0.00166392    -0.00104514     0.00027279
   NR   7    -0.00007970     0.19728326    -0.02445296    -0.98004052     0.00000375     0.00033617    -0.00020886    -0.00133408
   NR   8    -0.00000167     0.00198639    -0.00026804     0.00000270     0.00037400    -0.84690288     0.53174360     0.00001926
   NR   9    -0.00004025    -0.00026237    -0.00194733    -0.00000590     0.18333981    -0.52267225    -0.83258403     0.00038680
   NR  10     0.00014829    -0.00005477    -0.00039200    -0.00000239    -0.98304673    -0.09780139    -0.15507582    -0.00228952
   NR  11     0.00000247    -0.00000306     0.00000031     0.00004889     0.00025882    -0.00000098    -0.00000175     0.00013633
   NR  12     0.00002637     0.00000493    -0.00000737    -0.00002907     0.00009103     0.00005092    -0.00001201    -0.00026901
   NR  13     0.00000193    -0.00002217     0.00005195    -0.00000579     0.00001707    -0.00026365     0.00005851    -0.00005389
   NR  14     0.00000021     0.00004607    -0.00000600     0.00000237     0.00000584     0.00007445     0.00011838     0.00000148
   NR  15     0.00000268    -0.00000581    -0.00004563    -0.00000071     0.00000099    -0.00011538     0.00007278    -0.00003018
   NR  16    -0.00000105    -0.00000151    -0.00000677    -0.00000029    -0.00000016    -0.00002704     0.00001596     0.00014742

                SO   9         SO  10         SO  11         SO  12         SO  13         SO  14         SO  15         SO  16

   energy  -285.93045606  -285.93045606  -285.93045606  -285.91419927  -285.91078494  -285.91078494  -285.91078494  -285.86557594
 
   NR   1    -0.00000179     0.00000984    -0.00002463    -0.00000000    -0.00000266     0.00000111     0.00000022     0.00000000
   NR   2    -0.00001440     0.00005327     0.00030120    -0.00000003     0.00002874    -0.00014687     0.00001594     0.00000000
   NR   3     0.00000545    -0.00000194     0.00000069    -0.99999998    -0.00013165     0.00003907     0.00001684     0.00000000
   NR   4     0.00011200    -0.00000234     0.00000504    -0.00000000    -0.00002990    -0.00000746    -0.00000834    -0.99999999
   NR   5     0.00004915    -0.00000029    -0.00000029    -0.00001999     0.00004601     0.00000618    -0.00000288     0.00000068
   NR   6    -0.00002967     0.00000549     0.00000602    -0.00005343     0.00000220     0.00000557     0.00004562     0.00001769
   NR   7    -0.00000459    -0.00003837    -0.00004220     0.00000768    -0.00000033     0.00000081     0.00000689    -0.00000043
   NR   8     0.00025877    -0.00000549     0.00001202     0.00003261    -0.00013657    -0.00002917     0.00000950    -0.00000338
   NR   9     0.00009153     0.00005049     0.00000126    -0.00013421    -0.00000635    -0.00001547    -0.00013539     0.00001885
   NR  10     0.00001116    -0.00026980     0.00001589    -0.00000444    -0.00000057    -0.00000334    -0.00003121    -0.00000118
   NR  11    -0.00729257    -0.95968923    -0.28096850     0.00000162     0.00000557     0.00008865    -0.00000980     0.00000001
   NR  12     0.14113812    -0.27915106     0.94981821     0.00000197     0.00000014    -0.00000758     0.00000552     0.00002124
   NR  13    -0.98996300    -0.03272875     0.13748447    -0.00000524     0.00001226     0.00000942     0.00008826    -0.00011010
   NR  14    -0.00008770    -0.00000423     0.00001672    -0.00001477    -0.04652883    -0.10690864    -0.99317953     0.00001046
   NR  15     0.00000811     0.00000476     0.00000019    -0.00013284     0.99886674    -0.01494559    -0.04518648    -0.00002937
   NR  16     0.00000180     0.00008338     0.00003284     0.00003572     0.01001284     0.99415650    -0.10748289    -0.00000682
rescaling new expansion vector ... old norm=   4144.9868623590

 model space basis from reindexls .. 
 --SO-CI-------         -----NR-CI-------             ---model space---- 
 Gamma  root             S   irrep   root                S   ms* 
A          1             1   A         1                 1   0+
A          2             1   A         2                 1   0+
A          3             1   A         3                 1   0+
A          4             1   A         4                 1   0+
A          5             3   A         1                 3   0+
A          6             3   A         1                 3   1+
A          7             3   A         1                 3   1-
A          8             3   A         2                 3   0+
A          9             3   A         2                 3   1+
A         10             3   A         2                 3   1-
A         11             3   A         3                 3   0+
A         12             3   A         3                 3   1+
A         13             3   A         3                 3   1-
A         14             3   A         4                 3   0+
A         15             3   A         4                 3   1+
A         16             3   A         4                 3   1-

************************** SUMMARY *********************************

--------------  SO matrix for irrep A in eV ---------------- 
|1,0+;1,A,1>  -978.406   
|1,0+;1,A,2>     0.000    -974.057   
|1,0+;1,A,3>     0.000       0.000    -973.441   
|1,0+;1,A,4>     0.000       0.000       0.000    -972.118   
|3,0+;3,A,1>    -0.000      -0.000       0.000      -0.000    -974.330   
|3,1+;3,A,1>    -0.000       0.000       0.000      -0.000      -0.000    -974.330   
|3,1-;3,A,1>     0.000      -0.000      -0.000       0.000       0.000       0.000    -974.330   
|3,0+;3,A,2>     0.000       0.000      -0.000       0.000       0.000      -0.000      -0.000    -974.118   
|3,1+;3,A,2>     0.000       0.000       0.000      -0.000       0.000       0.000      -0.000       0.000    -974.118   
|3,1-;3,A,2>    -0.001      -0.000       0.000       0.000       0.000       0.000       0.000       0.000      -0.000    -974.118   
|3,0+;3,A,3>    -0.000      -0.000      -0.000      -0.000       0.000      -0.000       0.000       0.000      -0.000       0.000    -973.884   
|3,1+;3,A,3>    -0.000       0.000      -0.000      -0.000       0.000       0.000      -0.000       0.000       0.000       0.000      -0.000    -973.884   
|3,1-;3,A,3>    -0.000       0.000       0.000       0.000      -0.000       0.000       0.000      -0.000      -0.000       0.000       0.000      -0.000    -973.884   
|3,0+;3,A,4>    -0.000      -0.000      -0.000      -0.000       0.000      -0.000      -0.000       0.000       0.000       0.000       0.000      -0.000      -0.000    -973.349   
|3,1+;3,A,4>    -0.000       0.000      -0.000       0.000       0.000       0.000      -0.000      -0.000       0.000       0.000       0.000       0.000       0.000       0.000    -973.349   
|3,1-;3,A,4>     0.000      -0.000       0.000       0.000       0.000       0.000       0.000      -0.000      -0.000       0.000       0.000      -0.000       0.000      -0.000       0.000    -973.349   

--------------  SO matrix for irrep A in cm-1 ------------------- 
Eref = -35.95576935
|1,0+;1,A,1>      0.00   
|1,0+;1,A,2>      0.00    35078.72   
|1,0+;1,A,3>      0.00        0.00    40043.94   
|1,0+;1,A,4>      0.00        0.00        0.00    50715.54   
|3,0+;3,A,1>     -0.04       -0.01        0.14       -0.01    32879.64   
|3,1+;3,A,1>     -0.83        0.60        0.38       -0.32        0.00    32879.64   
|3,1-;3,A,1>      2.62       -2.93       -0.05        0.01        0.00        0.00    32879.64   
|3,0+;3,A,2>      0.06        0.01       -0.18        0.05        0.00       -3.36       -0.68    34587.48   
|3,1+;3,A,2>      1.39        0.19        0.73       -0.31        3.36        0.00       -0.00        0.00    34587.48   
|3,1-;3,A,2>     -5.13       -1.12        0.02        0.02        0.68        0.00        0.00        0.00        0.00    34587.48   
|3,0+;3,A,3>     -0.09       -0.19       -0.01        0.00        0.00       -0.02        0.18        0.00       -0.09        0.48    36475.98   
|3,1+;3,A,3>     -0.96        0.38       -0.01       -0.30        0.02        0.00       -0.11        0.09        0.00        0.17        0.00    36475.98   
|3,1-;3,A,3>     -0.07        0.07        0.02        1.57       -0.18        0.11        0.00       -0.48       -0.17        0.00        0.00        0.00    36475.98   
|3,0+;3,A,4>     -0.01       -0.01       -0.01       -0.10        0.00       -0.36       -0.05        0.00        0.85        0.20        0.00       -0.02       -0.39    40793.30   
|3,1+;3,A,4>     -0.11        0.17       -0.10        0.29        0.36        0.00       -0.00       -0.85        0.00        0.01        0.02        0.00        0.04        0.00    40793.30   
|3,1-;3,A,4>      0.04       -0.84        0.03        0.07        0.05        0.00        0.00       -0.20       -0.01        0.00        0.39       -0.04        0.00        0.00        0.00    40793.30   


 ** perturbational estimate of Spin-Orbit CI energies and wavefunctions in model space basis** 

                      A  1         A  2         A  3         A  4         A  5         A  6         A  7         A  8

            energy  -286.09665257  -285.94684218  -285.94684218  -285.94684216  -285.93906070  -285.93906066  -285.93906066  -285.93682238
          
   |1,0+;1,A,1>     0.99999998    -0.00000883     0.00000010    -0.00008310     0.00015315    -0.00000796    -0.00000962     0.00000025
   |1,0+;1,A,2>    -0.00000000    -0.00000124     0.00000725    -0.00136169    -0.00232164    -0.00000544    -0.00004325     0.99999632
   |1,0+;1,A,3>     0.00000000    -0.00005295    -0.00001271    -0.00001819    -0.00002023     0.00004292     0.00012985    -0.00000008
   |1,0+;1,A,4>    -0.00000000     0.00001718    -0.00000169     0.00000394     0.00000461    -0.00000681    -0.00001733     0.00000002
   |3,0+;3,A,1>     0.00000124     0.13371653     0.99101517     0.00219050    -0.00002884    -0.00106573    -0.00169734    -0.00000418
   |3,1+;3,A,1>     0.00002511     0.97118236    -0.13147989     0.19878108    -0.00000347     0.00166392    -0.00104514     0.00027279
   |3,1-;3,A,1>    -0.00007970     0.19728326    -0.02445296    -0.98004052     0.00000375     0.00033617    -0.00020886    -0.00133408
   |3,0+;3,A,2>    -0.00000167     0.00198639    -0.00026804     0.00000270     0.00037400    -0.84690288     0.53174360     0.00001926
   |3,1+;3,A,2>    -0.00004025    -0.00026237    -0.00194733    -0.00000590     0.18333981    -0.52267225    -0.83258403     0.00038680
   |3,1-;3,A,2>     0.00014829    -0.00005477    -0.00039200    -0.00000239    -0.98304673    -0.09780139    -0.15507582    -0.00228952
   |3,0+;3,A,3>     0.00000247    -0.00000306     0.00000031     0.00004889     0.00025882    -0.00000098    -0.00000175     0.00013633
   |3,1+;3,A,3>     0.00002637     0.00000493    -0.00000737    -0.00002907     0.00009103     0.00005092    -0.00001201    -0.00026901
   |3,1-;3,A,3>     0.00000193    -0.00002217     0.00005195    -0.00000579     0.00001707    -0.00026365     0.00005851    -0.00005389
   |3,0+;3,A,4>     0.00000021     0.00004607    -0.00000600     0.00000237     0.00000584     0.00007445     0.00011838     0.00000148
   |3,1+;3,A,4>     0.00000268    -0.00000581    -0.00004563    -0.00000071     0.00000099    -0.00011538     0.00007278    -0.00003018
   |3,1-;3,A,4>    -0.00000105    -0.00000151    -0.00000677    -0.00000029    -0.00000016    -0.00002704     0.00001596     0.00014742

                      A  9         A 10         A 11         A 12         A 13         A 14         A 15         A 16

            energy  -285.93045606  -285.93045606  -285.93045606  -285.91419927  -285.91078494  -285.91078494  -285.91078494  -285.86557594
          
   |1,0+;1,A,1>    -0.00000179     0.00000984    -0.00002463    -0.00000000    -0.00000266     0.00000111     0.00000022     0.00000000
   |1,0+;1,A,2>    -0.00001440     0.00005327     0.00030120    -0.00000003     0.00002874    -0.00014687     0.00001594     0.00000000
   |1,0+;1,A,3>     0.00000545    -0.00000194     0.00000069    -0.99999998    -0.00013165     0.00003907     0.00001684     0.00000000
   |1,0+;1,A,4>     0.00011200    -0.00000234     0.00000504    -0.00000000    -0.00002990    -0.00000746    -0.00000834    -0.99999999
   |3,0+;3,A,1>     0.00004915    -0.00000029    -0.00000029    -0.00001999     0.00004601     0.00000618    -0.00000288     0.00000068
   |3,1+;3,A,1>    -0.00002967     0.00000549     0.00000602    -0.00005343     0.00000220     0.00000557     0.00004562     0.00001769
   |3,1-;3,A,1>    -0.00000459    -0.00003837    -0.00004220     0.00000768    -0.00000033     0.00000081     0.00000689    -0.00000043
   |3,0+;3,A,2>     0.00025877    -0.00000549     0.00001202     0.00003261    -0.00013657    -0.00002917     0.00000950    -0.00000338
   |3,1+;3,A,2>     0.00009153     0.00005049     0.00000126    -0.00013421    -0.00000635    -0.00001547    -0.00013539     0.00001885
   |3,1-;3,A,2>     0.00001116    -0.00026980     0.00001589    -0.00000444    -0.00000057    -0.00000334    -0.00003121    -0.00000118
   |3,0+;3,A,3>    -0.00729257    -0.95968923    -0.28096850     0.00000162     0.00000557     0.00008865    -0.00000980     0.00000001
   |3,1+;3,A,3>     0.14113812    -0.27915106     0.94981821     0.00000197     0.00000014    -0.00000758     0.00000552     0.00002124
   |3,1-;3,A,3>    -0.98996300    -0.03272875     0.13748447    -0.00000524     0.00001226     0.00000942     0.00008826    -0.00011010
   |3,0+;3,A,4>    -0.00008770    -0.00000423     0.00001672    -0.00001477    -0.04652883    -0.10690864    -0.99317953     0.00001046
   |3,1+;3,A,4>     0.00000811     0.00000476     0.00000019    -0.00013284     0.99886674    -0.01494559    -0.04518648    -0.00002937
   |3,1-;3,A,4>     0.00000180     0.00008338     0.00003284     0.00003572     0.01001284     0.99415650    -0.10748289    -0.00000682
rescaling new expansion vector ... old norm=   4144.9868623590

Sorted Energies:
1  -286.09665257 
2  -285.94684218 
3  -285.94684218 
4  -285.94684216 
5  -285.93906070 
6  -285.93906066 
7  -285.93906066 
8  -285.93682238 
9  -285.93045606 
10  -285.93045606 
11  -285.93045606 
12  -285.91419927 
13  -285.91078494 
14  -285.91078494 
15  -285.91078494 
16  -285.86557594 
Not computing transition moment with identical bra and ket.
 Calculating transition moment for (1,1) => (1,2)
 starting transci.x -m 200000 at Sat Jun  4 00:01:05 EDT 2022

 -------------------- transci.x ------------------------

                          State No. 1            State No. 2

   Space symmetry:           a                      a   
   No. of CSFs:          ********               ********
   State energies:      -286.09665257          -285.93682241  a.u.

   Transition energy:     0.15983016  a.u.
   Transition energy:     4.35        eV

       Transition moment components:

                 x            y            z

electron         -0.005299    -0.071254    -0.007612  e*bohr
frozen core       0.000000     0.000000     0.000000  e*bohr
total (elec)     -0.005299    -0.071254    -0.007612  e*bohr


   Tr.dipole length:     0.071855    e*bohr
   Oscillator strength :  0.000550
   Einstein A coef.:     0.4515E+06  1/sec
   Einstein B coef.:     0.2095E+07  sec/g

                 x            y            z

<L> electron     0.343635    -0.023891    -0.020391  e*bohr


   <L> value length:     0.345068    e*bohr
 --------------------------------------------------- 
  Calculating transition moment for (1,1) => (1,3)
 starting transci.x -m 200000 at Sat Jun  4 00:03:19 EDT 2022

 -------------------- transci.x ------------------------

                          State No. 1            State No. 2

   Space symmetry:           a                      a   
   No. of CSFs:          ********               ********
   State energies:      -286.09665257          -285.91419927  a.u.

   Transition energy:     0.18245330  a.u.
   Transition energy:     4.96        eV

       Transition moment components:

                 x            y            z

electron          0.509792    -0.007862     0.000719  e*bohr
frozen core       0.000000     0.000000     0.000000  e*bohr
total (elec)      0.509792    -0.007862     0.000719  e*bohr


   Tr.dipole length:     0.509854    e*bohr
   Oscillator strength :  0.031619
   Einstein A coef.:     0.3382E+08  1/sec
   Einstein B coef.:     0.1055E+09  sec/g

                 x            y            z

<L> electron     0.002587    -0.033716    -0.663438  e*bohr


   <L> value length:     0.664299    e*bohr
 --------------------------------------------------- 
  Calculating transition moment for (1,1) => (1,4)
 starting transci.x -m 200000 at Sat Jun  4 00:05:33 EDT 2022

 -------------------- transci.x ------------------------

                          State No. 1            State No. 2

   Space symmetry:           a                      a   
   No. of CSFs:          ********               ********
   State energies:      -286.09665257          -285.86557594  a.u.

   Transition energy:     0.23107663  a.u.
   Transition energy:     6.29        eV

       Transition moment components:

                 x            y            z

electron         -0.039711     0.021950    -0.001216  e*bohr
frozen core       0.000000     0.000000     0.000000  e*bohr
total (elec)     -0.039711     0.021950    -0.001216  e*bohr


   Tr.dipole length:     0.045390    e*bohr
   Oscillator strength :  0.000317
   Einstein A coef.:     0.5445E+06  1/sec
   Einstein B coef.:     0.8361E+06  sec/g

                 x            y            z

<L> electron    -0.003031    -0.437776     0.054049  e*bohr


   <L> value length:     0.441111    e*bohr
 --------------------------------------------------- 
 Not computing transition moment with identical bra and ket.
 Calculating transition moment for (1,2) => (1,3)
 starting transci.x -m 200000 at Sat Jun  4 00:07:45 EDT 2022

 -------------------- transci.x ------------------------

                          State No. 1            State No. 2

   Space symmetry:           a                      a   
   No. of CSFs:          ********               ********
   State energies:      -285.93682241          -285.91419927  a.u.

   Transition energy:     0.02262314  a.u.
   Transition energy:     0.62        eV

       Transition moment components:

                 x            y            z

electron         -0.065097     0.057537    -0.005803  e*bohr
frozen core       0.000000     0.000000     0.000000  e*bohr
total (elec)     -0.065097     0.057537    -0.005803  e*bohr


   Tr.dipole length:     0.087074    e*bohr
   Oscillator strength :  0.000114
   Einstein A coef.:     0.1880E+04  1/sec
   Einstein B coef.:     0.3077E+07  sec/g

                 x            y            z

<L> electron    -0.002098     0.127776     0.020560  e*bohr


   <L> value length:     0.129436    e*bohr
 --------------------------------------------------- 
  Calculating transition moment for (1,2) => (1,4)
 starting transci.x -m 200000 at Sat Jun  4 00:09:51 EDT 2022

 -------------------- transci.x ------------------------

                          State No. 1            State No. 2

   Space symmetry:           a                      a   
   No. of CSFs:          ********               ********
   State energies:      -285.93682241          -285.86557594  a.u.

   Transition energy:     0.07124647  a.u.
   Transition energy:     1.94        eV

       Transition moment components:

                 x            y            z

electron         -0.178718    -0.005577     0.003771  e*bohr
frozen core       0.000000     0.000000     0.000000  e*bohr
total (elec)     -0.178718    -0.005577     0.003771  e*bohr


   Tr.dipole length:     0.178845    e*bohr
   Oscillator strength :  0.001519
   Einstein A coef.:     0.2478E+06  1/sec
   Einstein B coef.:     0.1298E+08  sec/g

                 x            y            z

<L> electron     0.004372     0.004829     0.599132  e*bohr


   <L> value length:     0.599168    e*bohr
 --------------------------------------------------- 
 Not computing transition moment with identical bra and ket.
 Calculating transition moment for (1,3) => (1,4)
 starting transci.x -m 200000 at Sat Jun  4 00:12:05 EDT 2022

 -------------------- transci.x ------------------------

                          State No. 1            State No. 2

   Space symmetry:           a                      a   
   No. of CSFs:          ********               ********
   State energies:      -285.91419927          -285.86557594  a.u.

   Transition energy:     0.04862333  a.u.
   Transition energy:     1.32        eV

       Transition moment components:

                 x            y            z

electron         -0.003798    -0.108567     0.010520  e*bohr
frozen core       0.000000     0.000000     0.000000  e*bohr
total (elec)     -0.003798    -0.108567     0.010520  e*bohr


   Tr.dipole length:     0.109142    e*bohr
   Oscillator strength :  0.000386
   Einstein A coef.:     0.2933E+05  1/sec
   Einstein B coef.:     0.4834E+07  sec/g

                 x            y            z

<L> electron     0.148042    -0.006754     0.027887  e*bohr


   <L> value length:     0.150797    e*bohr
 --------------------------------------------------- 
 Not computing transition moment with identical bra and ket.
Not computing transition moment with identical bra and ket.
 Calculating transition moment for (2,1) => (2,2)
 starting transci.x -m 200000 at Sat Jun  4 00:14:20 EDT 2022

 -------------------- transci.x ------------------------

                          State No. 1            State No. 2

   Space symmetry:           a                      a   
   No. of CSFs:          ********               ********
   State energies:      -285.94684215          -285.93906069  a.u.

   Transition energy:     0.00778146  a.u.
   Transition energy:     0.21        eV

       Transition moment components:

                 x            y            z

electron          0.028458     1.309779     0.012228  e*bohr
frozen core       0.000000     0.000000     0.000000  e*bohr
total (elec)      0.028458     1.309779     0.012228  e*bohr


   Tr.dipole length:     1.310145    e*bohr
   Oscillator strength :  0.008904
   Einstein A coef.:     0.1732E+05  1/sec
   Einstein B coef.:     0.6966E+09  sec/g

                 x            y            z

<L> electron    -0.185639     0.010923    -0.033456  e*bohr


   <L> value length:     0.188945    e*bohr
 --------------------------------------------------- 
  Calculating transition moment for (2,1) => (2,3)
 starting transci.x -m 200000 at Sat Jun  4 00:18:22 EDT 2022

 -------------------- transci.x ------------------------

                          State No. 1            State No. 2

   Space symmetry:           a                      a   
   No. of CSFs:          ********               ********
   State energies:      -285.94684215          -285.93045606  a.u.

   Transition energy:     0.01638609  a.u.
   Transition energy:     0.45        eV

       Transition moment components:

                 x            y            z

electron          0.201466     0.047668    -0.001056  e*bohr
frozen core       0.000000     0.000000     0.000000  e*bohr
total (elec)      0.201466     0.047668    -0.001056  e*bohr


   Tr.dipole length:     0.207031    e*bohr
   Oscillator strength :  0.000468
   Einstein A coef.:     0.4039E+04  1/sec
   Einstein B coef.:     0.1739E+08  sec/g

                 x            y            z

<L> electron    -0.007921     0.053753     1.121233  e*bohr


   <L> value length:     1.122549    e*bohr
 --------------------------------------------------- 
  Calculating transition moment for (2,1) => (2,4)
 starting transci.x -m 200000 at Sat Jun  4 00:22:23 EDT 2022

 -------------------- transci.x ------------------------

                          State No. 1            State No. 2

   Space symmetry:           a                      a   
   No. of CSFs:          ********               ********
   State energies:      -285.94684215          -285.91078494  a.u.

   Transition energy:     0.03605721  a.u.
   Transition energy:     0.98        eV

       Transition moment components:

                 x            y            z

electron         -0.004064     0.224521    -0.019664  e*bohr
frozen core       0.000000     0.000000     0.000000  e*bohr
total (elec)     -0.004064     0.224521    -0.019664  e*bohr


   Tr.dipole length:     0.225418    e*bohr
   Oscillator strength :  0.001221
   Einstein A coef.:     0.5102E+05  1/sec
   Einstein B coef.:     0.2062E+08  sec/g

                 x            y            z

<L> electron    -0.020106     0.001306     0.000877  e*bohr


   <L> value length:     0.020167    e*bohr
 --------------------------------------------------- 
 Not computing transition moment with identical bra and ket.
 Calculating transition moment for (2,2) => (2,3)
 starting transci.x -m 200000 at Sat Jun  4 00:26:24 EDT 2022

 -------------------- transci.x ------------------------

                          State No. 1            State No. 2

   Space symmetry:           a                      a   
   No. of CSFs:          ********               ********
   State energies:      -285.93906069          -285.93045606  a.u.

   Transition energy:     0.00860463  a.u.
   Transition energy:     0.23        eV

       Transition moment components:

                 x            y            z

electron          0.147707    -0.133669     0.007197  e*bohr
frozen core       0.000000     0.000000     0.000000  e*bohr
total (elec)      0.147707    -0.133669     0.007197  e*bohr


   Tr.dipole length:     0.199340    e*bohr
   Oscillator strength :  0.000228
   Einstein A coef.:     0.5422E+03  1/sec
   Einstein B coef.:     0.1613E+08  sec/g

                 x            y            z

<L> electron    -0.002953    -0.085150     0.452937  e*bohr


   <L> value length:     0.460881    e*bohr
 --------------------------------------------------- 
  Calculating transition moment for (2,2) => (2,4)
 starting transci.x -m 200000 at Sat Jun  4 00:30:22 EDT 2022

 -------------------- transci.x ------------------------

                          State No. 1            State No. 2

   Space symmetry:           a                      a   
   No. of CSFs:          ********               ********
   State energies:      -285.93906069          -285.91078494  a.u.

   Transition energy:     0.02827575  a.u.
   Transition energy:     0.77        eV

       Transition moment components:

                 x            y            z

electron          0.012281    -0.049147     0.034758  e*bohr
frozen core       0.000000     0.000000     0.000000  e*bohr
total (elec)      0.012281    -0.049147     0.034758  e*bohr


   Tr.dipole length:     0.061436    e*bohr
   Oscillator strength :  0.000071
   Einstein A coef.:     0.1828E+04  1/sec
   Einstein B coef.:     0.1532E+07  sec/g

                 x            y            z

<L> electron     0.044173    -0.003257     0.001004  e*bohr


   <L> value length:     0.044304    e*bohr
 --------------------------------------------------- 
 Not computing transition moment with identical bra and ket.
 Calculating transition moment for (2,3) => (2,4)
 starting transci.x -m 200000 at Sat Jun  4 00:34:18 EDT 2022

 -------------------- transci.x ------------------------

                          State No. 1            State No. 2

   Space symmetry:           a                      a   
   No. of CSFs:          ********               ********
   State energies:      -285.93045606          -285.91078494  a.u.

   Transition energy:     0.01967112  a.u.
   Transition energy:     0.54        eV

       Transition moment components:

                 x            y            z

electron         -0.128269    -0.003876     0.001384  e*bohr
frozen core       0.000000     0.000000     0.000000  e*bohr
total (elec)     -0.128269    -0.003876     0.001384  e*bohr


   Tr.dipole length:     0.128335    e*bohr
   Oscillator strength :  0.000216
   Einstein A coef.:     0.2685E+04  1/sec
   Einstein B coef.:     0.6684E+07  sec/g

                 x            y            z

<L> electron     0.001435    -0.004348    -0.160365  e*bohr


   <L> value length:     0.160430    e*bohr
 --------------------------------------------------- 
 Not computing transition moment with identical bra and ket.
 --- ci properties for state 1 of  DRT 1 ----
starting exptvl.x -m 200000  at Sat Jun  4 00:38:14 EDT 2022

 -------------------- exptvl.x ------------------------
  === dipole moment === 
                     X               Y               Z   
   orign x       0.00000000      0.00000000      0.00000000
   orign y       0.00000000      0.00000000      0.00000000
   orign z       0.00000000      0.00000000      0.00000000
   nuclear      -1.06554789     -1.09070095      2.39721016
   electronic    1.06394714      0.35156647     -2.63357593
   total        -0.00160075     -0.73913448     -0.23636577
   total Dipole moment =   1.97242198    Debye
 !timer: exptvl required                 cpu_time=     0.182 walltime=     0.676
 --------------------------------------------------- 
  --- ci properties for state 2 of  DRT 1 ----
starting exptvl.x -m 200000  at Sat Jun  4 00:38:15 EDT 2022

 -------------------- exptvl.x ------------------------
  === dipole moment === 
                     X               Y               Z   
   orign x       0.00000000      0.00000000      0.00000000
   orign y       0.00000000      0.00000000      0.00000000
   orign z       0.00000000      0.00000000      0.00000000
   nuclear      -1.06554789     -1.09070095      2.39721016
   electronic    1.10270941      4.21410010     -2.70537449
   total         0.03716152      3.12339915     -0.30816433
   total Dipole moment =   7.97800251    Debye
 --------------------------------------------------- 
  --- ci properties for state 3 of  DRT 1 ----
starting exptvl.x -m 200000  at Sat Jun  4 00:38:15 EDT 2022

 -------------------- exptvl.x ------------------------
  === dipole moment === 
                     X               Y               Z   
   orign x       0.00000000      0.00000000      0.00000000
   orign y       0.00000000      0.00000000      0.00000000
   orign z       0.00000000      0.00000000      0.00000000
   nuclear      -1.06554789     -1.09070095      2.39721016
   electronic    1.06193027     -0.03574205     -2.60480764
   total        -0.00361762     -1.12644300     -0.20759748
   total Dipole moment =   2.91136643    Debye
 --------------------------------------------------- 
  --- ci properties for state 4 of  DRT 1 ----
starting exptvl.x -m 200000  at Sat Jun  4 00:38:16 EDT 2022

 -------------------- exptvl.x ------------------------
  === dipole moment === 
                     X               Y               Z   
   orign x       0.00000000      0.00000000      0.00000000
   orign y       0.00000000      0.00000000      0.00000000
   orign z       0.00000000      0.00000000      0.00000000
   nuclear      -1.06554789     -1.09070095      2.39721016
   electronic    1.08745896      5.20055344     -2.80950380
   total         0.02191107      4.10985249     -0.41229364
   total Dipole moment =  10.49879374    Debye
 --------------------------------------------------- 
  --- ci properties for state 1 of  DRT 2 ----
starting exptvl.x -m 200000  at Sat Jun  4 00:38:16 EDT 2022

 -------------------- exptvl.x ------------------------
  === dipole moment === 
                     X               Y               Z   
   orign x       0.00000000      0.00000000      0.00000000
   orign y       0.00000000      0.00000000      0.00000000
   orign z       0.00000000      0.00000000      0.00000000
   nuclear      -1.06554789     -1.09070095      2.39721016
   electronic    1.08264008      0.75524181     -2.59767303
   total         0.01709219     -0.33545914     -0.20046287
   total Dipole moment =   0.99424417    Debye
 --------------------------------------------------- 
  --- ci properties for state 2 of  DRT 2 ----
starting exptvl.x -m 200000  at Sat Jun  4 00:38:16 EDT 2022

 -------------------- exptvl.x ------------------------
  === dipole moment === 
                     X               Y               Z   
   orign x       0.00000000      0.00000000      0.00000000
   orign y       0.00000000      0.00000000      0.00000000
   orign z       0.00000000      0.00000000      0.00000000
   nuclear      -1.06554789     -1.09070095      2.39721016
   electronic    1.10759935      3.63145048     -2.70263650
   total         0.04205146      2.54074953     -0.30542634
   total Dipole moment =   6.50531931    Debye
 --------------------------------------------------- 
  --- ci properties for state 3 of  DRT 2 ----
starting exptvl.x -m 200000  at Sat Jun  4 00:38:17 EDT 2022

 -------------------- exptvl.x ------------------------
  === dipole moment === 
                     X               Y               Z   
   orign x       0.00000000      0.00000000      0.00000000
   orign y       0.00000000      0.00000000      0.00000000
   orign z       0.00000000      0.00000000      0.00000000
   nuclear      -1.06554789     -1.09070095      2.39721016
   electronic    1.05559122     -0.31007445     -2.59730730
   total        -0.00995667     -1.40077540     -0.20009714
   total Dipole moment =   3.59665093    Debye
 --------------------------------------------------- 
  --- ci properties for state 4 of  DRT 2 ----
starting exptvl.x -m 200000  at Sat Jun  4 00:38:17 EDT 2022

 -------------------- exptvl.x ------------------------
  === dipole moment === 
                     X               Y               Z   
   orign x       0.00000000      0.00000000      0.00000000
   orign y       0.00000000      0.00000000      0.00000000
   orign z       0.00000000      0.00000000      0.00000000
   nuclear      -1.06554789     -1.09070095      2.39721016
   electronic    1.06411825      0.15348721     -2.62567830
   total        -0.00142964     -0.93721374     -0.22846814
   total Dipole moment =   2.45192415    Debye
 --------------------------------------------------- 
 starting mo_convert.x at Sat Jun  4 00:38:17 EDT 2022

 -------------------- mo_convert.x ------------------------
 --------------------------------------------------- 
 starting pymolcas molcas.input.molden > molcas.output.molden at Sat Jun  4 00:38:18 EDT 2022

Generating link ln -s ./molcas.OrdInt ORDINT 
 -------------------- molden ------------------------
 --------------------------------------------------- 
 starting mo_convert.x at Sat Jun  4 00:38:45 EDT 2022

 -------------------- mo_convert.x ------------------------
 --------------------------------------------------- 
 starting pymolcas molcas.input.molden > molcas.output.molden at Sat Jun  4 00:38:45 EDT 2022

Generating link ln -s ./molcas.OrdInt ORDINT 
 -------------------- molden ------------------------
 --------------------------------------------------- 
 starting mo_convert.x at Sat Jun  4 00:39:08 EDT 2022

 -------------------- mo_convert.x ------------------------
 --------------------------------------------------- 
 starting pymolcas molcas.input.molden > molcas.output.molden at Sat Jun  4 00:39:09 EDT 2022

Generating link ln -s ./molcas.OrdInt ORDINT 
 -------------------- molden ------------------------
 --------------------------------------------------- 
 starting mo_convert.x at Sat Jun  4 00:39:29 EDT 2022

 -------------------- mo_convert.x ------------------------
 --------------------------------------------------- 
 starting pymolcas molcas.input.molden > molcas.output.molden at Sat Jun  4 00:39:30 EDT 2022

Generating link ln -s ./molcas.OrdInt ORDINT 
 -------------------- molden ------------------------
 --------------------------------------------------- 
 starting mo_convert.x at Sat Jun  4 00:39:50 EDT 2022

 -------------------- mo_convert.x ------------------------
 --------------------------------------------------- 
 starting pymolcas molcas.input.molden > molcas.output.molden at Sat Jun  4 00:39:51 EDT 2022

Generating link ln -s ./molcas.OrdInt ORDINT 
 -------------------- molden ------------------------
 --------------------------------------------------- 
 starting mo_convert.x at Sat Jun  4 00:40:11 EDT 2022

 -------------------- mo_convert.x ------------------------
 --------------------------------------------------- 
 starting pymolcas molcas.input.molden > molcas.output.molden at Sat Jun  4 00:40:12 EDT 2022

Generating link ln -s ./molcas.OrdInt ORDINT 
 -------------------- molden ------------------------
 --------------------------------------------------- 
 starting mo_convert.x at Sat Jun  4 00:40:32 EDT 2022

 -------------------- mo_convert.x ------------------------
 --------------------------------------------------- 
 starting pymolcas molcas.input.molden > molcas.output.molden at Sat Jun  4 00:40:33 EDT 2022

Generating link ln -s ./molcas.OrdInt ORDINT 
 -------------------- molden ------------------------
 --------------------------------------------------- 
 starting mo_convert.x at Sat Jun  4 00:40:54 EDT 2022

 -------------------- mo_convert.x ------------------------
 --------------------------------------------------- 
 starting pymolcas molcas.input.molden > molcas.output.molden at Sat Jun  4 00:40:54 EDT 2022

Generating link ln -s ./molcas.OrdInt ORDINT 
 -------------------- molden ------------------------
 --------------------------------------------------- 
 starting mo_convert.x at Sat Jun  4 00:41:15 EDT 2022

 -------------------- mo_convert.x ------------------------
 --------------------------------------------------- 
 starting pymolcas molcas.input.molden > molcas.output.molden at Sat Jun  4 00:41:15 EDT 2022

Generating link ln -s ./molcas.OrdInt ORDINT 
 -------------------- molden ------------------------
 --------------------------------------------------- 
 starting mo_convert.x at Sat Jun  4 00:41:36 EDT 2022

 -------------------- mo_convert.x ------------------------
 --------------------------------------------------- 
 starting pymolcas molcas.input.molden > molcas.output.molden at Sat Jun  4 00:41:36 EDT 2022

Generating link ln -s ./molcas.OrdInt ORDINT 
 -------------------- molden ------------------------
 --------------------------------------------------- 
 starting mo_convert.x at Sat Jun  4 00:41:57 EDT 2022

 -------------------- mo_convert.x ------------------------
 --------------------------------------------------- 
 starting pymolcas molcas.input.molden > molcas.output.molden at Sat Jun  4 00:41:58 EDT 2022

Generating link ln -s ./molcas.OrdInt ORDINT 
 -------------------- molden ------------------------
 --------------------------------------------------- 
 starting mo_convert.x at Sat Jun  4 00:42:18 EDT 2022

 -------------------- mo_convert.x ------------------------
 --------------------------------------------------- 
 starting pymolcas molcas.input.molden > molcas.output.molden at Sat Jun  4 00:42:19 EDT 2022

Generating link ln -s ./molcas.OrdInt ORDINT 
 -------------------- molden ------------------------
 --------------------------------------------------- 
 starting mo_convert.x at Sat Jun  4 00:42:39 EDT 2022

 -------------------- mo_convert.x ------------------------
 --------------------------------------------------- 
 starting pymolcas molcas.input.molden > molcas.output.molden at Sat Jun  4 00:42:40 EDT 2022

Generating link ln -s ./molcas.OrdInt ORDINT 
 -------------------- molden ------------------------
 --------------------------------------------------- 
 starting mo_convert.x at Sat Jun  4 00:43:00 EDT 2022

 -------------------- mo_convert.x ------------------------
 --------------------------------------------------- 
 starting pymolcas molcas.input.molden > molcas.output.molden at Sat Jun  4 00:43:01 EDT 2022

Generating link ln -s ./molcas.OrdInt ORDINT 
 -------------------- molden ------------------------
 --------------------------------------------------- 
 

 +++++++++++ STARTING GRADIENTS AND NAD. COUPLINGS CALCULATION +++++++++++ 

 Using new transition density code ... 
INFO: this is a frozen core gradient calculation
starting cidrt.x  -m 200000 < cidrtin.cigrd > cidrtls.cigrd at Sat Jun  4 00:43:22 EDT 2022

 -------------------- cidrt.x ------------------------
 total number of orbitals            :   246
 number of frozen core orbitals      :    18
 number of frozen virtual orbitals   :     0
 number of internal orbitals         :    14
 number of external orbitals         :   214
 spatial symmetry:   a  
 
 total number of configurations  282461366
 number of reference configurations  1666
 --------------------------------------------------- 
 starting tran.x -m 200000  at Sat Jun  4 00:43:29 EDT 2022

 -------------------- tran.x ------------------------
 --------------------------------------------------- 
 ---- Computing 8 gradient(s)  ----

 --- Computing gradient for DRT:1, State; 1

starting cigrd.x -m 200000 at Sat Jun  4 00:51:31 EDT 2022

 -------------------- cigrd.x ------------------------
 Total energy (ciudg) :  -286.096652569435 
  Effective energy     :  -286.096652585966 
  Delta E              :     0.000000016531 
  --------------------------------------------------- 
 starting tran.x -m 200000  at Sat Jun  4 01:00:46 EDT 2022

 -------------------- tran.x ------------------------
 --------------------------------------------------- 
 starting pymolcas molcas.input.alaska > molcas.output.alaska  at Sat Jun  4 01:07:46 EDT 2022

Generating link ln -s ./molcas.OrdInt ORDINT 
 -------------------- alaska ------------------------
 --------------------------------------------------- 
 cartesian gradient by alaska (MOLCAS)

 === Gradient of DRT 1, state 1 === 
   0.360345D-01   0.647173D-01   0.901645D-03
   0.121182D-02  -0.227218D-01   0.721965D-02
  -0.147813D-01   0.144412D-01  -0.395977D-03
   0.145252D-01   0.150324D-01  -0.271777D-03
  -0.871373D-02  -0.115226D-01  -0.721739D-04
   0.892578D-02  -0.115134D-01  -0.460942D-04
  -0.378356D-04   0.820457D-03  -0.336023D-04
  -0.463264D-01  -0.359302D-01  -0.902224D-02
   0.920909D-02  -0.127337D-01   0.118793D-02
   0.164184D-02   0.612188D-03   0.196023D-03
  -0.164332D-02   0.587187D-03   0.156750D-03
   0.633676D-03  -0.720271D-03   0.549385D-04
  -0.679785D-03  -0.686941D-03   0.473871D-04
   0.592302D-06  -0.381778D-03   0.775452D-04
===================================
 --- Computing gradient for DRT:1, State; 2

starting cigrd.x -m 200000 at Sat Jun  4 01:09:04 EDT 2022

 -------------------- cigrd.x ------------------------
 Total energy (ciudg) :  -285.936822410874 
  Effective energy     :  -285.936822427570 
  Delta E              :     0.000000016696 
  --------------------------------------------------- 
 starting tran.x -m 200000  at Sat Jun  4 01:19:47 EDT 2022

 -------------------- tran.x ------------------------
 --------------------------------------------------- 
 starting pymolcas molcas.input.alaska > molcas.output.alaska  at Sat Jun  4 01:26:51 EDT 2022

Generating link ln -s ./molcas.OrdInt ORDINT 
 -------------------- alaska ------------------------
 --------------------------------------------------- 
 cartesian gradient by alaska (MOLCAS)

 === Gradient of DRT 1, state 2 === 
   0.349428D-01  -0.110040D-01   0.277558D-01
  -0.567381D-03   0.368977D-01  -0.564584D-02
   0.122271D-01  -0.913042D-02  -0.200956D-03
  -0.120646D-01  -0.957597D-02  -0.629327D-03
   0.500974D-02   0.807151D-02   0.410942D-04
  -0.516049D-02   0.805874D-02   0.175671D-03
   0.454706D-04  -0.298588D-03  -0.924315D-04
  -0.273763D-01  -0.224625D-01  -0.146847D-01
  -0.713105D-02  -0.122319D-02  -0.623959D-02
  -0.137376D-02  -0.440838D-03  -0.322223D-03
   0.141440D-02  -0.460419D-03  -0.189075D-03
  -0.447651D-03   0.691898D-03   0.871015D-04
   0.480005D-03   0.678331D-03   0.872192D-04
   0.171602D-05   0.197680D-03  -0.142779D-03
===================================
 --- Computing gradient for DRT:1, State; 3

starting cigrd.x -m 200000 at Sat Jun  4 01:28:13 EDT 2022

 -------------------- cigrd.x ------------------------
 Total energy (ciudg) :  -285.914199269621 
  Effective energy     :  -285.914199287266 
  Delta E              :     0.000000017645 
  --------------------------------------------------- 
 starting tran.x -m 200000  at Sat Jun  4 01:37:55 EDT 2022

 -------------------- tran.x ------------------------
 --------------------------------------------------- 
 starting pymolcas molcas.input.alaska > molcas.output.alaska  at Sat Jun  4 01:44:56 EDT 2022

Generating link ln -s ./molcas.OrdInt ORDINT 
 -------------------- alaska ------------------------
 --------------------------------------------------- 
 cartesian gradient by alaska (MOLCAS)

 === Gradient of DRT 1, state 3 === 
   0.367551D-01   0.468281D-01   0.815543D-02
   0.109720D-02  -0.218430D-02   0.446283D-02
   0.132725D-01   0.473524D-01  -0.181053D-02
  -0.133949D-01   0.477999D-01  -0.128632D-02
   0.183062D-01  -0.410240D-01   0.145171D-02
  -0.182584D-01  -0.410231D-01   0.769868D-03
   0.735031D-04  -0.956237D-02   0.554772D-03
  -0.444836D-01  -0.357372D-01  -0.109081D-01
   0.667733D-02  -0.121253D-01  -0.998329D-03
   0.661820D-03   0.364983D-03  -0.105219D-03
  -0.657036D-03   0.341427D-03  -0.107322D-03
  -0.715081D-03  -0.436842D-03  -0.726078D-04
   0.664666D-03  -0.385191D-03  -0.423283D-04
   0.744702D-06  -0.208541D-03  -0.638476D-04
===================================
 --- Computing gradient for DRT:1, State; 4

starting cigrd.x -m 200000 at Sat Jun  4 01:46:18 EDT 2022

 -------------------- cigrd.x ------------------------
 Total energy (ciudg) :  -285.865575940882 
  Effective energy     :  -285.865575955267 
  Delta E              :     0.000000014385 
  --------------------------------------------------- 
 starting tran.x -m 200000  at Sat Jun  4 01:56:35 EDT 2022

 -------------------- tran.x ------------------------
 --------------------------------------------------- 
 starting pymolcas molcas.input.alaska > molcas.output.alaska  at Sat Jun  4 02:03:25 EDT 2022

Generating link ln -s ./molcas.OrdInt ORDINT 
 -------------------- alaska ------------------------
 --------------------------------------------------- 
 cartesian gradient by alaska (MOLCAS)

 === Gradient of DRT 1, state 4 === 
   0.362951D-01   0.173602D-01   0.125485D-01
   0.796614D-04   0.325920D-01   0.135405D-02
  -0.122332D-01   0.534137D-01  -0.169680D-02
   0.120817D-01   0.530748D-01  -0.177741D-02
  -0.193719D-01  -0.566386D-01   0.117576D-02
   0.195598D-01  -0.567365D-01   0.133814D-02
  -0.200418D-03  -0.682247D-02   0.262928D-03
  -0.388245D-01  -0.297368D-01  -0.114799D-01
   0.250641D-02  -0.718145D-02  -0.195596D-02
  -0.172212D-02  -0.434544D-03   0.431917D-04
   0.178786D-02  -0.456726D-03   0.178838D-03
  -0.645239D-03  -0.156219D-04   0.324077D-04
   0.681838D-03  -0.123542D-04   0.993378D-05
   0.499812D-05   0.159437D-02  -0.337111D-04
===================================
 --- Computing gradient for DRT:2, State; 1

starting cigrd.x -m 200000 at Sat Jun  4 02:04:41 EDT 2022

 -------------------- cigrd.x ------------------------
 Total energy (ciudg) :  -285.946842146602 
  Effective energy     :  -285.946842162511 
  Delta E              :     0.000000015909 
  --------------------------------------------------- 
 starting tran.x -m 200000  at Sat Jun  4 02:15:42 EDT 2022

 -------------------- tran.x ------------------------
 --------------------------------------------------- 
 starting pymolcas molcas.input.alaska > molcas.output.alaska  at Sat Jun  4 02:22:50 EDT 2022

Generating link ln -s ./molcas.OrdInt ORDINT 
 -------------------- alaska ------------------------
 --------------------------------------------------- 
 cartesian gradient by alaska (MOLCAS)

 === Gradient of DRT 2, state 1 === 
   0.352569D-01   0.523027D-01  -0.566759D-03
  -0.169849D-02   0.177205D-01  -0.546731D-02
   0.246594D-01  -0.218451D-01   0.298797D-02
  -0.227486D-01  -0.213653D-01   0.417557D-02
   0.331765D-01   0.233715D-01   0.263069D-02
  -0.352495D-01   0.246613D-01   0.245463D-02
   0.188051D-02  -0.366089D-01  -0.186422D-02
  -0.385423D-01  -0.296560D-01  -0.491427D-02
   0.328133D-02  -0.819464D-02   0.307576D-02
   0.167068D-02  -0.685239D-03  -0.750055D-03
  -0.171827D-02  -0.694533D-03  -0.696714D-03
   0.307926D-03   0.230789D-03  -0.112453D-03
  -0.318547D-03   0.271419D-03  -0.296199D-03
   0.424166D-04   0.491444D-03  -0.656647D-03
===================================
 --- Computing gradient for DRT:2, State; 2

starting cigrd.x -m 200000 at Sat Jun  4 02:24:09 EDT 2022

 -------------------- cigrd.x ------------------------
 Total energy (ciudg) :  -285.939060687438 
  Effective energy     :  -285.939060703791 
  Delta E              :     0.000000016353 
  --------------------------------------------------- 
 starting tran.x -m 200000  at Sat Jun  4 02:34:16 EDT 2022

 -------------------- tran.x ------------------------
 --------------------------------------------------- 
 starting pymolcas molcas.input.alaska > molcas.output.alaska  at Sat Jun  4 02:41:15 EDT 2022

Generating link ln -s ./molcas.OrdInt ORDINT 
 -------------------- alaska ------------------------
 --------------------------------------------------- 
 cartesian gradient by alaska (MOLCAS)

 === Gradient of DRT 2, state 2 === 
   0.340266D-01   0.543451D-02   0.245083D-01
   0.167320D-02   0.275480D-01   0.976240D-02
   0.110490D-01  -0.795273D-02  -0.408345D-02
  -0.126706D-01  -0.871694D-02  -0.565247D-02
   0.979025D-02   0.826163D-02  -0.378452D-02
  -0.813283D-02   0.727567D-02  -0.347175D-02
  -0.153361D-02  -0.473419D-02   0.397606D-02
  -0.301865D-01  -0.244355D-01  -0.163602D-01
  -0.398420D-02  -0.317711D-02  -0.707665D-02
  -0.929082D-03  -0.457505D-03   0.401963D-03
   0.939923D-03  -0.502821D-03   0.644347D-03
  -0.367019D-03   0.620810D-03   0.372451D-03
   0.364874D-03   0.590978D-03   0.424056D-03
  -0.399426D-04   0.245175D-03   0.339437D-03
===================================
 --- Computing gradient for DRT:2, State; 3

starting cigrd.x -m 200000 at Sat Jun  4 02:42:36 EDT 2022

 -------------------- cigrd.x ------------------------
 Total energy (ciudg) :  -285.930456056715 
  Effective energy     :  -285.930456074685 
  Delta E              :     0.000000017970 
  --------------------------------------------------- 
 starting tran.x -m 200000  at Sat Jun  4 02:52:56 EDT 2022

 -------------------- tran.x ------------------------
 --------------------------------------------------- 
 starting pymolcas molcas.input.alaska > molcas.output.alaska  at Sat Jun  4 02:59:47 EDT 2022

Generating link ln -s ./molcas.OrdInt ORDINT 
 -------------------- alaska ------------------------
 --------------------------------------------------- 
 cartesian gradient by alaska (MOLCAS)

 === Gradient of DRT 2, state 3 === 
   0.373282D-01   0.287203D-01   0.156340D-01
   0.175324D-02   0.825702D-02   0.122293D-02
   0.126246D-01   0.487392D-01  -0.171718D-02
  -0.135722D-01   0.491819D-01  -0.103095D-02
   0.142954D-01  -0.489853D-01   0.184853D-02
  -0.135930D-01  -0.491109D-01   0.915336D-03
  -0.324001D-03   0.115477D-01  -0.644809D-04
  -0.438749D-01  -0.363257D-01  -0.132800D-01
   0.537752D-02  -0.122860D-01  -0.298159D-02
   0.712356D-04   0.947031D-03  -0.715429D-04
  -0.205359D-04   0.909244D-03  -0.251830D-03
  -0.112699D-02  -0.328949D-03  -0.143639D-03
   0.106800D-02  -0.290435D-03  -0.288955D-04
  -0.658785D-05  -0.975126D-03  -0.506819D-04
===================================
 --- Computing gradient for DRT:2, State; 4

starting cigrd.x -m 200000 at Sat Jun  4 03:01:05 EDT 2022

 -------------------- cigrd.x ------------------------
[...]
  -3.787341E-01   1.210418E+00  -2.685784E+00
  -3.464657E-01   4.867542E-01   6.147235E-01
   6.110296E-01   4.548636E-01   7.152841E-01
  -1.677286E+00  -7.723155E-01   5.457606E-01
   1.417989E+00  -6.324696E-01   5.798367E-01
   2.109701E-01   1.842168E+00  -6.341217E-01
   1.645685E+00   1.069415E+00   2.265414E-01
  -1.301881E+00   7.837575E-01  -5.329380E-02
  -1.660431E-01   1.015984E-02  -1.203023E-01
   1.597385E-01   1.314872E-02  -1.104862E-01
  -2.410635E-02   1.033888E-02  -3.465415E-02
   3.163780E-02   9.196630E-03  -5.126928E-02
   4.868966E-03  -2.652599E-02  -6.185491E-02
===================================

 Norm of the nonadiabatic coupling vector: 
 |h(drt2.state1,drt2.state2)|= 6.94635743941577 

 Cross-check of the non-adiabatic coupling term:
  DeltaE= -0.00778145919997542

  <L>*dE form CIGRD   :   -0.0000111664     0.0000338338     0.0012478737
  <L>*dE form NADCOUPL:    0.0014420483    -0.0000848310     0.0002604895
 -------------------------------------------------------------------------
  Difference          :   -0.0014532147     0.0001186648     0.0009873842

 NOTE: This test is meaningless at a point of conical intersection!


 -------- NAD. COUPLING for DRT:2 STATE:1 AND DRT:2 STATE:3 --------
opening file =ciudgls.drt2.sp
opening file =ciudgls.drt2.sp
extracted: energy1= -285.9468421464   energy2=-285.9304560565   deltae=-0.0163860898999815
starting cigrd.x -m 200000 at Sat Jun  4 05:29:02 EDT 2022

 -------------------- cigrd.x ------------------------
 Total energy (ciudg) :     0.000000001821 
  Effective energy     :     0.000000001390 
  Delta E              :     0.000000000431 
  --------------------------------------------------- 
 starting tran.x -m 200000  at Sat Jun  4 05:38:46 EDT 2022

 -------------------- tran.x ------------------------
 --------------------------------------------------- 
  adding keyword NONUC to alaska input
starting pymolcas molcas.input.alaska > molcas.output.alaska  at Sat Jun  4 05:45:31 EDT 2022

Generating link ln -s ./molcas.OrdInt ORDINT 
 -------------------- alaska ------------------------
 --------------------------------------------------- 
 cartesian gradient by alaska (MOLCAS)

 Calculating the Dx(r,s) term of D[CSF] nonadiabatic coupling term.
dxcalc: INPUT LINE SEPARATOR 
 
starting tran.x -m 200000  at Sat Jun  4 05:46:43 EDT 2022

 -------------------- tran.x ------------------------
 --------------------------------------------------- 
 starting tdmrunfile.x > tdmrunfilels at Sat Jun  4 05:46:43 EDT 2022

 -------------------- tdmrunfile.x ------------------------
 --------------------------------------------------- 
 starting pymolcas molcas.input.alaska > molcas.output.alaska  at Sat Jun  4 05:46:44 EDT 2022

Generating link ln -s ./molcas.OrdInt ORDINT 
 -------------------- alaska ------------------------
 --------------------------------------------------- 
 
 === Non-adiabatic coupling for DRT 2 STATE 1 and DRT 2 STATE 3 === 
  -5.075445E-01  -2.261198E-03   5.316887E-02
   5.467911E+00   1.283036E-02  -3.563899E-02
  -2.584737E+00   4.673146E-01  -3.081175E-02
  -2.588643E+00  -5.787047E-01   1.031793E-02
   2.491137E+00   1.461485E+00  -2.696598E-04
   2.489355E+00  -1.359354E+00   5.027359E-02
  -4.534227E+00  -2.239539E-02  -3.590154E-02
  -5.407587E-02  -2.427790E-02  -1.497275E-01
  -6.426065E-02   4.658266E-02   1.308080E-01
   1.748898E-02   4.134368E-02   6.859415E-02
   1.820332E-02  -4.431196E-02  -6.754362E-02
  -2.463209E-02   3.432199E-02  -1.168819E-02
  -2.584291E-02  -3.277481E-02   2.099930E-02
  -1.035277E-01   8.418620E-04  -1.596731E-03
===================================

 Norm of the nonadiabatic coupling vector: 
 |h(drt2.state1,drt2.state3)|= 9.00688115072466 

 Cross-check of the non-adiabatic coupling term:
  DeltaE= -0.0163860898999815

  <L>*dE form CIGRD   :   -0.0000235140     0.0000712467     0.0026277553
  <L>*dE form NADCOUPL:    0.0001294808    -0.0008783578    -0.0183738261
 -------------------------------------------------------------------------
  Difference          :   -0.0001529949     0.0009496045     0.0210015814

 NOTE: This test is meaningless at a point of conical intersection!


 -------- NAD. COUPLING for DRT:2 STATE:1 AND DRT:2 STATE:4 --------
opening file =ciudgls.drt2.sp
opening file =ciudgls.drt2.sp
extracted: energy1= -285.9468421464   energy2=-285.9107849407   deltae=-0.0360572056999899
starting cigrd.x -m 200000 at Sat Jun  4 05:47:56 EDT 2022

 -------------------- cigrd.x ------------------------
 Total energy (ciudg) :    -0.000000000712 
  Effective energy     :    -0.000000011045 
  Delta E              :     0.000000010333 
  --------------------------------------------------- 
 starting tran.x -m 200000  at Sat Jun  4 05:57:19 EDT 2022

 -------------------- tran.x ------------------------
 --------------------------------------------------- 
  adding keyword NONUC to alaska input
starting pymolcas molcas.input.alaska > molcas.output.alaska  at Sat Jun  4 06:04:02 EDT 2022

Generating link ln -s ./molcas.OrdInt ORDINT 
 -------------------- alaska ------------------------
 --------------------------------------------------- 
 cartesian gradient by alaska (MOLCAS)

 Calculating the Dx(r,s) term of D[CSF] nonadiabatic coupling term.
dxcalc: INPUT LINE SEPARATOR 
 
starting tran.x -m 200000  at Sat Jun  4 06:05:14 EDT 2022

 -------------------- tran.x ------------------------
 --------------------------------------------------- 
 starting tdmrunfile.x > tdmrunfilels at Sat Jun  4 06:05:14 EDT 2022

 -------------------- tdmrunfile.x ------------------------
 --------------------------------------------------- 
 starting pymolcas molcas.input.alaska > molcas.output.alaska  at Sat Jun  4 06:05:14 EDT 2022

Generating link ln -s ./molcas.OrdInt ORDINT 
 -------------------- alaska ------------------------
 --------------------------------------------------- 
 
 === Non-adiabatic coupling for DRT 2 STATE 1 and DRT 2 STATE 4 === 
   1.082816E-02   5.483475E-02   6.914273E-03
  -1.045121E-02  -4.461167E-01   3.664671E-02
  -4.535085E-01   1.528154E+00  -3.921672E-02
   4.581463E-01   1.529065E+00  -4.511486E-02
  -5.139946E-01  -1.581751E+00   2.567000E-02
   5.103239E-01  -1.560421E+00   2.693469E-02
   1.135733E-02   5.677371E-01  -5.638460E-03
  -4.323965E-02  -3.707176E-02  -1.909849E-02
   3.036741E-02  -2.622210E-02  -5.110209E-03
  -2.285517E-02   1.379565E-02   7.695190E-03
   2.329295E-02   1.381336E-02   7.940078E-03
  -1.841187E-02  -1.927664E-02  -2.482381E-04
   1.809692E-02  -1.946798E-02   1.212195E-03
   1.076982E-04  -9.878790E-03   6.094916E-03
===================================

 Norm of the nonadiabatic coupling vector: 
 |h(drt2.state1,drt2.state4)|= 3.33013336907877 

 Cross-check of the non-adiabatic coupling term:
  DeltaE= -0.0360572056999899

  <L>*dE form CIGRD   :   -0.0000517421     0.0001567767     0.0057823138
  <L>*dE form NADCOUPL:    0.0007291987    -0.0000470350    -0.0000314905
 -------------------------------------------------------------------------
  Difference          :   -0.0007809408     0.0002038117     0.0058138043

 NOTE: This test is meaningless at a point of conical intersection!


 -------- NAD. COUPLING for DRT:2 STATE:2 AND DRT:2 STATE:3 --------
opening file =ciudgls.drt2.sp
opening file =ciudgls.drt2.sp
extracted: energy1= -285.9390606872   energy2=-285.9304560565   deltae=-0.00860463070000606
starting cigrd.x -m 200000 at Sat Jun  4 06:06:23 EDT 2022

 -------------------- cigrd.x ------------------------
 Total energy (ciudg) :    -0.000000000029 
  Effective energy     :     0.000000007508 
  Delta E              :    -0.000000007537 
  --------------------------------------------------- 
 starting tran.x -m 200000  at Sat Jun  4 06:16:00 EDT 2022

 -------------------- tran.x ------------------------
 --------------------------------------------------- 
  adding keyword NONUC to alaska input
starting pymolcas molcas.input.alaska > molcas.output.alaska  at Sat Jun  4 06:22:27 EDT 2022

Generating link ln -s ./molcas.OrdInt ORDINT 
 -------------------- alaska ------------------------
 --------------------------------------------------- 
 cartesian gradient by alaska (MOLCAS)

 Calculating the Dx(r,s) term of D[CSF] nonadiabatic coupling term.
dxcalc: INPUT LINE SEPARATOR 
 
starting tran.x -m 200000  at Sat Jun  4 06:23:34 EDT 2022

 -------------------- tran.x ------------------------
 --------------------------------------------------- 
 starting tdmrunfile.x > tdmrunfilels at Sat Jun  4 06:23:34 EDT 2022

 -------------------- tdmrunfile.x ------------------------
 --------------------------------------------------- 
 starting pymolcas molcas.input.alaska > molcas.output.alaska  at Sat Jun  4 06:23:34 EDT 2022

Generating link ln -s ./molcas.OrdInt ORDINT 
 -------------------- alaska ------------------------
 --------------------------------------------------- 
 
 === Non-adiabatic coupling for DRT 2 STATE 2 and DRT 2 STATE 3 === 
  -7.955951E-01   7.761003E-02  -1.230509E-01
   4.214011E+00  -6.324184E-02   1.857395E-02
  -1.950024E+00   8.446428E-01   6.456464E-01
  -1.959178E+00  -4.945623E-01  -5.721048E-01
   1.871235E+00   7.349547E-01  -4.468674E-01
   1.801094E+00  -1.070206E+00   4.522206E-01
  -3.342323E+00   3.015554E-02  -2.403544E-03
   1.280552E-01   1.686105E-03   1.734070E-01
   1.600956E-01  -5.904723E-02  -1.105058E-01
  -1.489135E-05   3.184675E-02  -2.528629E-01
  -9.584209E-03  -2.196443E-02   2.522885E-01
  -2.243088E-02   2.083090E-02   6.570007E-02
  -1.898693E-02  -2.946565E-02  -9.875406E-02
  -8.051515E-02  -4.164083E-03  -9.950304E-04
===================================

 Norm of the nonadiabatic coupling vector: 
 |h(drt2.state2,drt2.state3)|= 6.92866645482489 

 Cross-check of the non-adiabatic coupling term:
  DeltaE= -0.00860463070000606

  <L>*dE form CIGRD   :   -0.0000123476     0.0000374129     0.0013798816
  <L>*dE form NADCOUPL:    0.0000266033     0.0007306139    -0.0038977414
 -------------------------------------------------------------------------
  Difference          :   -0.0000389510    -0.0006932010     0.0052776230

 NOTE: This test is meaningless at a point of conical intersection!


 -------- NAD. COUPLING for DRT:2 STATE:2 AND DRT:2 STATE:4 --------
opening file =ciudgls.drt2.sp
opening file =ciudgls.drt2.sp
extracted: energy1= -285.9390606872   energy2=-285.9107849407   deltae=-0.0282757465000145
starting cigrd.x -m 200000 at Sat Jun  4 06:24:39 EDT 2022

 -------------------- cigrd.x ------------------------
 Total energy (ciudg) :    -0.000000000629 
  Effective energy     :    -0.000000010810 
  Delta E              :     0.000000010181 
  --------------------------------------------------- 
 starting tran.x -m 200000  at Sat Jun  4 06:34:20 EDT 2022

 -------------------- tran.x ------------------------
 --------------------------------------------------- 
  adding keyword NONUC to alaska input
starting pymolcas molcas.input.alaska > molcas.output.alaska  at Sat Jun  4 06:40:54 EDT 2022

Generating link ln -s ./molcas.OrdInt ORDINT 
 -------------------- alaska ------------------------
 --------------------------------------------------- 
 cartesian gradient by alaska (MOLCAS)

 Calculating the Dx(r,s) term of D[CSF] nonadiabatic coupling term.
dxcalc: INPUT LINE SEPARATOR 
 
starting tran.x -m 200000  at Sat Jun  4 06:41:58 EDT 2022

 -------------------- tran.x ------------------------
 --------------------------------------------------- 
 starting tdmrunfile.x > tdmrunfilels at Sat Jun  4 06:41:59 EDT 2022

 -------------------- tdmrunfile.x ------------------------
 --------------------------------------------------- 
 starting pymolcas molcas.input.alaska > molcas.output.alaska  at Sat Jun  4 06:41:59 EDT 2022

Generating link ln -s ./molcas.OrdInt ORDINT 
 -------------------- alaska ------------------------
 --------------------------------------------------- 
 
 === Non-adiabatic coupling for DRT 2 STATE 2 and DRT 2 STATE 4 === 
  -1.869080E-02  -1.810943E-02  -5.540843E-02
   3.887559E-02  -2.448540E-01  -2.364197E-01
  -2.570779E-01   8.819885E-01   4.952441E-02
   2.357209E-01   8.788827E-01   6.781334E-02
  -2.687093E-01  -8.757943E-01   1.141379E-01
   2.848736E-01  -9.248328E-01   1.182779E-01
  -3.132060E-02   2.784422E-01  -1.033244E-01
   4.666366E-02   2.483445E-02   6.106097E-02
  -2.977228E-02   1.018484E-02   4.547907E-02
  -1.113499E-02   8.027253E-03  -2.319411E-02
   9.712578E-03   8.294329E-03  -2.360394E-02
  -8.255099E-03  -1.296055E-02  -6.118208E-03
   9.219708E-03  -1.227805E-02  -8.924477E-03
  -2.791169E-04  -6.047690E-03  -1.093771E-02
===================================

 Norm of the nonadiabatic coupling vector: 
 |h(drt2.state2,drt2.state4)|= 1.92453001493072 

 Cross-check of the non-adiabatic coupling term:
  DeltaE= -0.0282757465000145

  <L>*dE form CIGRD   :   -0.0000405757     0.0001229429     0.0045344401
  <L>*dE form NADCOUPL:   -0.0012533595     0.0000918113    -0.0000280618
 -------------------------------------------------------------------------
  Difference          :    0.0012127838     0.0000311317     0.0045625019

 NOTE: This test is meaningless at a point of conical intersection!


 -------- NAD. COUPLING for DRT:2 STATE:3 AND DRT:2 STATE:4 --------
opening file =ciudgls.drt2.sp
opening file =ciudgls.drt2.sp
extracted: energy1= -285.9304560565   energy2=-285.9107849407   deltae=-0.0196711158000085
starting cigrd.x -m 200000 at Sat Jun  4 06:43:03 EDT 2022

 -------------------- cigrd.x ------------------------
 Total energy (ciudg) :    -0.000000001275 
  Effective energy     :    -0.000000005434 
  Delta E              :     0.000000004159 
  --------------------------------------------------- 
 starting tran.x -m 200000  at Sat Jun  4 06:52:32 EDT 2022

 -------------------- tran.x ------------------------
 --------------------------------------------------- 
  adding keyword NONUC to alaska input
starting pymolcas molcas.input.alaska > molcas.output.alaska  at Sat Jun  4 06:59:13 EDT 2022

Generating link ln -s ./molcas.OrdInt ORDINT 
 -------------------- alaska ------------------------
 --------------------------------------------------- 
 cartesian gradient by alaska (MOLCAS)

 Calculating the Dx(r,s) term of D[CSF] nonadiabatic coupling term.
dxcalc: INPUT LINE SEPARATOR 
 
starting tran.x -m 200000  at Sat Jun  4 07:00:24 EDT 2022

 -------------------- tran.x ------------------------
 --------------------------------------------------- 
 starting tdmrunfile.x > tdmrunfilels at Sat Jun  4 07:00:24 EDT 2022

 -------------------- tdmrunfile.x ------------------------
 --------------------------------------------------- 
 starting pymolcas molcas.input.alaska > molcas.output.alaska  at Sat Jun  4 07:00:24 EDT 2022

Generating link ln -s ./molcas.OrdInt ORDINT 
 -------------------- alaska ------------------------
 --------------------------------------------------- 
 
 === Non-adiabatic coupling for DRT 2 STATE 3 and DRT 2 STATE 4 === 
   2.768818E-01   1.955544E-03  -3.580321E-03
  -2.154856E+00  -4.951250E-03  -1.350429E-02
   5.967310E-01  -2.226967E-01   2.277818E-02
   5.945068E-01   2.268512E-01  -1.443328E-02
  -3.658410E-01  -9.764049E-01   2.094486E-02
  -3.676410E-01   9.741539E-01  -1.452722E-02
   1.404396E+00  -2.899982E-03  -2.127155E-03
   6.371648E-04   2.857057E-02   1.563130E-02
  -3.280568E-03  -2.489396E-02  -9.984532E-03
   2.025330E-02   9.584593E-03  -8.828229E-03
   2.004394E-02  -9.499428E-03   5.963979E-03
  -1.757089E-02   2.043818E-02  -1.549213E-03
  -1.781399E-02  -2.034148E-02   3.280052E-03
   8.263842E-03   1.013650E-04  -4.955718E-04
===================================

 Norm of the nonadiabatic coupling vector: 
 |h(drt2.state3,drt2.state4)|= 3.11132939423774 

 Cross-check of the non-adiabatic coupling term:
  DeltaE= -0.0196711158000085

  <L>*dE form CIGRD   :   -0.0000282281     0.0000855300     0.0031545585
  <L>*dE form NADCOUPL:   -0.0000285360     0.0000863614     0.0031561384
 -------------------------------------------------------------------------
  Difference          :    0.0000003079    -0.0000008314    -0.0000015799

 NOTE: This test is meaningless at a point of conical intersection!



============== timings ===================

   unik.gets.x    
   mcdrt.x        
   mcuft.x        
 * mcscf.x          walltime    0:03:03
   mcpc.x         
   mcpc.x         
   mcpc.x         
   mcpc.x         
   exptvl.x       
   exptvl.x       
   exptvl.x       
   exptvl.x       
   cidrt.x        
   cidrt.x        
 * tran.x           walltime    0:07:32
 * pciudg.x -m 19000   walltime   17:35:26
 * cipc.x           walltime    0:00:11
 * pciudg.x -m 19000   walltime   40:48:49
 * cipc.x           walltime    0:00:19
 * reindex.x        walltime    0:03:54
 * pciudg.x -m 19000   walltime    1:51:51
 * transci.x        walltime    0:02:14
 * transci.x        walltime    0:02:14
 * transci.x        walltime    0:02:12
 * transci.x        walltime    0:02:06
 * transci.x        walltime    0:02:14
 * transci.x        walltime    0:02:15
 * transci.x        walltime    0:04:02
 * transci.x        walltime    0:04:00
 * transci.x        walltime    0:04:01
 * transci.x        walltime    0:03:58
 * transci.x        walltime    0:03:56
 * transci.x        walltime    0:03:56
   exptvl.x       
   exptvl.x       
   exptvl.x       
   exptvl.x       
   exptvl.x       
   exptvl.x       
   exptvl.x       
   exptvl.x       
   mo_convert.x   
   mo_convert.x   
   mo_convert.x   
   mo_convert.x   
   mo_convert.x   
   mo_convert.x   
   mo_convert.x   
   mo_convert.x   
   mo_convert.x   
   mo_convert.x   
   mo_convert.x   
   mo_convert.x   
   mo_convert.x   
   mo_convert.x   
 * cidrt.x          walltime    0:00:06
 * tran.x           walltime    0:08:02
 * cigrd.x          walltime    0:09:15
 * tran.x           walltime    0:06:59
 * cigrd.x          walltime    0:10:42
 * tran.x           walltime    0:07:03
 * cigrd.x          walltime    0:09:40
 * tran.x           walltime    0:07:00
 * cigrd.x          walltime    0:10:15
 * tran.x           walltime    0:06:49
 * cigrd.x          walltime    0:11:00
 * tran.x           walltime    0:07:07
 * cigrd.x          walltime    0:10:05
 * tran.x           walltime    0:06:58
 * cigrd.x          walltime    0:10:19
 * tran.x           walltime    0:06:50
 * cigrd.x          walltime    0:10:02
 * tran.x           walltime    0:06:55
 * cigrd.x          walltime    0:09:48
 * tran.x           walltime    0:06:37
   tran.x         
   tdmrunfile.x   
 * cigrd.x          walltime    0:10:08
 * tran.x           walltime    0:06:36
   tran.x         
   tdmrunfile.x   
 * cigrd.x          walltime    0:09:12
 * tran.x           walltime    0:06:15
   tran.x         
   tdmrunfile.x   
 * cigrd.x          walltime    0:09:54
 * tran.x           walltime    0:06:22
   tran.x         
   tdmrunfile.x   
 * cigrd.x          walltime    0:09:34
 * tran.x           walltime    0:06:31
   tran.x         
   tdmrunfile.x   
 * cigrd.x          walltime    0:09:42
 * tran.x           walltime    0:06:30
   tran.x         
   tdmrunfile.x   
 * cigrd.x          walltime    0:09:47
 * tran.x           walltime    0:06:46
   tran.x         
   tdmrunfile.x   
 * cigrd.x          walltime    0:09:43
 * tran.x           walltime    0:06:44
   tran.x         
   tdmrunfile.x   
 * cigrd.x          walltime    0:09:22
 * tran.x           walltime    0:06:43
   tran.x         
   tdmrunfile.x   
 * cigrd.x          walltime    0:09:36
 * tran.x           walltime    0:06:26
   tran.x         
   tdmrunfile.x   
 * cigrd.x          walltime    0:09:40
 * tran.x           walltime    0:06:34
   tran.x         
   tdmrunfile.x   
 * cigrd.x          walltime    0:09:28
 * tran.x           walltime    0:06:40
   tran.x         
   tdmrunfile.x   

==========================================

