[Molden Format]
[Atoms] AU
  N     1    7     0.0000000000   -4.2907334100    0.0000000000        
  C     2    6     0.0000000000   -1.7772236300    0.0000000000        
  C     3    6    -2.3389203600   -0.4111016300    0.0000000000        
  C     4    6     2.3389203600   -0.4111016300    0.0000000000        
  C     5    6    -2.2998668500    2.1639215300    0.0000000000        
  C     6    6     2.2998668500    2.1639215300    0.0000000000        
  C     7    6     0.0000000000    3.4755251800    0.0000000000        
  H     8    1    -2.5732809600   -5.8782318000    0.0000000000        
  H     9    1     1.6528040300   -5.3103747800    0.0000000000        
  H    10    1    -4.0745407300   -1.4447408500    0.0000000000        
  H    11    1     4.0745407300   -1.4447408500    0.0000000000        
  H    12    1    -4.0420632100    3.1963889500    0.0000000000        
  H    13    1     4.0420632100    3.1963889500    0.0000000000        
  H    14    1     0.0000000000    5.5020335600    0.0000000000        
[5D]
[7F]
[GTO]
  1  0
   s    12 1.00
  0.114200D+05  0.172695D-04
  0.171200D+04  0.134411D-03
  0.389300D+03  0.694561D-03
  0.110000D+03  0.278531D-02
  0.355700D+02  0.863457D-02
  0.125400D+02  0.199805D-01
  0.464400D+01  0.262908D-01
  0.129300D+01 -0.243845D-01
  0.511800D+00 -0.924934D-01
  0.178700D+00 -0.339683D+00
  0.246240D-01  0.345111D+00
  0.112530D-01  0.752750D+00
   s    10 1.00
  0.114200D+05  0.523000D-03
  0.171200D+04  0.404500D-02
  0.389300D+03  0.207750D-01
  0.110000D+03  0.807269D-01
  0.355700D+02  0.233074D+00
  0.125400D+02  0.433501D+00
  0.464400D+01  0.347472D+00
  0.129300D+01  0.412620D-01
  0.511800D+00 -0.850799D-02
  0.178700D+00  0.238400D-02
   s    10 1.00
  0.114200D+05 -0.115000D-03
  0.171200D+04 -0.895000D-03
  0.389300D+03 -0.462400D-02
  0.110000D+03 -0.185280D-01
  0.355700D+02 -0.573390D-01
  0.125400D+02 -0.132076D+00
  0.464400D+01 -0.172510D+00
  0.129300D+01  0.151814D+00
  0.511800D+00  0.599944D+00
  0.178700D+00  0.387462D+00
   s     1 1.00
  0.129300D+01  0.100000D+01
   s     1 1.00
  0.178700D+00  0.100000D+01
   p     5 1.00
  0.266300D+02  0.146700D-01
  0.594800D+01  0.917640D-01
  0.174200D+01  0.298683D+00
  0.555000D+00  0.498487D+00
  0.172500D+00  0.337023D+00
   p     1 1.00
  0.174200D+01  0.100000D+01
   p     1 1.00
  0.555000D+00  0.100000D+01
   d     1 1.00
  0.165400D+01  0.100000D+01
   d     1 1.00
  0.469000D+00  0.100000D+01
   f     1 1.00
  0.109300D+01  0.100000D+01
  
  2  0
   s    10 1.00
  0.823600D+04  0.531000D-03
  0.123500D+04  0.410800D-02
  0.280800D+03  0.210870D-01
  0.792700D+02  0.818530D-01
  0.255900D+02  0.234817D+00
  0.899700D+01  0.434401D+00
  0.331900D+01  0.346129D+00
  0.905900D+00  0.393780D-01
  0.364300D+00 -0.898300D-02
  0.128500D+00  0.238500D-02
   s    10 1.00
  0.823600D+04 -0.113000D-03
  0.123500D+04 -0.878000D-03
  0.280800D+03 -0.454000D-02
  0.792700D+02 -0.181330D-01
  0.255900D+02 -0.557600D-01
  0.899700D+01 -0.126895D+00
  0.331900D+01 -0.170352D+00
  0.905900D+00  0.140382D+00
  0.364300D+00  0.598684D+00
  0.128500D+00  0.395389D+00
   s     1 1.00
  0.905900D+00  0.100000D+01
   s     1 1.00
  0.364300D+00  0.100000D+01
   p     5 1.00
  0.187100D+02  0.140310D-01
  0.413300D+01  0.868660D-01
  0.120000D+01  0.290216D+00
  0.382700D+00  0.501008D+00
  0.120900D+00  0.343406D+00
   p     1 1.00
  0.382700D+00  0.100000D+01
   p     1 1.00
  0.120900D+00  0.100000D+01
   d     1 1.00
  0.109700D+01  0.100000D+01
   d     1 1.00
  0.318000D+00  0.100000D+01
   f     1 1.00
  0.761000D+00  0.100000D+01
  
  3  0
   s    10 1.00
  0.823600D+04  0.531000D-03
  0.123500D+04  0.410800D-02
  0.280800D+03  0.210870D-01
  0.792700D+02  0.818530D-01
  0.255900D+02  0.234817D+00
  0.899700D+01  0.434401D+00
  0.331900D+01  0.346129D+00
  0.905900D+00  0.393780D-01
  0.364300D+00 -0.898300D-02
  0.128500D+00  0.238500D-02
   s    10 1.00
  0.823600D+04 -0.113000D-03
  0.123500D+04 -0.878000D-03
  0.280800D+03 -0.454000D-02
  0.792700D+02 -0.181330D-01
  0.255900D+02 -0.557600D-01
  0.899700D+01 -0.126895D+00
  0.331900D+01 -0.170352D+00
  0.905900D+00  0.140382D+00
  0.364300D+00  0.598684D+00
  0.128500D+00  0.395389D+00
   s     1 1.00
  0.905900D+00  0.100000D+01
   s     1 1.00
  0.364300D+00  0.100000D+01
   p     5 1.00
  0.187100D+02  0.140310D-01
  0.413300D+01  0.868660D-01
  0.120000D+01  0.290216D+00
  0.382700D+00  0.501008D+00
  0.120900D+00  0.343406D+00
   p     1 1.00
  0.382700D+00  0.100000D+01
   p     1 1.00
  0.120900D+00  0.100000D+01
   d     1 1.00
  0.109700D+01  0.100000D+01
   d     1 1.00
  0.318000D+00  0.100000D+01
   f     1 1.00
  0.761000D+00  0.100000D+01
  
  4  0
   s    10 1.00
  0.823600D+04  0.531000D-03
  0.123500D+04  0.410800D-02
  0.280800D+03  0.210870D-01
  0.792700D+02  0.818530D-01
  0.255900D+02  0.234817D+00
  0.899700D+01  0.434401D+00
  0.331900D+01  0.346129D+00
  0.905900D+00  0.393780D-01
  0.364300D+00 -0.898300D-02
  0.128500D+00  0.238500D-02
   s    10 1.00
  0.823600D+04 -0.113000D-03
  0.123500D+04 -0.878000D-03
  0.280800D+03 -0.454000D-02
  0.792700D+02 -0.181330D-01
  0.255900D+02 -0.557600D-01
  0.899700D+01 -0.126895D+00
  0.331900D+01 -0.170352D+00
  0.905900D+00  0.140382D+00
  0.364300D+00  0.598684D+00
  0.128500D+00  0.395389D+00
   s     1 1.00
  0.905900D+00  0.100000D+01
   s     1 1.00
  0.364300D+00  0.100000D+01
   p     5 1.00
  0.187100D+02  0.140310D-01
  0.413300D+01  0.868660D-01
  0.120000D+01  0.290216D+00
  0.382700D+00  0.501008D+00
  0.120900D+00  0.343406D+00
   p     1 1.00
  0.382700D+00  0.100000D+01
   p     1 1.00
  0.120900D+00  0.100000D+01
   d     1 1.00
  0.109700D+01  0.100000D+01
   d     1 1.00
  0.318000D+00  0.100000D+01
   f     1 1.00
  0.761000D+00  0.100000D+01
  
  5  0
   s    10 1.00
  0.823600D+04  0.531000D-03
  0.123500D+04  0.410800D-02
  0.280800D+03  0.210870D-01
  0.792700D+02  0.818530D-01
  0.255900D+02  0.234817D+00
  0.899700D+01  0.434401D+00
  0.331900D+01  0.346129D+00
  0.905900D+00  0.393780D-01
  0.364300D+00 -0.898300D-02
  0.128500D+00  0.238500D-02
   s    10 1.00
  0.823600D+04 -0.113000D-03
  0.123500D+04 -0.878000D-03
  0.280800D+03 -0.454000D-02
  0.792700D+02 -0.181330D-01
  0.255900D+02 -0.557600D-01
  0.899700D+01 -0.126895D+00
  0.331900D+01 -0.170352D+00
  0.905900D+00  0.140382D+00
  0.364300D+00  0.598684D+00
  0.128500D+00  0.395389D+00
   s     1 1.00
  0.905900D+00  0.100000D+01
   s     1 1.00
  0.364300D+00  0.100000D+01
   p     5 1.00
  0.187100D+02  0.140310D-01
  0.413300D+01  0.868660D-01
  0.120000D+01  0.290216D+00
  0.382700D+00  0.501008D+00
  0.120900D+00  0.343406D+00
   p     1 1.00
  0.382700D+00  0.100000D+01
   p     1 1.00
  0.120900D+00  0.100000D+01
   d     1 1.00
  0.109700D+01  0.100000D+01
   d     1 1.00
  0.318000D+00  0.100000D+01
   f     1 1.00
  0.761000D+00  0.100000D+01
  
  6  0
   s    10 1.00
  0.823600D+04  0.531000D-03
  0.123500D+04  0.410800D-02
  0.280800D+03  0.210870D-01
  0.792700D+02  0.818530D-01
  0.255900D+02  0.234817D+00
  0.899700D+01  0.434401D+00
  0.331900D+01  0.346129D+00
  0.905900D+00  0.393780D-01
  0.364300D+00 -0.898300D-02
  0.128500D+00  0.238500D-02
   s    10 1.00
  0.823600D+04 -0.113000D-03
  0.123500D+04 -0.878000D-03
  0.280800D+03 -0.454000D-02
  0.792700D+02 -0.181330D-01
  0.255900D+02 -0.557600D-01
  0.899700D+01 -0.126895D+00
  0.331900D+01 -0.170352D+00
  0.905900D+00  0.140382D+00
  0.364300D+00  0.598684D+00
  0.128500D+00  0.395389D+00
   s     1 1.00
  0.905900D+00  0.100000D+01
   s     1 1.00
  0.364300D+00  0.100000D+01
   p     5 1.00
  0.187100D+02  0.140310D-01
  0.413300D+01  0.868660D-01
  0.120000D+01  0.290216D+00
  0.382700D+00  0.501008D+00
  0.120900D+00  0.343406D+00
   p     1 1.00
  0.382700D+00  0.100000D+01
   p     1 1.00
  0.120900D+00  0.100000D+01
   d     1 1.00
  0.109700D+01  0.100000D+01
   d     1 1.00
  0.318000D+00  0.100000D+01
   f     1 1.00
  0.761000D+00  0.100000D+01
  
  7  0
   s    10 1.00
  0.823600D+04  0.531000D-03
  0.123500D+04  0.410800D-02
  0.280800D+03  0.210870D-01
  0.792700D+02  0.818530D-01
  0.255900D+02  0.234817D+00
  0.899700D+01  0.434401D+00
  0.331900D+01  0.346129D+00
  0.905900D+00  0.393780D-01
  0.364300D+00 -0.898300D-02
  0.128500D+00  0.238500D-02
   s    10 1.00
  0.823600D+04 -0.113000D-03
  0.123500D+04 -0.878000D-03
  0.280800D+03 -0.454000D-02
  0.792700D+02 -0.181330D-01
  0.255900D+02 -0.557600D-01
  0.899700D+01 -0.126895D+00
  0.331900D+01 -0.170352D+00
  0.905900D+00  0.140382D+00
  0.364300D+00  0.598684D+00
  0.128500D+00  0.395389D+00
   s     1 1.00
  0.905900D+00  0.100000D+01
   s     1 1.00
  0.364300D+00  0.100000D+01
   p     5 1.00
  0.187100D+02  0.140310D-01
  0.413300D+01  0.868660D-01
  0.120000D+01  0.290216D+00
  0.382700D+00  0.501008D+00
  0.120900D+00  0.343406D+00
   p     1 1.00
  0.382700D+00  0.100000D+01
   p     1 1.00
  0.120900D+00  0.100000D+01
   d     1 1.00
  0.109700D+01  0.100000D+01
   d     1 1.00
  0.318000D+00  0.100000D+01
   f     1 1.00
  0.761000D+00  0.100000D+01
  
  8  0
   s     4 1.00
  0.130100D+02  0.196850D-01
  0.196200D+01  0.137977D+00
  0.444600D+00  0.478148D+00
  0.122000D+00  0.501240D+00
   s     1 1.00
  0.122000D+00  0.100000D+01
   p     1 1.00
  0.727000D+00  0.100000D+01
  
  9  0
   s     4 1.00
  0.130100D+02  0.196850D-01
  0.196200D+01  0.137977D+00
  0.444600D+00  0.478148D+00
  0.122000D+00  0.501240D+00
   s     1 1.00
  0.122000D+00  0.100000D+01
   p     1 1.00
  0.727000D+00  0.100000D+01
  
 10  0
   s     4 1.00
  0.130100D+02  0.196850D-01
  0.196200D+01  0.137977D+00
  0.444600D+00  0.478148D+00
  0.122000D+00  0.501240D+00
   s     1 1.00
  0.122000D+00  0.100000D+01
   p     1 1.00
  0.727000D+00  0.100000D+01
  
 11  0
   s     4 1.00
  0.130100D+02  0.196850D-01
  0.196200D+01  0.137977D+00
  0.444600D+00  0.478148D+00
  0.122000D+00  0.501240D+00
   s     1 1.00
  0.122000D+00  0.100000D+01
   p     1 1.00
  0.727000D+00  0.100000D+01
  
 12  0
   s     4 1.00
  0.130100D+02  0.196850D-01
  0.196200D+01  0.137977D+00
  0.444600D+00  0.478148D+00
  0.122000D+00  0.501240D+00
   s     1 1.00
  0.122000D+00  0.100000D+01
   p     1 1.00
  0.727000D+00  0.100000D+01
  
 13  0
   s     4 1.00
  0.130100D+02  0.196850D-01
  0.196200D+01  0.137977D+00
  0.444600D+00  0.478148D+00
  0.122000D+00  0.501240D+00
   s     1 1.00
  0.122000D+00  0.100000D+01
   p     1 1.00
  0.727000D+00  0.100000D+01
  
 14  0
   s     4 1.00
  0.130100D+02  0.196850D-01
  0.196200D+01  0.137977D+00
  0.444600D+00  0.478148D+00
  0.122000D+00  0.501240D+00
   s     1 1.00
  0.122000D+00  0.100000D+01
   p     1 1.00
  0.727000D+00  0.100000D+01
  
[MO]
 Sym= __1_A'_
 Ene=   1.00000000000000     
 Spin= Alpha
 Occup=    1.00000000000000     
                     1  6.897381922705278E-005
                     2  0.998379799810615     
                     3  2.345213511682499E-003
                     4  1.775970211423156E-003
                     5  4.609262452401734E-003
                     6  2.912313555965771E-003
                     7  5.822041878220946E-003
                     8  0.000000000000000E+000
                     9 -5.755422910690284E-004
                    10 -4.274955302905539E-004
                    11  0.000000000000000E+000
                    12 -2.169950152960815E-003
                    13 -1.267978329453218E-003
                    14  0.000000000000000E+000
                    15 -1.251684648722976E-004
                    16  0.000000000000000E+000
                    17  0.000000000000000E+000
                    18 -2.019143774599742E-004
                    19 -9.142008676144544E-005
                    20  2.109628976747572E-004
                    21  0.000000000000000E+000
                    22  0.000000000000000E+000
                    23 -2.403122557920422E-004
                    24  5.309171825561302E-004
                    25  0.000000000000000E+000
                    26 -5.823173488779294E-006
                    27 -5.382101843603534E-005
                    28  0.000000000000000E+000
                    29  0.000000000000000E+000
                    30  1.412030068760085E-005
                    31 -1.326651519957108E-004
                    32 -3.134645203006918E-004
                    33  1.490843183987529E-003
                    34  2.481955058480038E-004
                    35 -2.711487262467134E-004
                    36 -1.690218263180067E-004
                    37 -4.928509654382602E-003
                    38  0.000000000000000E+000
                    39  4.452170967063186E-004
                    40  2.503411211131716E-004
                    41  0.000000000000000E+000
                    42 -1.872883262571175E-003
                    43  5.114838751184352E-003
                    44  0.000000000000000E+000
                    45 -2.371934595541778E-005
                    46  0.000000000000000E+000
                    47  0.000000000000000E+000
                    48 -2.483796008398342E-004
                    49 -1.613474174381511E-005
                    50 -2.741901768836413E-004
                    51  0.000000000000000E+000
                    52  0.000000000000000E+000
                    53  8.656056788955710E-005
                    54  7.456995077344874E-004
                    55  0.000000000000000E+000
                    56 -1.403399153819136E-005
                    57 -4.608825888347336E-005
                    58  0.000000000000000E+000
                    59  0.000000000000000E+000
                    60 -3.175931508976371E-006
                    61 -1.259065031751260E-004
                    62 -4.385206241110830E-004
                    63 -2.094833010934642E-003
                    64 -7.753372125742465E-005
                    65  1.875862775664173E-003
                    66 -6.973631826288527E-004
                    67  5.199761020704538E-004
                    68  0.000000000000000E+000
                    69  4.146555322746801E-004
                    70  7.651545012067714E-004
                    71  0.000000000000000E+000
                    72 -1.568481748929566E-003
                    73  6.327704012332312E-004
                    74  0.000000000000000E+000
                    75 -3.838671069420298E-005
                    76  0.000000000000000E+000
                    77  0.000000000000000E+000
                    78 -8.287762116698401E-005
                    79 -3.026598455431155E-005
                    80 -1.213972223837498E-004
                    81  0.000000000000000E+000
                    82  0.000000000000000E+000
                    83  9.978303951040020E-005
                    84  1.199182719918487E-004
                    85  0.000000000000000E+000
                    86  1.185192260610806E-005
                    87 -4.649442166346821E-005
                    88  0.000000000000000E+000
                    89  0.000000000000000E+000
                    90 -2.023563149028691E-005
                    91 -1.424292229709823E-004
                    92 -1.365906450318445E-004
                    93 -1.075269272150158E-003
                    94  1.990392367502087E-004
                    95 -2.543816217604957E-004
                    96  5.914079571591223E-004
                    97  6.849028822775859E-004
                    98  0.000000000000000E+000
                    99  3.996401012835244E-004
                   100  3.564916140320706E-004
                   101  0.000000000000000E+000
                   102  4.692323065901855E-004
                   103 -1.247035416138520E-003
                   104  0.000000000000000E+000
                   105 -2.860417610039624E-006
                   106  0.000000000000000E+000
                   107  0.000000000000000E+000
                   108 -7.142969637734386E-005
                   109 -1.531263235540559E-005
                   110  1.141300447362829E-004
                   111  0.000000000000000E+000
                   112  0.000000000000000E+000
                   113 -1.091962566009055E-004
                   114 -7.653119810947112E-005
                   115  0.000000000000000E+000
                   116 -2.352057977113751E-005
                   117 -3.070014500626429E-005
                   118  0.000000000000000E+000
                   119  0.000000000000000E+000
                   120  1.247237975876251E-005
                   121 -3.258141521109529E-005
                   122 -2.469433245464028E-004
                   123 -4.680446978339786E-004
                   124  1.610317308608054E-004
                   125  3.457520345953193E-004
                   126 -4.083351421928495E-006
                   127 -5.585735245859759E-004
                   128  0.000000000000000E+000
                   129  1.551636399483933E-004
                   130  5.610871096062398E-004
                   131  0.000000000000000E+000
                   132  3.099312152007248E-004
                   133  1.793553478078169E-003
                   134  0.000000000000000E+000
                   135  1.265662261202324E-005
                   136  0.000000000000000E+000
                   137  0.000000000000000E+000
                   138  3.904616533748562E-005
                   139  3.438784776692541E-007
                   140  1.830595283447003E-004
                   141  0.000000000000000E+000
                   142  0.000000000000000E+000
                   143  3.251735812725452E-004
                   144  2.423892283957049E-004
                   145  0.000000000000000E+000
                   146 -8.101110729234807E-006
                   147 -5.620691127105558E-005
                   148  0.000000000000000E+000
                   149  0.000000000000000E+000
                   150 -1.677628007943448E-005
                   151 -4.494730854871153E-005
                   152 -1.723105272683774E-004
                   153 -2.300314717617162E-004
                   154  4.397658712013277E-005
                   155  3.594170745658476E-004
                   156 -2.906780496261423E-005
                   157 -5.066234347391996E-004
                   158  0.000000000000000E+000
                   159  1.084315682558229E-005
                   160  8.041669356026052E-005
                   161  0.000000000000000E+000
                   162  6.530016497041339E-004
                   163 -1.257253577901863E-004
                   164  0.000000000000000E+000
                   165 -1.664021475756720E-006
                   166  0.000000000000000E+000
                   167  0.000000000000000E+000
                   168 -5.206757760655362E-006
                   169  3.700966259499829E-006
                   170  6.606466903443042E-005
                   171  0.000000000000000E+000
                   172  0.000000000000000E+000
                   173  2.987043639354744E-005
                   174 -4.935362091044103E-005
                   175  0.000000000000000E+000
                   176  4.111096888417885E-006
                   177 -1.079065844765669E-005
                   178  0.000000000000000E+000
                   179  0.000000000000000E+000
                   180 -1.942030347370549E-005
                   181 -1.082247010134652E-005
                   182 -1.599745427629516E-004
                   183 -4.526717623272415E-004
                   184  4.523203350170764E-005
                   185  2.272767747256297E-004
                   186 -3.241948053119118E-005
                   187 -5.338306102846994E-005
                   188  0.000000000000000E+000
                   189  1.732834083121174E-004
                   190  5.705485770707967E-005
                   191  0.000000000000000E+000
                   192  1.089833585658229E-003
                   193 -1.322261001949667E-004
                   194  0.000000000000000E+000
                   195 -1.104811348450354E-006
                   196  0.000000000000000E+000
                   197  0.000000000000000E+000
                   198 -1.414187323457751E-005
                   199  5.528067110651920E-006
                   200  1.733071858620165E-005
                   201  0.000000000000000E+000
                   202  0.000000000000000E+000
                   203 -8.343804301125884E-005
                   204 -1.496019500875488E-004
                   205  0.000000000000000E+000
                   206 -4.691500506289472E-006
                   207 -5.492983609173890E-006
                   208  0.000000000000000E+000
                   209  0.000000000000000E+000
                   210  8.338256649997216E-006
                   211 -5.464130798609129E-006
                   212  6.043765108572387E-005
                   213  1.088708332169229E-005
                   214  1.261588733860983E-004
                   215  1.307078411107510E-004
                   216  0.000000000000000E+000
                   217  1.212810086025351E-003
                   218 -1.475916607161407E-003
                   219 -3.952578558842200E-004
                   220  2.094675719883686E-004
                   221  0.000000000000000E+000
                   222 -4.530285482347943E-004
                   223 -5.859385517847849E-004
                   224  3.055689180130197E-006
                   225 -6.669126542122389E-005
                   226  0.000000000000000E+000
                   227 -3.036412005365079E-004
                   228 -3.978409098000348E-004
                   229 -4.005690530096083E-006
                   230 -2.092402058421517E-005
                   231  0.000000000000000E+000
                   232 -8.849790441165050E-005
                   233 -5.214074844671974E-004
                   234  3.392417618159240E-006
                   235  3.788751601456804E-007
                   236  0.000000000000000E+000
                   237 -1.692872584287163E-004
                   238 -4.078916698288503E-004
                   239  6.661225534209494E-006
                   240  3.301753900896242E-006
                   241  0.000000000000000E+000
                   242  1.735958914354961E-005
                   243 -4.213962757110955E-005
                   244 -6.929927903235524E-007
                   245  2.125223720328944E-005
                   246  0.000000000000000E+000
 Sym= __2_A'_
 Ene=   2.00000000000000     
 Spin= Alpha
 Occup=    1.00000000000000     
                     1 -4.835137854495316E-005
                     2 -3.245621378918731E-004
                     3  2.642306157341333E-003
                     4  1.466454708839727E-004
                     5  1.353807484995974E-003
                     6 -3.367091081161643E-004
                     7  3.017046378698973E-003
                     8  0.000000000000000E+000
                     9 -6.867485662340397E-005
                    10 -1.012290705604712E-004
                    11  0.000000000000000E+000
                    12  1.239779370223241E-004
                    13 -4.548817225652644E-004
                    14  0.000000000000000E+000
                    15  3.490531715732061E-005
                    16  0.000000000000000E+000
                    17  0.000000000000000E+000
                    18 -5.089313159153004E-005
                    19  4.365890940159630E-006
                    20 -1.260626872445469E-004
                    21  0.000000000000000E+000
                    22  0.000000000000000E+000
                    23  1.959643333126036E-004
                    24  2.157642059259067E-006
                    25  0.000000000000000E+000
                    26 -1.797155193886787E-005
                    27  8.944805817739229E-005
                    28  0.000000000000000E+000
                    29  0.000000000000000E+000
                    30 -2.099318495560714E-005
                    31  1.433897091252988E-004
                    32   1.00102428825793     
                    33  9.342599744057201E-003
                    34  2.723188070397228E-003
                    35 -8.103181459697724E-003
                    36 -1.018774727710067E-004
                    37 -3.585846074818131E-003
                    38  0.000000000000000E+000
                    39  1.084412913563413E-004
                    40  4.223679597835478E-004
                    41  0.000000000000000E+000
                    42  7.052502748328685E-005
                    43  4.245571271771394E-003
                    44  0.000000000000000E+000
                    45 -5.687380825823717E-004
                    46  0.000000000000000E+000
                    47  0.000000000000000E+000
                    48 -1.979087092827814E-004
                    49 -7.574680765864983E-006
                    50  5.480293037890966E-004
                    51  0.000000000000000E+000
                    52  0.000000000000000E+000
                    53 -9.330671236356050E-004
                    54  7.650655380430827E-005
                    55  0.000000000000000E+000
                    56 -2.517444421473330E-006
                    57  9.368083820193723E-005
                    58  0.000000000000000E+000
                    59  0.000000000000000E+000
                    60 -1.053534151304603E-006
                    61  4.040191102303287E-004
                    62  9.081419031461981E-003
                    63 -2.084592853899114E-003
                    64 -2.955714323459063E-004
                    65  3.088147656271455E-003
                    66 -9.831210093161346E-006
                    67  9.256894802656131E-005
                    68  0.000000000000000E+000
                    69  7.416621514077068E-004
                    70 -2.104087015759945E-005
                    71  0.000000000000000E+000
                    72 -2.055867149841024E-003
                    73  5.236879868867951E-005
                    74  0.000000000000000E+000
                    75  2.563077193175764E-005
                    76  0.000000000000000E+000
                    77  0.000000000000000E+000
                    78 -2.580944056003682E-006
                    79  6.232480216375459E-007
                    80 -4.074605333797677E-004
                    81  0.000000000000000E+000
                    82  0.000000000000000E+000
                    83 -5.810280683076620E-004
                    84 -3.832058215771332E-004
                    85  0.000000000000000E+000
                    86  3.389513406657142E-005
                    87 -5.895692725401034E-005
                    88  0.000000000000000E+000
                    89  0.000000000000000E+000
                    90  5.246910349120191E-005
                    91  1.409464169757698E-004
                    92  9.841015880969129E-003
                    93 -2.072139584727262E-003
                    94 -2.844004851285192E-004
                    95  3.037729036802410E-003
                    96  4.259853542560777E-006
                    97  6.543230693187346E-005
                    98  0.000000000000000E+000
                    99 -6.627511965595965E-004
                   100  3.975051174236744E-005
                   101  0.000000000000000E+000
                   102  2.066569510606237E-003
                   103  7.649434533636313E-005
                   104  0.000000000000000E+000
                   105  3.005145460096649E-005
                   106  0.000000000000000E+000
                   107  0.000000000000000E+000
                   108 -3.348425784054662E-006
                   109 -7.512078496761694E-006
                   110 -4.132117876808647E-004
                   111  0.000000000000000E+000
                   112  0.000000000000000E+000
                   113 -6.261417246075838E-004
                   114  3.791918015428162E-004
                   115  0.000000000000000E+000
                   116 -3.165150547916650E-005
                   117 -5.911424340231861E-005
                   118  0.000000000000000E+000
                   119  0.000000000000000E+000
                   120 -5.004188295058528E-005
                   121  1.367920275839659E-004
                   122 -1.610198389772967E-004
                   123 -6.795271237174017E-004
                   124  2.230247979992345E-004
                   125 -9.403414021097915E-005
                   126 -3.684298301409256E-006
                   127 -3.266159095150941E-004
                   128  0.000000000000000E+000
                   129 -6.177369050034826E-005
                   130  5.282710655798491E-004
                   131  0.000000000000000E+000
                   132  3.053206068400884E-004
                   133  7.470084423137032E-004
                   134  0.000000000000000E+000
                   135  1.838120669828537E-005
                   136  0.000000000000000E+000
                   137  0.000000000000000E+000
                   138  3.772792234253008E-006
                   139  5.240902206890072E-005
                   140  1.372236059328964E-004
                   141  0.000000000000000E+000
                   142  0.000000000000000E+000
                   143  2.385678799620918E-004
                   144 -1.805242010066337E-004
                   145  0.000000000000000E+000
                   146  7.281249238186524E-006
                   147 -3.374286897357771E-005
                   148  0.000000000000000E+000
                   149  0.000000000000000E+000
                   150 -4.773846174891138E-005
                   151  2.863014896477135E-005
                   152 -1.368372523083445E-004
                   153 -6.872242723427004E-004
                   154  2.293885997386717E-004
                   155 -1.326736330252840E-004
                   156  2.763317097342229E-006
                   157 -3.208404925621035E-004
                   158  0.000000000000000E+000
                   159  3.946968117128901E-005
                   160  5.664246910017229E-004