[Molden Format]
[Atoms] AU
  N     1    7    -0.1128723800   -4.3599491100    0.0000000000        
  C     2    6     0.0332970300   -1.8107552000    0.0000000000        
  C     3    6    -2.2888031400   -0.4293657300    0.0000000000        
  C     4    6     2.3333895600   -0.3907474700    0.0000000000        
  C     5    6    -2.2784796700    2.1543768400    0.0000000000        
  C     6    6     2.3004224400    2.1862615400    0.0000000000        
  C     7    6     0.0035081600    3.4880013300    0.0000000000        
  H     8    1    -9.5297540700  -10.6750638800    0.0000000000        
  H     9    1     1.6899778300   -5.1122335100    0.0000000000        
  H    10    1    -4.0238475800   -1.4739702000    0.0000000000        
  H    11    1     4.0961208400   -1.3980125000    0.0000000000        
  H    12    1    -4.0310345400    3.1769820600    0.0000000000        
  H    13    1     4.0389129200    3.2330866500    0.0000000000        
  H    14    1    -0.0096481100    5.5163186100    0.0000000000        
[5D]
[7F]
[GTO]
  1  0
   s    12 1.00
  0.114200D+05  0.172695D-04
  0.171200D+04  0.134411D-03
  0.389300D+03  0.694561D-03
  0.110000D+03  0.278531D-02
  0.355700D+02  0.863457D-02
  0.125400D+02  0.199805D-01
  0.464400D+01  0.262908D-01
  0.129300D+01 -0.243845D-01
  0.511800D+00 -0.924934D-01
  0.178700D+00 -0.339683D+00
  0.246240D-01  0.345111D+00
  0.112530D-01  0.752750D+00
   s    10 1.00
  0.114200D+05  0.523000D-03
  0.171200D+04  0.404500D-02
  0.389300D+03  0.207750D-01
  0.110000D+03  0.807269D-01
  0.355700D+02  0.233074D+00
  0.125400D+02  0.433501D+00
  0.464400D+01  0.347472D+00
  0.129300D+01  0.412620D-01
  0.511800D+00 -0.850799D-02
  0.178700D+00  0.238400D-02
   s    10 1.00
  0.114200D+05 -0.115000D-03
  0.171200D+04 -0.895000D-03
  0.389300D+03 -0.462400D-02
  0.110000D+03 -0.185280D-01
  0.355700D+02 -0.573390D-01
  0.125400D+02 -0.132076D+00
  0.464400D+01 -0.172510D+00
  0.129300D+01  0.151814D+00
  0.511800D+00  0.599944D+00
  0.178700D+00  0.387462D+00
   s     1 1.00
  0.129300D+01  0.100000D+01
   s     1 1.00
  0.178700D+00  0.100000D+01
   p     5 1.00
  0.266300D+02  0.146700D-01
  0.594800D+01  0.917640D-01
  0.174200D+01  0.298683D+00
  0.555000D+00  0.498487D+00
  0.172500D+00  0.337023D+00
   p     1 1.00
  0.174200D+01  0.100000D+01
   p     1 1.00
  0.555000D+00  0.100000D+01
   d     1 1.00
  0.165400D+01  0.100000D+01
   d     1 1.00
  0.469000D+00  0.100000D+01
   f     1 1.00
  0.109300D+01  0.100000D+01
  
  2  0
   s    10 1.00
  0.823600D+04  0.531000D-03
  0.123500D+04  0.410800D-02
  0.280800D+03  0.210870D-01
  0.792700D+02  0.818530D-01
  0.255900D+02  0.234817D+00
  0.899700D+01  0.434401D+00
  0.331900D+01  0.346129D+00
  0.905900D+00  0.393780D-01
  0.364300D+00 -0.898300D-02
  0.128500D+00  0.238500D-02
   s    10 1.00
  0.823600D+04 -0.113000D-03
  0.123500D+04 -0.878000D-03
  0.280800D+03 -0.454000D-02
  0.792700D+02 -0.181330D-01
  0.255900D+02 -0.557600D-01
  0.899700D+01 -0.126895D+00
  0.331900D+01 -0.170352D+00
  0.905900D+00  0.140382D+00
  0.364300D+00  0.598684D+00
  0.128500D+00  0.395389D+00
   s     1 1.00
  0.905900D+00  0.100000D+01
   s     1 1.00
  0.364300D+00  0.100000D+01
   p     5 1.00
  0.187100D+02  0.140310D-01
  0.413300D+01  0.868660D-01
  0.120000D+01  0.290216D+00
  0.382700D+00  0.501008D+00
  0.120900D+00  0.343406D+00
   p     1 1.00
  0.382700D+00  0.100000D+01
   p     1 1.00
  0.120900D+00  0.100000D+01
   d     1 1.00
  0.109700D+01  0.100000D+01
   d     1 1.00
  0.318000D+00  0.100000D+01
   f     1 1.00
  0.761000D+00  0.100000D+01
  
  3  0
   s    10 1.00
  0.823600D+04  0.531000D-03
  0.123500D+04  0.410800D-02
  0.280800D+03  0.210870D-01
  0.792700D+02  0.818530D-01
  0.255900D+02  0.234817D+00
  0.899700D+01  0.434401D+00
  0.331900D+01  0.346129D+00
  0.905900D+00  0.393780D-01
  0.364300D+00 -0.898300D-02
  0.128500D+00  0.238500D-02
   s    10 1.00
  0.823600D+04 -0.113000D-03
  0.123500D+04 -0.878000D-03
  0.280800D+03 -0.454000D-02
  0.792700D+02 -0.181330D-01
  0.255900D+02 -0.557600D-01
  0.899700D+01 -0.126895D+00
  0.331900D+01 -0.170352D+00
  0.905900D+00  0.140382D+00
  0.364300D+00  0.598684D+00
  0.128500D+00  0.395389D+00
   s     1 1.00
  0.905900D+00  0.100000D+01
   s     1 1.00
  0.364300D+00  0.100000D+01
   p     5 1.00
  0.187100D+02  0.140310D-01
  0.413300D+01  0.868660D-01
  0.120000D+01  0.290216D+00
  0.382700D+00  0.501008D+00
  0.120900D+00  0.343406D+00
   p     1 1.00
  0.382700D+00  0.100000D+01
   p     1 1.00
  0.120900D+00  0.100000D+01
   d     1 1.00
  0.109700D+01  0.100000D+01
   d     1 1.00
  0.318000D+00  0.100000D+01
   f     1 1.00
  0.761000D+00  0.100000D+01
  
  4  0
   s    10 1.00
  0.823600D+04  0.531000D-03
  0.123500D+04  0.410800D-02
  0.280800D+03  0.210870D-01
  0.792700D+02  0.818530D-01
  0.255900D+02  0.234817D+00
  0.899700D+01  0.434401D+00
  0.331900D+01  0.346129D+00
  0.905900D+00  0.393780D-01
  0.364300D+00 -0.898300D-02
  0.128500D+00  0.238500D-02
   s    10 1.00
  0.823600D+04 -0.113000D-03
  0.123500D+04 -0.878000D-03
  0.280800D+03 -0.454000D-02
  0.792700D+02 -0.181330D-01
  0.255900D+02 -0.557600D-01
  0.899700D+01 -0.126895D+00
  0.331900D+01 -0.170352D+00
  0.905900D+00  0.140382D+00
  0.364300D+00  0.598684D+00
  0.128500D+00  0.395389D+00
   s     1 1.00
  0.905900D+00  0.100000D+01
   s     1 1.00
  0.364300D+00  0.100000D+01
   p     5 1.00
  0.187100D+02  0.140310D-01
  0.413300D+01  0.868660D-01
  0.120000D+01  0.290216D+00
  0.382700D+00  0.501008D+00
  0.120900D+00  0.343406D+00
   p     1 1.00
  0.382700D+00  0.100000D+01
   p     1 1.00
  0.120900D+00  0.100000D+01
   d     1 1.00
  0.109700D+01  0.100000D+01
   d     1 1.00
  0.318000D+00  0.100000D+01
   f     1 1.00
  0.761000D+00  0.100000D+01
  
  5  0
   s    10 1.00
  0.823600D+04  0.531000D-03
  0.123500D+04  0.410800D-02
  0.280800D+03  0.210870D-01
  0.792700D+02  0.818530D-01
  0.255900D+02  0.234817D+00
  0.899700D+01  0.434401D+00
  0.331900D+01  0.346129D+00
  0.905900D+00  0.393780D-01
  0.364300D+00 -0.898300D-02
  0.128500D+00  0.238500D-02
   s    10 1.00
  0.823600D+04 -0.113000D-03
  0.123500D+04 -0.878000D-03
  0.280800D+03 -0.454000D-02
  0.792700D+02 -0.181330D-01
  0.255900D+02 -0.557600D-01
  0.899700D+01 -0.126895D+00
  0.331900D+01 -0.170352D+00
  0.905900D+00  0.140382D+00
  0.364300D+00  0.598684D+00
  0.128500D+00  0.395389D+00
   s     1 1.00
  0.905900D+00  0.100000D+01
   s     1 1.00
  0.364300D+00  0.100000D+01
   p     5 1.00
  0.187100D+02  0.140310D-01
  0.413300D+01  0.868660D-01
  0.120000D+01  0.290216D+00
  0.382700D+00  0.501008D+00
  0.120900D+00  0.343406D+00
   p     1 1.00
  0.382700D+00  0.100000D+01
   p     1 1.00
  0.120900D+00  0.100000D+01
   d     1 1.00
  0.109700D+01  0.100000D+01
   d     1 1.00
  0.318000D+00  0.100000D+01
   f     1 1.00
  0.761000D+00  0.100000D+01
  
  6  0
   s    10 1.00
  0.823600D+04  0.531000D-03
  0.123500D+04  0.410800D-02
  0.280800D+03  0.210870D-01
  0.792700D+02  0.818530D-01
  0.255900D+02  0.234817D+00
  0.899700D+01  0.434401D+00
  0.331900D+01  0.346129D+00
  0.905900D+00  0.393780D-01
  0.364300D+00 -0.898300D-02
  0.128500D+00  0.238500D-02
   s    10 1.00
  0.823600D+04 -0.113000D-03
  0.123500D+04 -0.878000D-03
  0.280800D+03 -0.454000D-02
  0.792700D+02 -0.181330D-01
  0.255900D+02 -0.557600D-01
  0.899700D+01 -0.126895D+00
  0.331900D+01 -0.170352D+00
  0.905900D+00  0.140382D+00
  0.364300D+00  0.598684D+00
  0.128500D+00  0.395389D+00
   s     1 1.00
  0.905900D+00  0.100000D+01
   s     1 1.00
  0.364300D+00  0.100000D+01
   p     5 1.00
  0.187100D+02  0.140310D-01
  0.413300D+01  0.868660D-01
  0.120000D+01  0.290216D+00
  0.382700D+00  0.501008D+00
  0.120900D+00  0.343406D+00
   p     1 1.00
  0.382700D+00  0.100000D+01
   p     1 1.00
  0.120900D+00  0.100000D+01
   d     1 1.00
  0.109700D+01  0.100000D+01
   d     1 1.00
  0.318000D+00  0.100000D+01
   f     1 1.00
  0.761000D+00  0.100000D+01
  
  7  0
   s    10 1.00
  0.823600D+04  0.531000D-03
  0.123500D+04  0.410800D-02
  0.280800D+03  0.210870D-01
  0.792700D+02  0.818530D-01
  0.255900D+02  0.234817D+00
  0.899700D+01  0.434401D+00
  0.331900D+01  0.346129D+00
  0.905900D+00  0.393780D-01
  0.364300D+00 -0.898300D-02
  0.128500D+00  0.238500D-02
   s    10 1.00
  0.823600D+04 -0.113000D-03
  0.123500D+04 -0.878000D-03
  0.280800D+03 -0.454000D-02
  0.792700D+02 -0.181330D-01
  0.255900D+02 -0.557600D-01
  0.899700D+01 -0.126895D+00
  0.331900D+01 -0.170352D+00
  0.905900D+00  0.140382D+00
  0.364300D+00  0.598684D+00
  0.128500D+00  0.395389D+00
   s     1 1.00
  0.905900D+00  0.100000D+01
   s     1 1.00
  0.364300D+00  0.100000D+01
   p     5 1.00
  0.187100D+02  0.140310D-01
  0.413300D+01  0.868660D-01
  0.120000D+01  0.290216D+00
  0.382700D+00  0.501008D+00
  0.120900D+00  0.343406D+00
   p     1 1.00
  0.382700D+00  0.100000D+01
   p     1 1.00
  0.120900D+00  0.100000D+01
   d     1 1.00
  0.109700D+01  0.100000D+01
   d     1 1.00
  0.318000D+00  0.100000D+01
   f     1 1.00
  0.761000D+00  0.100000D+01
  
  8  0
   s     4 1.00
  0.130100D+02  0.196850D-01
  0.196200D+01  0.137977D+00
  0.444600D+00  0.478148D+00
  0.122000D+00  0.501240D+00
   s     1 1.00
  0.122000D+00  0.100000D+01
   p     1 1.00
  0.727000D+00  0.100000D+01
  
  9  0
   s     4 1.00
  0.130100D+02  0.196850D-01
  0.196200D+01  0.137977D+00
  0.444600D+00  0.478148D+00
  0.122000D+00  0.501240D+00
   s     1 1.00
  0.122000D+00  0.100000D+01
   p     1 1.00
  0.727000D+00  0.100000D+01
  
 10  0
   s     4 1.00
  0.130100D+02  0.196850D-01
  0.196200D+01  0.137977D+00
  0.444600D+00  0.478148D+00
  0.122000D+00  0.501240D+00
   s     1 1.00
  0.122000D+00  0.100000D+01
   p     1 1.00
  0.727000D+00  0.100000D+01
  
 11  0
   s     4 1.00
  0.130100D+02  0.196850D-01
  0.196200D+01  0.137977D+00
  0.444600D+00  0.478148D+00
  0.122000D+00  0.501240D+00
   s     1 1.00
  0.122000D+00  0.100000D+01
   p     1 1.00
  0.727000D+00  0.100000D+01
  
 12  0
   s     4 1.00
  0.130100D+02  0.196850D-01
  0.196200D+01  0.137977D+00
  0.444600D+00  0.478148D+00
  0.122000D+00  0.501240D+00
   s     1 1.00
  0.122000D+00  0.100000D+01
   p     1 1.00
  0.727000D+00  0.100000D+01
  
 13  0
   s     4 1.00
  0.130100D+02  0.196850D-01
  0.196200D+01  0.137977D+00
  0.444600D+00  0.478148D+00
  0.122000D+00  0.501240D+00
   s     1 1.00
  0.122000D+00  0.100000D+01
   p     1 1.00
  0.727000D+00  0.100000D+01
  
 14  0
   s     4 1.00
  0.130100D+02  0.196850D-01
  0.196200D+01  0.137977D+00
  0.444600D+00  0.478148D+00
  0.122000D+00  0.501240D+00
   s     1 1.00
  0.122000D+00  0.100000D+01
   p     1 1.00
  0.727000D+00  0.100000D+01
  
[MO]
 Sym= __1_A__
 Ene=  0.000000000000000E+000
 Spin= Alpha
 Occup=    2.00000000000000     
                     1  1.421549797639788E-004
                     2  0.998338736340630     
                     3 -2.633714348343904E-003
                     4  1.838726040516925E-003
                     5  6.603233947181848E-003
                     6  2.830831683454105E-003
                     7  5.957831250199809E-003
                     8  0.000000000000000E+000
                     9 -6.939478937049377E-004
                    10 -7.264272793211183E-004
                    11  0.000000000000000E+000
                    12 -2.484528770117372E-003
                    13 -1.910599535955314E-003
                    14  0.000000000000000E+000
                    15 -2.670026931486638E-005
                    16  0.000000000000000E+000
                    17  0.000000000000000E+000
                    18 -1.532062156168914E-004
                    19 -5.777443431607812E-005
                    20  8.916414155532820E-005
                    21  0.000000000000000E+000
                    22  0.000000000000000E+000
                    23 -2.056593267874212E-004
                    24  5.024786844775791E-004
                    25  0.000000000000000E+000
                    26 -5.702690299799636E-006
                    27 -4.860945555980185E-005
                    28  0.000000000000000E+000
                    29  0.000000000000000E+000
                    30  3.804814388144988E-005
                    31 -1.076426122045422E-004
                    32 -4.007972490252859E-004
                    33  1.388295927589491E-004
                    34  3.148327550532189E-004
                    35 -5.266540454470837E-005
                    36 -4.919529221322284E-005
                    37 -2.731119210374852E-003
                    38  0.000000000000000E+000
                    39  3.751903056097583E-004
                    40  1.994941417375927E-004
                    41  0.000000000000000E+000
                    42 -2.061851126326282E-003
                    43  5.140393214928259E-003
                    44  0.000000000000000E+000
                    45  1.451554440336366E-006
                    46  0.000000000000000E+000
                    47  0.000000000000000E+000
                    48 -1.375471908107463E-004
                    49  2.051421497616735E-005
                    50 -2.008127389569477E-004
                    51  0.000000000000000E+000
                    52  0.000000000000000E+000
                    53  4.795457753980080E-005
                    54  7.748885447124607E-004
                    55  0.000000000000000E+000
                    56 -3.040054445611923E-006
                    57 -7.039093236704249E-005
                    58  0.000000000000000E+000
                    59  0.000000000000000E+000
                    60  2.482491105645256E-005
                    61 -1.224064926163895E-004
                    62 -5.638526938944532E-004
                    63 -2.259809239468179E-003
                    64 -8.553147495764487E-005
                    65  2.270671955121916E-003
                    66 -5.262549159350162E-004
                    67  1.622342506815531E-004
                    68  0.000000000000000E+000
                    69  3.892867937132814E-004
                    70  8.929384926643593E-004
                    71  0.000000000000000E+000
                    72 -1.695431429774316E-003
                    73  6.830847743041432E-004
                    74  0.000000000000000E+000
                    75 -4.301126652473081E-005
                    76  0.000000000000000E+000
                    77  0.000000000000000E+000
                    78 -6.492906287975825E-005
                    79 -2.008011858296119E-005
                    80 -1.328094694085621E-004
                    81  0.000000000000000E+000
                    82  0.000000000000000E+000
                    83  4.135683314930498E-005
                    84  1.657256285843029E-005
                    85  0.000000000000000E+000
                    86  8.165793479540500E-006
                    87 -4.621192145554585E-005
                    88  0.000000000000000E+000
                    89  0.000000000000000E+000
                    90 -2.473173840688566E-005
                    91 -1.538763516868203E-004
                    92 -1.834063756577929E-004
                    93 -6.698787413356655E-004
                    94  1.556835686129442E-004
                    95 -4.655361286559996E-005
                    96  2.251127232146089E-004
                    97  8.500501277691946E-006
                    98  0.000000000000000E+000
                    99  3.374838685956714E-004
                   100  3.977431245296294E-004
                   101  0.000000000000000E+000
                   102  6.591588465194597E-004
                   103 -1.785042036012900E-003
                   104  0.000000000000000E+000
                   105 -1.199793607992183E-005
                   106  0.000000000000000E+000
                   107  0.000000000000000E+000
                   108 -4.669058310796048E-005
                   109 -1.325224000324821E-005
                   110  8.423669417803432E-005
                   111  0.000000000000000E+000
                   112  0.000000000000000E+000
                   113 -1.673877497302505E-004
                   114  8.538607251951661E-005
                   115  0.000000000000000E+000
                   116 -1.986109294297304E-005
                   117 -2.260886242690570E-005
                   118  0.000000000000000E+000
                   119  0.000000000000000E+000
                   120 -1.218213231598112E-005
                   121 -3.729965568024146E-005
                   122 -2.426365177138589E-004
                   123 -5.857479330969685E-004
                   124  1.650505103937732E-004
                   125  3.294923188357189E-004
                   126 -3.311637553309891E-005
                   127 -3.432329680566453E-004
                   128  0.000000000000000E+000
                   129  2.463817820255797E-004
                   130  6.537899048365644E-004
                   131  0.000000000000000E+000
                   132  3.831444432722340E-004
                   133  2.029381914221734E-003
                   134  0.000000000000000E+000
                   135  1.322364877366400E-005
                   136  0.000000000000000E+000
                   137  0.000000000000000E+000
                   138  4.565969277767548E-005
                   139 -1.680197348071183E-006
                   140  2.051133080164409E-004
                   141  0.000000000000000E+000
                   142  0.000000000000000E+000
                   143  4.051623633991118E-004
                   144  2.396417200325473E-004
                   145  0.000000000000000E+000
                   146 -1.256601859790982E-005
                   147 -6.524496534669314E-005
                   148  0.000000000000000E+000
                   149  0.000000000000000E+000
                   150 -1.350945668892397E-005
                   151 -5.330070679374572E-005
                   152 -1.298863163187625E-004
                   153 -3.524850591194599E-004
                   154  5.516468091659945E-005
                   155  1.879453191106537E-004
                   156  1.042841802657499E-005
                   157 -8.945447208491470E-005
                   158  0.000000000000000E+000
                   159  1.168308525511954E-005
                   160  6.361492478197817E-005
                   161  0.000000000000000E+000
                   162  7.296494267549926E-004
                   163 -3.613922621395745E-004
                   164  0.000000000000000E+000
                   165  1.921209209186679E-006
                   166  0.000000000000000E+000
                   167  0.000000000000000E+000
                   168  3.153206307275266E-006
                   169  9.655618143107328E-006
                   170  1.081142706425975E-004
                   171  0.000000000000000E+000
                   172  0.000000000000000E+000
                   173  5.671880616696846E-005
                   174  2.643546556170700E-005
                   175  0.000000000000000E+000
                   176  3.037606355280361E-006
                   177 -1.508252663104807E-005
                   178  0.000000000000000E+000
                   179  0.000000000000000E+000
                   180 -2.071889294438589E-005
                   181 -3.050817039569149E-005
                   182 -1.338889973145059E-004
                   183 -3.895153962831435E-004
                   184  3.310445652703877E-005
                   185  1.843547104664419E-004
                   186 -5.059967701053469E-005
                   187 -6.476824546909362E-005
                   188  0.000000000000000E+000
                   189  2.739030942711840E-004
                   190  1.259952371638642E-004
                   191  0.000000000000000E+000
                   192  1.346147996602186E-003
                   193 -3.506883266296085E-004
                   194  0.000000000000000E+000
                   195  1.782301272632732E-006
                   196  0.000000000000000E+000
                   197  0.000000000000000E+000
                   198 -3.761170027979626E-006
                   199  4.103691510423373E-006
                   200 -7.244811663903235E-006
                   201  0.000000000000000E+000
                   202  0.000000000000000E+000
                   203 -8.314649065995680E-005
                   204 -2.036460933871509E-004
                   205  0.000000000000000E+000
                   206 -1.055905894662133E-005
                   207 -4.563344491382547E-006
                   208  0.000000000000000E+000
                   209  0.000000000000000E+000
                   210  7.458606119743224E-006
                   211 -2.885003931288907E-006
                   212  1.310235445671731E-005
                   213 -2.500215250914420E-005
                   214 -8.761112088785152E-007
                   215 -5.863295978067111E-007
                   216  0.000000000000000E+000
                   217 -8.623723845013812E-004
                   218 -6.626826199571729E-004
                   219 -2.394030906293009E-004
                   220  6.468161473499433E-005
                   221  0.000000000000000E+000
                   222 -2.106147682574436E-004
                   223 -5.568191005475353E-004
                   224  2.477621957331056E-005
                   225 -5.819474437235904E-005
                   226  0.000000000000000E+000
                   227  6.823019384046794E-005
                   228 -7.118785885850445E-004
                   229 -4.593423400389407E-005
                   230 -1.338895321868748E-005
                   231  0.000000000000000E+000
                   232  4.234419478137657E-006
                   233 -5.369658774720357E-004
                   234  1.253529936424212E-005
                   235 -3.655509306194963E-006
                   236  0.000000000000000E+000
                   237  7.883303272088073E-006
                   238 -3.724358780528134E-004
                   239 -6.080049515400680E-006
                   240 -1.556484175485007E-006
                   241  0.000000000000000E+000
                   242 -6.438610210451444E-005
                   243  9.924764687871653E-005
                   244  2.260874518600761E-007
                   245  3.160438929234428E-005
                   246  0.000000000000000E+000
 Sym= __2_A__
 Ene=  0.000000000000000E+000
 Spin= Alpha
 Occup=    2.00000000000000     
                     1  1.363432021108947E-005
                     2  2.820515557474481E-004
                     3 -3.565743934038879E-003
                     4 -9.734163165483232E-005
                     5 -1.476401033194294E-003
                     6  9.749786249879795E-004
                     7 -3.873742988182710E-003
                     8  0.000000000000000E+000
                     9 -8.790765327062597E-006
                    10  8.692202749916553E-005
                    11  0.000000000000000E+000
                    12 -3.378908841201816E-005
                    13  2.325356308383799E-004
                    14  0.000000000000000E+000
                    15 -1.828167080898728E-005
                    16  0.000000000000000E+000
                    17  0.000000000000000E+000
                    18  8.007560029953744E-005
                    19 -3.339216671346071E-005
                    20  1.472519989701238E-004
                    21  0.000000000000000E+000
                    22  0.000000000000000E+000
                    23 -2.916217638464216E-005
                    24  1.555635772354895E-004
                    25  0.000000000000000E+000
                    26  1.256782088472919E-005
                    27 -8.166746752065423E-005
                    28  0.000000000000000E+000
                    29  0.000000000000000E+000
                    30  7.362294581597766E-005
                    31 -1.347778262561485E-004
                    32  -1.00074950632156     
                    33 -9.314418847007155E-003
                    34 -2.840973434154713E-003
                    35  8.125368483424492E-003
                    36  3.945643711795475E-004
                    37  4.431152519147446E-003
                    38  0.000000000000000E+000
                    39  2.210987705172844E-004
                    40 -3.716109053180635E-004
                    41  0.000000000000000E+000
                    42 -4.337000828433653E-005
                    43 -4.453749452186400E-003
                    44  0.000000000000000E+000
                    45  5.178138470150955E-004
                    46  0.000000000000000E+000
                    47  0.000000000000000E+000
                    48  2.101264782594244E-004
                    49 -5.035944961683481E-005
                    50 -5.621899517090652E-004
                    51  0.000000000000000E+000
                    52  0.000000000000000E+000
                    53  6.910395930065510E-004
                    54  4.865981345013739E-004
                    55  0.000000000000000E+000
                    56 -2.206755608713799E-005
                    57 -9.922311166956232E-005
                    58  0.000000000000000E+000
                    59  0.000000000000000E+000
                    60  4.332723605227008E-005
                    61 -3.762204782663949E-004
                    62 -1.431603825243185E-002
                    63  2.274430093859284E-003
                    64  2.075064703266318E-004
                    65 -2.657919105372488E-003
                    66  1.223367841254509E-004
                    67 -3.483654076105624E-004
                    68  0.000000000000000E+000
                    69 -4.455546405814567E-004
                    70 -1.420695226752682E-004
                    71  0.000000000000000E+000
                    72  2.043024193836066E-003
                    73 -2.528950180255855E-004
                    74  0.000000000000000E+000
                    75 -3.872285049304696E-005
                    76  0.000000000000000E+000
                    77  0.000000000000000E+000
                    78  2.877416085443180E-005
                    79 -5.842333226558899E-006
                    80  4.182879339682795E-004
                    81  0.000000000000000E+000
                    82  0.000000000000000E+000
                    83  7.149477854765362E-004
                    84  2.373544807287724E-004
                    85  0.000000000000000E+000
                    86 -3.127690279643683E-005
                    87  5.659451767700513E-005
                    88  0.000000000000000E+000
                    89  0.000000000000000E+000
                    90 -5.366649734387219E-005
                    91 -1.535647085284792E-004
                    92 -1.850365431070915E-002
                    93  2.364241529371430E-003
                    94  3.003379464134617E-004
                    95 -3.299916359166287E-003
                    96 -5.614176385342914E-004
                    97 -5.408551198948059E-004
                    98  0.000000000000000E+000
                    99  9.966984857028740E-004
                   100  3.498600844733386E-006
                   101  0.000000000000000E+000
                   102 -1.805580301375867E-003
                   103  5.171469458143246E-005
                   104  0.000000000000000E+000
                   105 -2.278037821773070E-005
                   106  0.000000000000000E+000
                   107  0.000000000000000E+000
                   108  2.632439847371092E-005
                   109  2.814256408267735E-006
                   110  4.165471817693128E-004
                   111  0.000000000000000E+000
                   112  0.000000000000000E+000
                   113  4.006346458734718E-004
                   114 -2.432835173236933E-004
                   115  0.000000000000000E+000
                   116  3.694525114095773E-005
                   117  7.588433037007491E-005
                   118  0.000000000000000E+000
                   119  0.000000000000000E+000
                   120  1.070558365986696E-005
                   121 -1.346045708317081E-004
                   122 -1.658440254942898E-004
                   123  5.744201626255179E-004
                   124 -2.220887131946439E-004
                   125  1.005644199710006E-004
                   126  1.201290388879418E-005
                   127  5.666641185496931E-004
                   128  0.000000000000000E+000
                   129  6.238836030161488E-005
                   130 -6.250983665288234E-004
                   131  0.000000000000000E+000
                   132 -3.101859176794384E-004
                   133 -9.487092307880911E-004
                   134  0.000000000000000E+000
                   135 -1.707387992365688E-005
                   136  0.000000000000000E+000
                   137  0.000000000000000E+000
                   138  8.087333210219232E-007
                   139 -4.866182911836941E-005
                   140 -1.210173011543779E-004
                   141  0.000000000000000E+000
                   142  0.000000000000000E+000
                   143 -2.558740259849340E-004
                   144  9.712603753655239E-005
                   145  0.000000000000000E+000
                   146 -8.789975128024370E-006
                   147  3.422070430608573E-005
                   148  0.000000000000000E+000
                   149  0.000000000000000E+000
                   150  4.614525735998810E-005
                   151 -3.984596272512647E-005
                   152 -5.785991648779513E-004
                   153  5.098172043158947E-004
                   154 -2.296738021912588E-004
                   155  3.733135201128472E-005
                   156  7.317355647279323E-005
                   157  6.634628651048788E-004
                   158  0.000000000000000E+000
                   159 -1.420938516410148E-004
                   160 -5.744960230155516E-004