[Molden Format]
[Atoms] AU
  N     1    7     0.0000000000   -4.2907334100    0.0000000000        
  C     2    6     0.0000000000   -1.7772236300    0.0000000000        
  C     3    6    -2.3389203600   -0.4111016300    0.0000000000        
  C     4    6     2.3389203600   -0.4111016300    0.0000000000        
  C     5    6    -2.2998668500    2.1639215300    0.0000000000        
  C     6    6     2.2998668500    2.1639215300    0.0000000000        
  C     7    6     0.0000000000    3.4755251800    0.0000000000        
  H     8    1    -2.5732809600   -5.8782317900    0.0000000000        
  H     9    1     1.6528040300   -5.3103747800    0.0000000000        
  H    10    1    -4.0745407300   -1.4447408500    0.0000000000        
  H    11    1     4.0745407300   -1.4447408500    0.0000000000        
  H    12    1    -4.0420632100    3.1963889500    0.0000000000        
  H    13    1     4.0420632100    3.1963889500    0.0000000000        
  H    14    1     0.0000000000    5.5020335600    0.0000000000        
[5D]
[7F]
[GTO]
  1  0
   s    12 1.00
  0.114200D+05  0.172695D-04
  0.171200D+04  0.134411D-03
  0.389300D+03  0.694561D-03
  0.110000D+03  0.278531D-02
  0.355700D+02  0.863457D-02
  0.125400D+02  0.199805D-01
  0.464400D+01  0.262908D-01
  0.129300D+01 -0.243845D-01
  0.511800D+00 -0.924934D-01
  0.178700D+00 -0.339683D+00
  0.246240D-01  0.345111D+00
  0.112530D-01  0.752750D+00
   s    10 1.00
  0.114200D+05  0.523000D-03
  0.171200D+04  0.404500D-02
  0.389300D+03  0.207750D-01
  0.110000D+03  0.807269D-01
  0.355700D+02  0.233074D+00
  0.125400D+02  0.433501D+00
  0.464400D+01  0.347472D+00
  0.129300D+01  0.412620D-01
  0.511800D+00 -0.850799D-02
  0.178700D+00  0.238400D-02
   s    10 1.00
  0.114200D+05 -0.115000D-03
  0.171200D+04 -0.895000D-03
  0.389300D+03 -0.462400D-02
  0.110000D+03 -0.185280D-01
  0.355700D+02 -0.573390D-01
  0.125400D+02 -0.132076D+00
  0.464400D+01 -0.172510D+00
  0.129300D+01  0.151814D+00
  0.511800D+00  0.599944D+00
  0.178700D+00  0.387462D+00
   s     1 1.00
  0.129300D+01  0.100000D+01
   s     1 1.00
  0.178700D+00  0.100000D+01
   p     5 1.00
  0.266300D+02  0.146700D-01
  0.594800D+01  0.917640D-01
  0.174200D+01  0.298683D+00
  0.555000D+00  0.498487D+00
  0.172500D+00  0.337023D+00
   p     1 1.00
  0.174200D+01  0.100000D+01
   p     1 1.00
  0.555000D+00  0.100000D+01
   d     1 1.00
  0.165400D+01  0.100000D+01
   d     1 1.00
  0.469000D+00  0.100000D+01
   f     1 1.00
  0.109300D+01  0.100000D+01
  
  2  0
   s    10 1.00
  0.823600D+04  0.531000D-03
  0.123500D+04  0.410800D-02
  0.280800D+03  0.210870D-01
  0.792700D+02  0.818530D-01
  0.255900D+02  0.234817D+00
  0.899700D+01  0.434401D+00
  0.331900D+01  0.346129D+00
  0.905900D+00  0.393780D-01
  0.364300D+00 -0.898300D-02
  0.128500D+00  0.238500D-02
   s    10 1.00
  0.823600D+04 -0.113000D-03
  0.123500D+04 -0.878000D-03
  0.280800D+03 -0.454000D-02
  0.792700D+02 -0.181330D-01
  0.255900D+02 -0.557600D-01
  0.899700D+01 -0.126895D+00
  0.331900D+01 -0.170352D+00
  0.905900D+00  0.140382D+00
  0.364300D+00  0.598684D+00
  0.128500D+00  0.395389D+00
   s     1 1.00
  0.905900D+00  0.100000D+01
   s     1 1.00
  0.364300D+00  0.100000D+01
   p     5 1.00
  0.187100D+02  0.140310D-01
  0.413300D+01  0.868660D-01
  0.120000D+01  0.290216D+00
  0.382700D+00  0.501008D+00
  0.120900D+00  0.343406D+00
   p     1 1.00
  0.382700D+00  0.100000D+01
   p     1 1.00
  0.120900D+00  0.100000D+01
   d     1 1.00
  0.109700D+01  0.100000D+01
   d     1 1.00
  0.318000D+00  0.100000D+01
   f     1 1.00
  0.761000D+00  0.100000D+01
  
  3  0
   s    10 1.00
  0.823600D+04  0.531000D-03
  0.123500D+04  0.410800D-02
  0.280800D+03  0.210870D-01
  0.792700D+02  0.818530D-01
  0.255900D+02  0.234817D+00
  0.899700D+01  0.434401D+00
  0.331900D+01  0.346129D+00
  0.905900D+00  0.393780D-01
  0.364300D+00 -0.898300D-02
  0.128500D+00  0.238500D-02
   s    10 1.00
  0.823600D+04 -0.113000D-03
  0.123500D+04 -0.878000D-03
  0.280800D+03 -0.454000D-02
  0.792700D+02 -0.181330D-01
  0.255900D+02 -0.557600D-01
  0.899700D+01 -0.126895D+00
  0.331900D+01 -0.170352D+00
  0.905900D+00  0.140382D+00
  0.364300D+00  0.598684D+00
  0.128500D+00  0.395389D+00
   s     1 1.00
  0.905900D+00  0.100000D+01
   s     1 1.00
  0.364300D+00  0.100000D+01
   p     5 1.00
  0.187100D+02  0.140310D-01
  0.413300D+01  0.868660D-01
  0.120000D+01  0.290216D+00
  0.382700D+00  0.501008D+00
  0.120900D+00  0.343406D+00
   p     1 1.00
  0.382700D+00  0.100000D+01
   p     1 1.00
  0.120900D+00  0.100000D+01
   d     1 1.00
  0.109700D+01  0.100000D+01
   d     1 1.00
  0.318000D+00  0.100000D+01
   f     1 1.00
  0.761000D+00  0.100000D+01
  
  4  0
   s    10 1.00
  0.823600D+04  0.531000D-03
  0.123500D+04  0.410800D-02
  0.280800D+03  0.210870D-01
  0.792700D+02  0.818530D-01
  0.255900D+02  0.234817D+00
  0.899700D+01  0.434401D+00
  0.331900D+01  0.346129D+00
  0.905900D+00  0.393780D-01
  0.364300D+00 -0.898300D-02
  0.128500D+00  0.238500D-02
   s    10 1.00
  0.823600D+04 -0.113000D-03
  0.123500D+04 -0.878000D-03
  0.280800D+03 -0.454000D-02
  0.792700D+02 -0.181330D-01
  0.255900D+02 -0.557600D-01
  0.899700D+01 -0.126895D+00
  0.331900D+01 -0.170352D+00
  0.905900D+00  0.140382D+00
  0.364300D+00  0.598684D+00
  0.128500D+00  0.395389D+00
   s     1 1.00
  0.905900D+00  0.100000D+01
   s     1 1.00
  0.364300D+00  0.100000D+01
   p     5 1.00
  0.187100D+02  0.140310D-01
  0.413300D+01  0.868660D-01
  0.120000D+01  0.290216D+00
  0.382700D+00  0.501008D+00
  0.120900D+00  0.343406D+00
   p     1 1.00
  0.382700D+00  0.100000D+01
   p     1 1.00
  0.120900D+00  0.100000D+01
   d     1 1.00
  0.109700D+01  0.100000D+01
   d     1 1.00
  0.318000D+00  0.100000D+01
   f     1 1.00
  0.761000D+00  0.100000D+01
  
  5  0
   s    10 1.00
  0.823600D+04  0.531000D-03
  0.123500D+04  0.410800D-02
  0.280800D+03  0.210870D-01
  0.792700D+02  0.818530D-01
  0.255900D+02  0.234817D+00
  0.899700D+01  0.434401D+00
  0.331900D+01  0.346129D+00
  0.905900D+00  0.393780D-01
  0.364300D+00 -0.898300D-02
  0.128500D+00  0.238500D-02
   s    10 1.00
  0.823600D+04 -0.113000D-03
  0.123500D+04 -0.878000D-03
  0.280800D+03 -0.454000D-02
  0.792700D+02 -0.181330D-01
  0.255900D+02 -0.557600D-01
  0.899700D+01 -0.126895D+00
  0.331900D+01 -0.170352D+00
  0.905900D+00  0.140382D+00
  0.364300D+00  0.598684D+00
  0.128500D+00  0.395389D+00
   s     1 1.00
  0.905900D+00  0.100000D+01
   s     1 1.00
  0.364300D+00  0.100000D+01
   p     5 1.00
  0.187100D+02  0.140310D-01
  0.413300D+01  0.868660D-01
  0.120000D+01  0.290216D+00
  0.382700D+00  0.501008D+00
  0.120900D+00  0.343406D+00
   p     1 1.00
  0.382700D+00  0.100000D+01
   p     1 1.00
  0.120900D+00  0.100000D+01
   d     1 1.00
  0.109700D+01  0.100000D+01
   d     1 1.00
  0.318000D+00  0.100000D+01
   f     1 1.00
  0.761000D+00  0.100000D+01
  
  6  0
   s    10 1.00
  0.823600D+04  0.531000D-03
  0.123500D+04  0.410800D-02
  0.280800D+03  0.210870D-01
  0.792700D+02  0.818530D-01
  0.255900D+02  0.234817D+00
  0.899700D+01  0.434401D+00
  0.331900D+01  0.346129D+00
  0.905900D+00  0.393780D-01
  0.364300D+00 -0.898300D-02
  0.128500D+00  0.238500D-02
   s    10 1.00
  0.823600D+04 -0.113000D-03
  0.123500D+04 -0.878000D-03
  0.280800D+03 -0.454000D-02
  0.792700D+02 -0.181330D-01
  0.255900D+02 -0.557600D-01
  0.899700D+01 -0.126895D+00
  0.331900D+01 -0.170352D+00
  0.905900D+00  0.140382D+00
  0.364300D+00  0.598684D+00
  0.128500D+00  0.395389D+00
   s     1 1.00
  0.905900D+00  0.100000D+01
   s     1 1.00
  0.364300D+00  0.100000D+01
   p     5 1.00
  0.187100D+02  0.140310D-01
  0.413300D+01  0.868660D-01
  0.120000D+01  0.290216D+00
  0.382700D+00  0.501008D+00
  0.120900D+00  0.343406D+00
   p     1 1.00
  0.382700D+00  0.100000D+01
   p     1 1.00
  0.120900D+00  0.100000D+01
   d     1 1.00
  0.109700D+01  0.100000D+01
   d     1 1.00
  0.318000D+00  0.100000D+01
   f     1 1.00
  0.761000D+00  0.100000D+01
  
  7  0
   s    10 1.00
  0.823600D+04  0.531000D-03
  0.123500D+04  0.410800D-02
  0.280800D+03  0.210870D-01
  0.792700D+02  0.818530D-01
  0.255900D+02  0.234817D+00
  0.899700D+01  0.434401D+00
  0.331900D+01  0.346129D+00
  0.905900D+00  0.393780D-01
  0.364300D+00 -0.898300D-02
  0.128500D+00  0.238500D-02
   s    10 1.00
  0.823600D+04 -0.113000D-03
  0.123500D+04 -0.878000D-03
  0.280800D+03 -0.454000D-02
  0.792700D+02 -0.181330D-01
  0.255900D+02 -0.557600D-01
  0.899700D+01 -0.126895D+00
  0.331900D+01 -0.170352D+00
  0.905900D+00  0.140382D+00
  0.364300D+00  0.598684D+00
  0.128500D+00  0.395389D+00
   s     1 1.00
  0.905900D+00  0.100000D+01
   s     1 1.00
  0.364300D+00  0.100000D+01
   p     5 1.00
  0.187100D+02  0.140310D-01
  0.413300D+01  0.868660D-01
  0.120000D+01  0.290216D+00
  0.382700D+00  0.501008D+00
  0.120900D+00  0.343406D+00
   p     1 1.00
  0.382700D+00  0.100000D+01
   p     1 1.00
  0.120900D+00  0.100000D+01
   d     1 1.00
  0.109700D+01  0.100000D+01
   d     1 1.00
  0.318000D+00  0.100000D+01
   f     1 1.00
  0.761000D+00  0.100000D+01
  
  8  0
   s     4 1.00
  0.130100D+02  0.196850D-01
  0.196200D+01  0.137977D+00
  0.444600D+00  0.478148D+00
  0.122000D+00  0.501240D+00
   s     1 1.00
  0.122000D+00  0.100000D+01
   p     1 1.00
  0.727000D+00  0.100000D+01
  
  9  0
   s     4 1.00
  0.130100D+02  0.196850D-01
  0.196200D+01  0.137977D+00
  0.444600D+00  0.478148D+00
  0.122000D+00  0.501240D+00
   s     1 1.00
  0.122000D+00  0.100000D+01
   p     1 1.00
  0.727000D+00  0.100000D+01
  
 10  0
   s     4 1.00
  0.130100D+02  0.196850D-01
  0.196200D+01  0.137977D+00
  0.444600D+00  0.478148D+00
  0.122000D+00  0.501240D+00
   s     1 1.00
  0.122000D+00  0.100000D+01
   p     1 1.00
  0.727000D+00  0.100000D+01
  
 11  0
   s     4 1.00
  0.130100D+02  0.196850D-01
  0.196200D+01  0.137977D+00
  0.444600D+00  0.478148D+00
  0.122000D+00  0.501240D+00
   s     1 1.00
  0.122000D+00  0.100000D+01
   p     1 1.00
  0.727000D+00  0.100000D+01
  
 12  0
   s     4 1.00
  0.130100D+02  0.196850D-01
  0.196200D+01  0.137977D+00
  0.444600D+00  0.478148D+00
  0.122000D+00  0.501240D+00
   s     1 1.00
  0.122000D+00  0.100000D+01
   p     1 1.00
  0.727000D+00  0.100000D+01
  
 13  0
   s     4 1.00
  0.130100D+02  0.196850D-01
  0.196200D+01  0.137977D+00
  0.444600D+00  0.478148D+00
  0.122000D+00  0.501240D+00
   s     1 1.00
  0.122000D+00  0.100000D+01
   p     1 1.00
  0.727000D+00  0.100000D+01
  
 14  0
   s     4 1.00
  0.130100D+02  0.196850D-01
  0.196200D+01  0.137977D+00
  0.444600D+00  0.478148D+00
  0.122000D+00  0.501240D+00
   s     1 1.00
  0.122000D+00  0.100000D+01
   p     1 1.00
  0.727000D+00  0.100000D+01
  
[MO]
 Sym= __1_A__
 Ene=   1.00000000000000     
 Spin= Alpha
 Occup=    1.00000000000000     
                     1  6.897381870911902E-005
                     2  0.998379799808621     
                     3  2.345213555516304E-003
                     4  1.775970212979235E-003
                     5  4.609262435400557E-003
                     6  2.912313580351517E-003
                     7  5.822041959881172E-003
                     8  3.750597652830064E-012
                     9 -5.755422942435659E-004
                    10 -4.274955273986413E-004
                    11  2.133466844572009E-012
                    12 -2.169950157117856E-003
                    13 -1.267978326204960E-003
                    14  1.040458745596059E-012
                    15 -1.251684657705724E-004
                    16 -3.175983378521544E-013
                    17 -3.006772886148479E-013
                    18 -2.019143792322354E-004
                    19 -9.142008576097389E-005
                    20  2.109628979293279E-004
                    21 -1.351786454485972E-012
                    22  2.031277163014539E-012
                    23 -2.403122604886984E-004
                    24  5.309171819491045E-004
                    25  2.579164992089408E-013
                    26 -5.823173687770617E-006
                    27 -5.382101921550854E-005
                    28 -2.138795380100986E-012
                    29 -9.217712973890623E-013
                    30  1.412030064705361E-005
                    31 -1.326651525629049E-004
                    32 -3.134645323197584E-004
                    33  1.490843227826270E-003
                    34  2.481955058320544E-004
                    35 -2.711487320938519E-004
                    36 -1.690218135815783E-004
                    37 -4.928509736488130E-003
                    38 -2.201623478003655E-012
                    39  4.452170956750270E-004
                    40  2.503411294560106E-004
                    41  7.702132937047815E-012
                    42 -1.872883266118753E-003
                    43  5.114838780691938E-003
                    44  2.172843990815586E-012
                    45 -2.371934675651886E-005
                    46 -6.629415910362906E-013
                    47 -2.702416724199835E-012
                    48 -2.483796037050492E-004
                    49 -1.613474191620196E-005
                    50 -2.741901787169887E-004
                    51  5.457836989009721E-012
                    52  6.652915119003012E-012
                    53  8.656056731515699E-005
                    54  7.456995069201990E-004
                    55  5.551954863646943E-013
                    56 -1.403399177307096E-005
                    57 -4.608825814050428E-005
                    58  6.379745415171540E-013
                    59  1.205410655692062E-012
                    60 -3.175931215263810E-006
                    61 -1.259065023915921E-004
                    62 -4.385206240905023E-004
                    63 -2.094833020383016E-003
                    64 -7.753372062203504E-005
                    65  1.875862774078585E-003
                    66 -6.973632028440262E-004
                    67  5.199761138336023E-004
                    68 -1.336209653113048E-011
                    69  4.146555328996971E-004
                    70  7.651545015742642E-004
                    71  1.235065957740031E-011
                    72 -1.568481753988178E-003
                    73  6.327704025183063E-004
                    74  5.363941881650711E-012
                    75 -3.838671046047332E-005
                    76 -2.316073011123464E-013
                    77 -9.044653711145702E-013
                    78 -8.287762199124569E-005
                    79 -3.026598422777854E-005
                    80 -1.213972218896027E-004
                    81 -1.219562332465114E-012
                    82  1.423895456980583E-012
                    83  9.978303784273672E-005
                    84  1.199182733382897E-004
                    85 -6.215807708170134E-013
                    86  1.185192280292304E-005
                    87 -4.649442178941498E-005
                    88 -2.770834876166786E-013
                    89  1.030000996066378E-012
                    90 -2.023563123087957E-005
                    91 -1.424292227215683E-004
                    92 -1.365906453781723E-004
                    93 -1.075269282335542E-003
                    94  1.990392375405746E-004
                    95 -2.543816234165531E-004
                    96  5.914079651916705E-004
                    97  6.849028837818150E-004
                    98  4.576308747485347E-012
                    99  3.996401013825124E-004
                   100  3.564916157742097E-004
                   101 -1.125578495456158E-011
                   102  4.692323104006458E-004
                   103 -1.247035413626476E-003
                   104 -5.041717817461964E-012
                   105 -2.860417431728699E-006
                   106  1.807705023772125E-012
                   107  1.347004701787965E-012
                   108 -7.142969718603824E-005
                   109 -1.531263214858314E-005
                   110  1.141300446701132E-004
                   111  6.188289392997747E-013
                   112  1.992062220275658E-012
                   113 -1.091962572833687E-004
                   114 -7.653119894395104E-005
                   115  8.044168688778240E-013
                   116 -2.352057978513145E-005
                   117 -3.070014493480342E-005
                   118 -7.467063326687920E-013
                   119 -1.323657020187075E-012
                   120  1.247237929642087E-005
                   121 -3.258141506709346E-005
                   122 -2.469433252463825E-004
                   123 -4.680446927099141E-004
                   124  1.610317308727592E-004
                   125  3.457520350760741E-004
                   126 -4.083349392219397E-006
                   127 -5.585735329480953E-004
                   128 -7.513787719625765E-013
                   129  1.551636396499593E-004
                   130  5.610871104583890E-004
                   131 -3.385645685626852E-012
                   132  3.099312165776887E-004
                   133  1.793553482622217E-003
                   134 -3.445346016591395E-012
                   135  1.265662258772029E-005
                   136  1.122778465807491E-012
                   137 -5.228186638785377E-013
                   138  3.904616518328900E-005
                   139  3.438789813881635E-007
                   140  1.830595280284006E-004
                   141 -4.436810097506892E-012
                   142  5.152409285154427E-013
                   143  3.251735816334536E-004
                   144  2.423892294318330E-004
                   145 -4.731105906711624E-012
                   146 -8.101110681225594E-006
                   147 -5.620691125597911E-005
                   148 -1.268462012267692E-012
                   149 -2.591008040961995E-013
                   150 -1.677628035769670E-005
                   151 -4.494730828826052E-005
                   152 -1.723105270410312E-004
                   153 -2.300314701877330E-004
                   154  4.397658733572024E-005
                   155  3.594170746152332E-004
                   156 -2.906780402493744E-005
                   157 -5.066234355384587E-004
                   158  1.150091566908507E-011
                   159  1.084315722742124E-005
                   160  8.041669347211991E-005
                   161 -1.131072814055550E-011
                   162  6.530016507018463E-004
                   163 -1.257253552658246E-004
                   164  8.442145336258932E-013
                   165 -1.664021432110980E-006
                   166 -3.188318401834528E-012
                   167  1.686972704097824E-013
                   168 -5.206757659718716E-006
                   169  3.700966018337845E-006
                   170  6.606466927142406E-005
                   171  2.867862106414472E-012
                   172 -2.826146540149678E-012
                   173  2.987043673498684E-005
                   174 -4.935362177563436E-005
                   175 -1.560664055875048E-012
                   176  4.111096792365777E-006
                   177 -1.079065848624803E-005
                   178 -1.802334982871790E-012
                   179  9.410080117634808E-013
                   180 -1.942030322095662E-005
                   181 -1.082247006668356E-005
                   182 -1.599745430994141E-004
                   183 -4.526717610356412E-004
                   184  4.523203364512942E-005
                   185  2.272767744024205E-004
                   186 -3.241948145482750E-005
                   187 -5.338306347367783E-005
                   188 -5.293681053830122E-012
                   189  1.732834088170902E-004
                   190  5.705485786785046E-005
                   191  3.700634021815003E-012
                   192  1.089833586327667E-003
                   193 -1.322260998065247E-004
                   194  2.397456043820749E-013
                   195 -1.104811337605523E-006
                   196  9.824333482968688E-013
                   197 -2.285775787970304E-012
                   198 -1.414187321708955E-005
                   199  5.528067144285951E-006
                   200  1.733071856185030E-005
                   201 -4.871142886522738E-013
                   202 -3.177539685520752E-012
                   203 -8.343804322042500E-005
                   204 -1.496019501766724E-004
                   205 -2.924002762040729E-012
                   206 -4.691500546252439E-006
                   207 -5.492983672470816E-006
                   208  3.445907994393962E-012
                   209  1.351377838407839E-012
                   210  8.338256649408581E-006
                   211 -5.464130930875942E-006
                   212  6.043762938639121E-005
                   213  1.088708689684101E-005
                   214  1.261588741059136E-004
                   215  1.307078417264957E-004
                   216  6.152379162036643E-013
                   217  1.212810064750791E-003
                   218 -1.475916597381323E-003
                   219 -3.952578542849961E-004
                   220  2.094675732365338E-004
                   221  1.493595132625740E-012
                   222 -4.530285445356403E-004
                   223 -5.859385585468789E-004
                   224  3.055689134750500E-006
                   225 -6.669126501917425E-005
                   226 -1.610366517578014E-012
                   227 -3.036412039339387E-004
                   228 -3.978409126719685E-004
                   229 -4.005690515144471E-006
                   230 -2.092402065075772E-005
                   231  7.003793515985598E-013
                   232 -8.849791011629938E-005
                   233 -5.214074860704841E-004
                   234  3.392417255521106E-006
                   235  3.788752041893199E-007
                   236  1.360096002990825E-012
                   237 -1.692872583608678E-004
                   238 -4.078916736443374E-004
                   239  6.661225575912908E-006
                   240  3.301753871457439E-006
                   241  1.635664401587094E-012
                   242  1.735958804656950E-005
                   243 -4.213962820801172E-005
                   244 -6.929928239351114E-007
                   245  2.125223739018764E-005
                   246  3.910853034462052E-012
 Sym= __2_A__
 Ene=   2.00000000000000     
 Spin= Alpha
 Occup=    1.00000000000000     
                     1 -4.835137844527304E-005
                     2 -3.245621267162735E-004
                     3  2.642306105806312E-003
                     4  1.466454717486397E-004
                     5  1.353807486625446E-003
                     6 -3.367090933443034E-004
                     7  3.017046363243554E-003
                     8 -5.009245375860177E-012
                     9 -6.867485607472744E-005
                    10 -1.012290703907137E-004
                    11 -5.813955981993676E-013
                    12  1.239779373542855E-004
                    13 -4.548817243277800E-004
                    14  1.428093732969608E-012
                    15  3.490531773618536E-005
                    16 -1.039980643402343E-013
                    17  5.328416703619674E-013
                    18 -5.089313114542952E-005
                    19  4.365890761746636E-006
                    20 -1.260626870748178E-004
                    21 -1.152169520188840E-012
                    22 -1.207217582354488E-012
                    23  1.959643364675408E-004
                    24  2.157641912275015E-006
                    25 -1.038961011103952E-012
                    26 -1.797155197588099E-005
                    27  8.944805842599798E-005
                    28  2.117625915601968E-012
                    29  1.226146083244223E-012
                    30 -2.099318476963204E-005
                    31  1.433897093374858E-004
                    32   1.00102428827345     
                    33  9.342599725472170E-003
                    34  2.723188069098480E-003
                    35 -8.103181458714080E-003
                    36 -1.018774612164919E-004
                    37 -3.585846041540834E-003
                    38  9.724978295993524E-012
                    39  1.084412835356597E-004
                    40  4.223679490170169E-004
                    41 -2.229856880204345E-012
                    42  7.052502310830637E-005
                    43  4.245571260062892E-003
                    44 -7.410783838632902E-013
                    45 -5.687380825810980E-004
                    46  2.021390145768187E-013
                    47  7.758895822380950E-013
                    48 -1.979087076776762E-004
                    49 -7.574680887241283E-006
                    50  5.480293049405183E-004
                    51  2.436493708741384E-012
                    52 -1.613133541635684E-012
                    53 -9.330671276353788E-004
                    54  7.650655144026288E-005
                    55 -2.021747161891231E-012
                    56 -2.517444419753301E-006
                    57  9.368083791314209E-005
                    58 -1.180092821481833E-012
                    59 -2.074224531872167E-012
                    60 -1.053534121688371E-006
                    61  4.040191101350975E-004
                    62  9.081418386675659E-003
                    63 -2.084592852820239E-003
                    64 -2.955714347967487E-004
                    65  3.088147661575027E-003
                    66 -9.831211749777437E-006
                    67  9.256894275370281E-005
                    68 -1.130822448832995E-011
                    69  7.416621520099957E-004
                    70 -2.104087044633050E-005
                    71  1.428555934038924E-011
                    72 -2.055867148202869E-003
                    73  5.236879763520413E-005
                    74 -1.450589122154256E-011
                    75  2.563077220196271E-005
                    76 -2.722678952856155E-013
                    77  7.160948877873560E-013
                    78 -2.580943598506432E-006
                    79  6.232483059571773E-007
                    80 -4.074605335562339E-004
                    81 -2.445914428845513E-012
                    82 -3.782477396684139E-012
                    83 -5.810280692899332E-004
                    84 -3.832058232071665E-004
                    85  9.141406138124637E-013
                    86  3.389513401402968E-005
                    87 -5.895692729579838E-005
                    88  1.082137115587175E-012
                    89 -1.049631991274489E-013
                    90  5.246910328391507E-005
                    91  1.409464171057778E-004
                    92  9.841015121550962E-003
                    93 -2.072139585718898E-003
                    94 -2.844004886655469E-004
                    95  3.037729046165093E-003
                    96  4.259849464105488E-006
                    97  6.543229699517049E-005
                    98  8.651979747847015E-012
                    99 -6.627512003234567E-004
                   100  3.975050886512254E-005
                   101 -1.086049404848631E-011
                   102  2.066569507678990E-003
                   103  7.649434369673686E-005
                   104  2.965533009488178E-012
                   105  3.005145456578095E-005
                   106  9.654512577278563E-013
                   107 -1.078188382087395E-012
                   108 -3.348425017302078E-006
                   109 -7.512078238839228E-006
                   110 -4.132117886728556E-004
                   111 -1.386030443443910E-012
                   112  9.452280200404396E-012
                   113 -6.261417239303928E-004
                   114  3.791918047890960E-004
                   115 -2.522802446121294E-012
                   116 -3.165150513622733E-005
                   117 -5.911424318555506E-005
                   118  2.388939766356514E-012
                   119  5.676281247043650E-013
                   120 -5.004188291605462E-005
                   121  1.367920277758250E-004
                   122 -1.610198783877257E-004
                   123 -6.795271227175867E-004
                   124  2.230247979597680E-004
                   125 -9.403414338803913E-005
                   126 -3.684297656911044E-006
                   127 -3.266159057249768E-004
                   128 -3.165604840862230E-012
                   129 -6.177368986699451E-005
                   130  5.282710663610063E-004
                   131  4.094521997820956E-012
                   132  3.053206077527276E-004
                   133  7.470084400893529E-004
                   134  2.406336889674306E-011
                   135  1.838120670385222E-005
                   136 -2.775185677879447E-012
                   137  8.769638462436848E-013
                   138  3.772792328970360E-006
                   139  5.240902206527681E-005
                   140  1.372236062088009E-004
                   141  3.900353372102012E-012
                   142 -4.559576053620893E-012
                   143  2.385678801246944E-004
                   144 -1.805242015463527E-004
                   145  1.435190623436015E-012
                   146  7.281249204090278E-006
                   147 -3.374286897026521E-005
                   148 -1.181023668794037E-012
                   149 -1.190154666125893E-012
                   150 -4.773846162342722E-005
                   151  2.863014896548045E-005
                   152 -1.368372478237685E-004
                   153 -6.872242728279811E-004
                   154  2.293885998925548E-004
                   155 -1.326736363638110E-004
                   156  2.763318087329179E-006
                   157 -3.208404842236696E-004
                   158  7.867597316006460E-012
                   159  3.946968123296113E-005
                   160  5.664246897290435E-004