[Molden Format]
[Atoms] AU
  N     1    7     0.0000000000   -4.2907334100    0.0000000000        
  C     2    6     0.0000000000   -1.7772236300    0.0000000000        
  C     3    6    -2.3389203600   -0.4111016300    0.0000000000        
  C     4    6     2.3389203600   -0.4111016300    0.0000000000        
  C     5    6    -2.2998668500    2.1639215300    0.0000000000        
  C     6    6     2.2998668500    2.1639215300    0.0000000000        
  C     7    6     0.0000000000    3.4755251800    0.0000000000        
  H     8    1    -2.5732809600   -5.8782317900    0.0000000000        
  H     9    1     1.6528040300   -5.3103747800    0.0000000000        
  H    10    1    -4.0745407300   -1.4447408500    0.0000000000        
  H    11    1     4.0745407300   -1.4447408500    0.0000000000        
  H    12    1    -4.0420632100    3.1963889500    0.0000000000        
  H    13    1     4.0420632100    3.1963889500    0.0000000000        
  H    14    1     0.0000000000    5.5020335600    0.0000000000        
[5D]
[7F]
[GTO]
  1  0
   s    12 1.00
  0.114200D+05  0.172695D-04
  0.171200D+04  0.134411D-03
  0.389300D+03  0.694561D-03
  0.110000D+03  0.278531D-02
  0.355700D+02  0.863457D-02
  0.125400D+02  0.199805D-01
  0.464400D+01  0.262908D-01
  0.129300D+01 -0.243845D-01
  0.511800D+00 -0.924934D-01
  0.178700D+00 -0.339683D+00
  0.246240D-01  0.345111D+00
  0.112530D-01  0.752750D+00
   s    10 1.00
  0.114200D+05  0.523000D-03
  0.171200D+04  0.404500D-02
  0.389300D+03  0.207750D-01
  0.110000D+03  0.807269D-01
  0.355700D+02  0.233074D+00
  0.125400D+02  0.433501D+00
  0.464400D+01  0.347472D+00
  0.129300D+01  0.412620D-01
  0.511800D+00 -0.850799D-02
  0.178700D+00  0.238400D-02
   s    10 1.00
  0.114200D+05 -0.115000D-03
  0.171200D+04 -0.895000D-03
  0.389300D+03 -0.462400D-02
  0.110000D+03 -0.185280D-01
  0.355700D+02 -0.573390D-01
  0.125400D+02 -0.132076D+00
  0.464400D+01 -0.172510D+00
  0.129300D+01  0.151814D+00
  0.511800D+00  0.599944D+00
  0.178700D+00  0.387462D+00
   s     1 1.00
  0.129300D+01  0.100000D+01
   s     1 1.00
  0.178700D+00  0.100000D+01
   p     5 1.00
  0.266300D+02  0.146700D-01
  0.594800D+01  0.917640D-01
  0.174200D+01  0.298683D+00
  0.555000D+00  0.498487D+00
  0.172500D+00  0.337023D+00
   p     1 1.00
  0.174200D+01  0.100000D+01
   p     1 1.00
  0.555000D+00  0.100000D+01
   d     1 1.00
  0.165400D+01  0.100000D+01
   d     1 1.00
  0.469000D+00  0.100000D+01
   f     1 1.00
  0.109300D+01  0.100000D+01
  
  2  0
   s    10 1.00
  0.823600D+04  0.531000D-03
  0.123500D+04  0.410800D-02
  0.280800D+03  0.210870D-01
  0.792700D+02  0.818530D-01
  0.255900D+02  0.234817D+00
  0.899700D+01  0.434401D+00
  0.331900D+01  0.346129D+00
  0.905900D+00  0.393780D-01
  0.364300D+00 -0.898300D-02
  0.128500D+00  0.238500D-02
   s    10 1.00
  0.823600D+04 -0.113000D-03
  0.123500D+04 -0.878000D-03
  0.280800D+03 -0.454000D-02
  0.792700D+02 -0.181330D-01
  0.255900D+02 -0.557600D-01
  0.899700D+01 -0.126895D+00
  0.331900D+01 -0.170352D+00
  0.905900D+00  0.140382D+00
  0.364300D+00  0.598684D+00
  0.128500D+00  0.395389D+00
   s     1 1.00
  0.905900D+00  0.100000D+01
   s     1 1.00
  0.364300D+00  0.100000D+01
   p     5 1.00
  0.187100D+02  0.140310D-01
  0.413300D+01  0.868660D-01
  0.120000D+01  0.290216D+00
  0.382700D+00  0.501008D+00
  0.120900D+00  0.343406D+00
   p     1 1.00
  0.382700D+00  0.100000D+01
   p     1 1.00
  0.120900D+00  0.100000D+01
   d     1 1.00
  0.109700D+01  0.100000D+01
   d     1 1.00
  0.318000D+00  0.100000D+01
   f     1 1.00
  0.761000D+00  0.100000D+01
  
  3  0
   s    10 1.00
  0.823600D+04  0.531000D-03
  0.123500D+04  0.410800D-02
  0.280800D+03  0.210870D-01
  0.792700D+02  0.818530D-01
  0.255900D+02  0.234817D+00
  0.899700D+01  0.434401D+00
  0.331900D+01  0.346129D+00
  0.905900D+00  0.393780D-01
  0.364300D+00 -0.898300D-02
  0.128500D+00  0.238500D-02
   s    10 1.00
  0.823600D+04 -0.113000D-03
  0.123500D+04 -0.878000D-03
  0.280800D+03 -0.454000D-02
  0.792700D+02 -0.181330D-01
  0.255900D+02 -0.557600D-01
  0.899700D+01 -0.126895D+00
  0.331900D+01 -0.170352D+00
  0.905900D+00  0.140382D+00
  0.364300D+00  0.598684D+00
  0.128500D+00  0.395389D+00
   s     1 1.00
  0.905900D+00  0.100000D+01
   s     1 1.00
  0.364300D+00  0.100000D+01
   p     5 1.00
  0.187100D+02  0.140310D-01
  0.413300D+01  0.868660D-01
  0.120000D+01  0.290216D+00
  0.382700D+00  0.501008D+00
  0.120900D+00  0.343406D+00
   p     1 1.00
  0.382700D+00  0.100000D+01
   p     1 1.00
  0.120900D+00  0.100000D+01
   d     1 1.00
  0.109700D+01  0.100000D+01
   d     1 1.00
  0.318000D+00  0.100000D+01
   f     1 1.00
  0.761000D+00  0.100000D+01
  
  4  0
   s    10 1.00
  0.823600D+04  0.531000D-03
  0.123500D+04  0.410800D-02
  0.280800D+03  0.210870D-01
  0.792700D+02  0.818530D-01
  0.255900D+02  0.234817D+00
  0.899700D+01  0.434401D+00
  0.331900D+01  0.346129D+00
  0.905900D+00  0.393780D-01
  0.364300D+00 -0.898300D-02
  0.128500D+00  0.238500D-02
   s    10 1.00
  0.823600D+04 -0.113000D-03
  0.123500D+04 -0.878000D-03
  0.280800D+03 -0.454000D-02
  0.792700D+02 -0.181330D-01
  0.255900D+02 -0.557600D-01
  0.899700D+01 -0.126895D+00
  0.331900D+01 -0.170352D+00
  0.905900D+00  0.140382D+00
  0.364300D+00  0.598684D+00
  0.128500D+00  0.395389D+00
   s     1 1.00
  0.905900D+00  0.100000D+01
   s     1 1.00
  0.364300D+00  0.100000D+01
   p     5 1.00
  0.187100D+02  0.140310D-01
  0.413300D+01  0.868660D-01
  0.120000D+01  0.290216D+00
  0.382700D+00  0.501008D+00
  0.120900D+00  0.343406D+00
   p     1 1.00
  0.382700D+00  0.100000D+01
   p     1 1.00
  0.120900D+00  0.100000D+01
   d     1 1.00
  0.109700D+01  0.100000D+01
   d     1 1.00
  0.318000D+00  0.100000D+01
   f     1 1.00
  0.761000D+00  0.100000D+01
  
  5  0
   s    10 1.00
  0.823600D+04  0.531000D-03
  0.123500D+04  0.410800D-02
  0.280800D+03  0.210870D-01
  0.792700D+02  0.818530D-01
  0.255900D+02  0.234817D+00
  0.899700D+01  0.434401D+00
  0.331900D+01  0.346129D+00
  0.905900D+00  0.393780D-01
  0.364300D+00 -0.898300D-02
  0.128500D+00  0.238500D-02
   s    10 1.00
  0.823600D+04 -0.113000D-03
  0.123500D+04 -0.878000D-03
  0.280800D+03 -0.454000D-02
  0.792700D+02 -0.181330D-01
  0.255900D+02 -0.557600D-01
  0.899700D+01 -0.126895D+00
  0.331900D+01 -0.170352D+00
  0.905900D+00  0.140382D+00
  0.364300D+00  0.598684D+00
  0.128500D+00  0.395389D+00
   s     1 1.00
  0.905900D+00  0.100000D+01
   s     1 1.00
  0.364300D+00  0.100000D+01
   p     5 1.00
  0.187100D+02  0.140310D-01
  0.413300D+01  0.868660D-01
  0.120000D+01  0.290216D+00
  0.382700D+00  0.501008D+00
  0.120900D+00  0.343406D+00
   p     1 1.00
  0.382700D+00  0.100000D+01
   p     1 1.00
  0.120900D+00  0.100000D+01
   d     1 1.00
  0.109700D+01  0.100000D+01
   d     1 1.00
  0.318000D+00  0.100000D+01
   f     1 1.00
  0.761000D+00  0.100000D+01
  
  6  0
   s    10 1.00
  0.823600D+04  0.531000D-03
  0.123500D+04  0.410800D-02
  0.280800D+03  0.210870D-01
  0.792700D+02  0.818530D-01
  0.255900D+02  0.234817D+00
  0.899700D+01  0.434401D+00
  0.331900D+01  0.346129D+00
  0.905900D+00  0.393780D-01
  0.364300D+00 -0.898300D-02
  0.128500D+00  0.238500D-02
   s    10 1.00
  0.823600D+04 -0.113000D-03
  0.123500D+04 -0.878000D-03
  0.280800D+03 -0.454000D-02
  0.792700D+02 -0.181330D-01
  0.255900D+02 -0.557600D-01
  0.899700D+01 -0.126895D+00
  0.331900D+01 -0.170352D+00
  0.905900D+00  0.140382D+00
  0.364300D+00  0.598684D+00
  0.128500D+00  0.395389D+00
   s     1 1.00
  0.905900D+00  0.100000D+01
   s     1 1.00
  0.364300D+00  0.100000D+01
   p     5 1.00
  0.187100D+02  0.140310D-01
  0.413300D+01  0.868660D-01
  0.120000D+01  0.290216D+00
  0.382700D+00  0.501008D+00
  0.120900D+00  0.343406D+00
   p     1 1.00
  0.382700D+00  0.100000D+01
   p     1 1.00
  0.120900D+00  0.100000D+01
   d     1 1.00
  0.109700D+01  0.100000D+01
   d     1 1.00
  0.318000D+00  0.100000D+01
   f     1 1.00
  0.761000D+00  0.100000D+01
  
  7  0
   s    10 1.00
  0.823600D+04  0.531000D-03
  0.123500D+04  0.410800D-02
  0.280800D+03  0.210870D-01
  0.792700D+02  0.818530D-01
  0.255900D+02  0.234817D+00
  0.899700D+01  0.434401D+00
  0.331900D+01  0.346129D+00
  0.905900D+00  0.393780D-01
  0.364300D+00 -0.898300D-02
  0.128500D+00  0.238500D-02
   s    10 1.00
  0.823600D+04 -0.113000D-03
  0.123500D+04 -0.878000D-03
  0.280800D+03 -0.454000D-02
  0.792700D+02 -0.181330D-01
  0.255900D+02 -0.557600D-01
  0.899700D+01 -0.126895D+00
  0.331900D+01 -0.170352D+00
  0.905900D+00  0.140382D+00
  0.364300D+00  0.598684D+00
  0.128500D+00  0.395389D+00
   s     1 1.00
  0.905900D+00  0.100000D+01
   s     1 1.00
  0.364300D+00  0.100000D+01
   p     5 1.00
  0.187100D+02  0.140310D-01
  0.413300D+01  0.868660D-01
  0.120000D+01  0.290216D+00
  0.382700D+00  0.501008D+00
  0.120900D+00  0.343406D+00
   p     1 1.00
  0.382700D+00  0.100000D+01
   p     1 1.00
  0.120900D+00  0.100000D+01
   d     1 1.00
  0.109700D+01  0.100000D+01
   d     1 1.00
  0.318000D+00  0.100000D+01
   f     1 1.00
  0.761000D+00  0.100000D+01
  
  8  0
   s     4 1.00
  0.130100D+02  0.196850D-01
  0.196200D+01  0.137977D+00
  0.444600D+00  0.478148D+00
  0.122000D+00  0.501240D+00
   s     1 1.00
  0.122000D+00  0.100000D+01
   p     1 1.00
  0.727000D+00  0.100000D+01
  
  9  0
   s     4 1.00
  0.130100D+02  0.196850D-01
  0.196200D+01  0.137977D+00
  0.444600D+00  0.478148D+00
  0.122000D+00  0.501240D+00
   s     1 1.00
  0.122000D+00  0.100000D+01
   p     1 1.00
  0.727000D+00  0.100000D+01
  
 10  0
   s     4 1.00
  0.130100D+02  0.196850D-01
  0.196200D+01  0.137977D+00
  0.444600D+00  0.478148D+00
  0.122000D+00  0.501240D+00
   s     1 1.00
  0.122000D+00  0.100000D+01
   p     1 1.00
  0.727000D+00  0.100000D+01
  
 11  0
   s     4 1.00
  0.130100D+02  0.196850D-01
  0.196200D+01  0.137977D+00
  0.444600D+00  0.478148D+00
  0.122000D+00  0.501240D+00
   s     1 1.00
  0.122000D+00  0.100000D+01
   p     1 1.00
  0.727000D+00  0.100000D+01
  
 12  0
   s     4 1.00
  0.130100D+02  0.196850D-01
  0.196200D+01  0.137977D+00
  0.444600D+00  0.478148D+00
  0.122000D+00  0.501240D+00
   s     1 1.00
  0.122000D+00  0.100000D+01
   p     1 1.00
  0.727000D+00  0.100000D+01
  
 13  0
   s     4 1.00
  0.130100D+02  0.196850D-01
  0.196200D+01  0.137977D+00
  0.444600D+00  0.478148D+00
  0.122000D+00  0.501240D+00
   s     1 1.00
  0.122000D+00  0.100000D+01
   p     1 1.00
  0.727000D+00  0.100000D+01
  
 14  0
   s     4 1.00
  0.130100D+02  0.196850D-01
  0.196200D+01  0.137977D+00
  0.444600D+00  0.478148D+00
  0.122000D+00  0.501240D+00
   s     1 1.00
  0.122000D+00  0.100000D+01
   p     1 1.00
  0.727000D+00  0.100000D+01
  
[MO]
 Sym= __1_a__
 Ene=  0.000000000000000E+000
 Spin= Alpha
 Occup=    2.00000000000000     
                     1  6.897381870911900E-005
                     2  0.998379799808621     
                     3  2.345213555516300E-003
                     4  1.775970212979230E-003
                     5  4.609262435400560E-003
                     6  2.912313580351520E-003
                     7  5.822041959881170E-003
                     8  3.750597652830060E-012
                     9 -5.755422942435660E-004
                    10 -4.274955273986410E-004
                    11  2.133466844572010E-012
                    12 -2.169950157117860E-003
                    13 -1.267978326204960E-003
                    14  1.040458745596060E-012
                    15 -1.251684657705723E-004
                    16 -3.175983378521540E-013
                    17 -3.006772886148480E-013
                    18 -2.019143792322360E-004
                    19 -9.142008576097390E-005
                    20  2.109628979293278E-004
                    21 -1.351786454485970E-012
                    22  2.031277163014540E-012
                    23 -2.403122604886980E-004
                    24  5.309171819491050E-004
                    25  2.579164992089408E-013
                    26 -5.823173687770617E-006
                    27 -5.382101921550856E-005
                    28 -2.138795380100980E-012
                    29 -9.217712973890619E-013
                    30  1.412030064705361E-005
                    31 -1.326651525629046E-004
                    32 -3.134645323197580E-004
                    33  1.490843227826270E-003
                    34  2.481955058320540E-004
                    35 -2.711487320938520E-004
                    36 -1.690218135815780E-004
                    37 -4.928509736488130E-003
                    38 -2.201623478003650E-012
                    39  4.452170956750270E-004
                    40  2.503411294560110E-004
                    41  7.702132937047820E-012
                    42 -1.872883266118750E-003
                    43  5.114838780691940E-003
                    44  2.172843990815590E-012
                    45 -2.371934675651885E-005
                    46 -6.629415910362910E-013
                    47 -2.702416724199840E-012
                    48 -2.483796037050500E-004
                    49 -1.613474191620200E-005
                    50 -2.741901787169886E-004
                    51  5.457836989009720E-012
                    52  6.652915119003010E-012
                    53  8.656056731515699E-005
                    54  7.456995069201990E-004
                    55  5.551954863646948E-013
                    56 -1.403399177307098E-005
                    57 -4.608825814050430E-005
                    58  6.379745415171540E-013
                    59  1.205410655692060E-012
                    60 -3.175931215263804E-006
                    61 -1.259065023915922E-004
                    62 -4.385206240905020E-004
                    63 -2.094833020383020E-003
                    64 -7.753372062203500E-005
                    65  1.875862774078580E-003
                    66 -6.973632028440260E-004
                    67  5.199761138336020E-004
                    68 -1.336209653113050E-011
                    69  4.146555328996970E-004
                    70  7.651545015742640E-004
                    71  1.235065957740030E-011
                    72 -1.568481753988180E-003
                    73  6.327704025183060E-004
                    74  5.363941881650710E-012
                    75 -3.838671046047315E-005
                    76 -2.316073011123460E-013
                    77 -9.044653711145700E-013
                    78 -8.287762199124560E-005
                    79 -3.026598422777850E-005
                    80 -1.213972218896026E-004
                    81 -1.219562332465110E-012
                    82  1.423895456980580E-012
                    83  9.978303784273680E-005
                    84  1.199182733382900E-004
                    85 -6.215807708170129E-013
                    86  1.185192280292306E-005
                    87 -4.649442178941501E-005
                    88 -2.770834876166780E-013
                    89  1.030000996066380E-012
                    90 -2.023563123087956E-005
                    91 -1.424292227215681E-004
                    92 -1.365906453781720E-004
                    93 -1.075269282335540E-003
                    94  1.990392375405750E-004
                    95 -2.543816234165530E-004
                    96  5.914079651916700E-004
                    97  6.849028837818150E-004
                    98  4.576308747485350E-012
                    99  3.996401013825120E-004
                   100  3.564916157742100E-004
                   101 -1.125578495456160E-011
                   102  4.692323104006460E-004
                   103 -1.247035413626480E-003
                   104 -5.041717817461960E-012
                   105 -2.860417431728698E-006
                   106  1.807705023772130E-012
                   107  1.347004701787960E-012
                   108 -7.142969718603820E-005
                   109 -1.531263214858310E-005
                   110  1.141300446701131E-004
                   111  6.188289392997750E-013
                   112  1.992062220275660E-012
                   113 -1.091962572833688E-004
                   114 -7.653119894395100E-005
                   115  8.044168688778246E-013
                   116 -2.352057978513146E-005
                   117 -3.070014493480339E-005
                   118 -7.467063326687920E-013
                   119 -1.323657020187070E-012
                   120  1.247237929642087E-005
                   121 -3.258141506709347E-005
                   122 -2.469433252463830E-004
                   123 -4.680446927099140E-004
                   124  1.610317308727590E-004
                   125  3.457520350760740E-004
                   126 -4.083349392219400E-006
                   127 -5.585735329480950E-004
                   128 -7.513787719625770E-013
                   129  1.551636396499590E-004
                   130  5.610871104583890E-004
                   131 -3.385645685626850E-012
                   132  3.099312165776890E-004
                   133  1.793553482622220E-003
                   134 -3.445346016591400E-012
                   135  1.265662258772028E-005
                   136  1.122778465807490E-012
                   137 -5.228186638785380E-013
                   138  3.904616518328900E-005
                   139  3.438789813881630E-007
                   140  1.830595280284007E-004
                   141 -4.436810097506890E-012
                   142  5.152409285154430E-013
                   143  3.251735816334540E-004
                   144  2.423892294318330E-004
                   145 -4.731105906711633E-012
                   146 -8.101110681225613E-006
                   147 -5.620691125597912E-005
                   148 -1.268462012267692E-012
                   149 -2.591008040961990E-013
                   150 -1.677628035769663E-005
                   151 -4.494730828826052E-005
                   152 -1.723105270410310E-004
                   153 -2.300314701877330E-004
                   154  4.397658733572020E-005
                   155  3.594170746152330E-004
                   156 -2.906780402493740E-005
                   157 -5.066234355384590E-004
                   158  1.150091566908510E-011
                   159  1.084315722742120E-005
                   160  8.041669347211989E-005
                   161 -1.131072814055550E-011
                   162  6.530016507018460E-004
                   163 -1.257253552658250E-004
                   164  8.442145336258930E-013
                   165 -1.664021432110982E-006
                   166 -3.188318401834530E-012
                   167  1.686972704097820E-013
                   168 -5.206757659718720E-006
                   169  3.700966018337850E-006
                   170  6.606466927142391E-005
                   171  2.867862106414470E-012
                   172 -2.826146540149680E-012
                   173  2.987043673498680E-005
                   174 -4.935362177563440E-005
                   175 -1.560664055875047E-012
                   176  4.111096792365776E-006
                   177 -1.079065848624800E-005
                   178 -1.802334982871790E-012
                   179  9.410080117634810E-013
                   180 -1.942030322095664E-005
                   181 -1.082247006668358E-005
                   182 -1.599745430994140E-004
                   183 -4.526717610356410E-004
                   184  4.523203364512940E-005
                   185  2.272767744024200E-004
                   186 -3.241948145482750E-005
                   187 -5.338306347367780E-005
                   188 -5.293681053830120E-012
                   189  1.732834088170900E-004
                   190  5.705485786785050E-005
                   191  3.700634021815000E-012
                   192  1.089833586327670E-003
                   193 -1.322260998065250E-004
                   194  2.397456043820750E-013
                   195 -1.104811337605524E-006
                   196  9.824333482968690E-013
                   197 -2.285775787970300E-012
                   198 -1.414187321708954E-005
                   199  5.528067144285950E-006
                   200  1.733071856185031E-005
                   201 -4.871142886522740E-013
                   202 -3.177539685520750E-012
                   203 -8.343804322042500E-005
                   204 -1.496019501766720E-004
                   205 -2.924002762040721E-012
                   206 -4.691500546252440E-006
                   207 -5.492983672470815E-006
                   208  3.445907994393960E-012
                   209  1.351377838407840E-012
                   210  8.338256649408588E-006
                   211 -5.464130930875942E-006
                   212  6.043762938639120E-005
                   213  1.088708689684100E-005
                   214  1.261588741059140E-004
                   215  1.307078417264960E-004
                   216  6.152379162036640E-013
                   217  1.212810064750790E-003
                   218 -1.475916597381320E-003
                   219 -3.952578542849960E-004
                   220  2.094675732365340E-004
                   221  1.493595132625740E-012
                   222 -4.530285445356400E-004
                   223 -5.859385585468790E-004
                   224  3.055689134750500E-006
                   225 -6.669126501917431E-005
                   226 -1.610366517578010E-012
                   227 -3.036412039339390E-004
                   228 -3.978409126719680E-004
                   229 -4.005690515144470E-006
                   230 -2.092402065075770E-005
                   231  7.003793515985600E-013
                   232 -8.849791011629940E-005
                   233 -5.214074860704840E-004
                   234  3.392417255521110E-006
                   235  3.788752041893200E-007
                   236  1.360096002990820E-012
                   237 -1.692872583608680E-004
                   238 -4.078916736443370E-004
                   239  6.661225575912910E-006
                   240  3.301753871457440E-006
                   241  1.635664401587090E-012
                   242  1.735958804656950E-005
                   243 -4.213962820801170E-005
                   244 -6.929928239351110E-007
                   245  2.125223739018760E-005
                   246  3.910853034462050E-012
 Sym= __2_a__
 Ene=  0.000000000000000E+000
 Spin= Alpha
 Occup=    2.00000000000000     
                     1 -4.835137844527300E-005
                     2 -3.245621267162740E-004
                     3  2.642306105806310E-003
                     4  1.466454717486400E-004
                     5  1.353807486625450E-003
                     6 -3.367090933443030E-004
                     7  3.017046363243550E-003
                     8 -5.009245375860180E-012
                     9 -6.867485607472740E-005
                    10 -1.012290703907140E-004
                    11 -5.813955981993680E-013
                    12  1.239779373542850E-004
                    13 -4.548817243277800E-004
                    14  1.428093732969610E-012
                    15  3.490531773618530E-005
                    16 -1.039980643402340E-013
                    17  5.328416703619670E-013
                    18 -5.089313114542960E-005
                    19  4.365890761746640E-006
                    20 -1.260626870748177E-004
                    21 -1.152169520188840E-012
                    22 -1.207217582354490E-012
                    23  1.959643364675408E-004
                    24  2.157641912275010E-006
                    25 -1.038961011103951E-012
                    26 -1.797155197588101E-005
                    27  8.944805842599817E-005
                    28  2.117625915601960E-012
                    29  1.226146083244220E-012
                    30 -2.099318476963200E-005
                    31  1.433897093374858E-004
                    32   1.00102428827345     
                    33  9.342599725472170E-003
                    34  2.723188069098480E-003
                    35 -8.103181458714080E-003
                    36 -1.018774612164920E-004
                    37 -3.585846041540830E-003
                    38  9.724978295993519E-012
                    39  1.084412835356600E-004
                    40  4.223679490170170E-004
                    41 -2.229856880204350E-012
                    42  7.052502310830640E-005
                    43  4.245571260062890E-003
                    44 -7.410783838632900E-013
                    45 -5.687380825810970E-004
                    46  2.021390145768190E-013
                    47  7.758895822380950E-013
                    48 -1.979087076776762E-004
                    49 -7.574680887241280E-006
                    50  5.480293049405186E-004
                    51  2.436493708741380E-012
                    52 -1.613133541635680E-012
                    53 -9.330671276353780E-004
                    54  7.650655144026289E-005
                    55 -2.021747161891231E-012
                    56 -2.517444419753303E-006
                    57  9.368083791314203E-005
                    58 -1.180092821481832E-012
                    59 -2.074224531872170E-012
                    60 -1.053534121688370E-006
                    61  4.040191101350976E-004
                    62  9.081418386675659E-003
                    63 -2.084592852820240E-003
                    64 -2.955714347967490E-004
                    65  3.088147661575030E-003
                    66 -9.831211749777439E-006
                    67  9.256894275370279E-005
                    68 -1.130822448833000E-011
                    69  7.416621520099960E-004
                    70 -2.104087044633050E-005
                    71  1.428555934038920E-011
                    72 -2.055867148202870E-003
                    73  5.236879763520410E-005
                    74 -1.450589122154260E-011
                    75  2.563077220196273E-005
                    76 -2.722678952856150E-013
                    77  7.160948877873560E-013
                    78 -2.580943598506440E-006
                    79  6.232483059571770E-007
                    80 -4.074605335562335E-004
                    81 -2.445914428845510E-012
                    82 -3.782477396684140E-012
                    83 -5.810280692899340E-004
                    84 -3.832058232071670E-004
                    85  9.141406138124641E-013
                    86  3.389513401402967E-005
                    87 -5.895692729579838E-005
                    88  1.082137115587176E-012
                    89 -1.049631991274490E-013
                    90  5.246910328391510E-005
                    91  1.409464171057779E-004
                    92  9.841015121550960E-003
                    93 -2.072139585718900E-003
                    94 -2.844004886655470E-004
                    95  3.037729046165090E-003
                    96  4.259849464105490E-006
                    97  6.543229699517050E-005
                    98  8.651979747847010E-012
                    99 -6.627512003234570E-004
                   100  3.975050886512250E-005
                   101 -1.086049404848630E-011
                   102  2.066569507678990E-003
                   103  7.649434369673690E-005
                   104  2.965533009488180E-012
                   105  3.005145456578094E-005
                   106  9.654512577278559E-013
                   107 -1.078188382087390E-012
                   108 -3.348425017302080E-006
                   109 -7.512078238839230E-006
                   110 -4.132117886728556E-004
                   111 -1.386030443443910E-012
                   112  9.452280200404401E-012
                   113 -6.261417239303920E-004
                   114  3.791918047890960E-004
                   115 -2.522802446121295E-012
                   116 -3.165150513622733E-005
                   117 -5.911424318555505E-005
                   118  2.388939766356520E-012
                   119  5.676281247043650E-013
                   120 -5.004188291605457E-005
                   121  1.367920277758249E-004
                   122 -1.610198783877260E-004
                   123 -6.795271227175870E-004
                   124  2.230247979597680E-004
                   125 -9.403414338803910E-005
                   126 -3.684297656911040E-006
                   127 -3.266159057249770E-004
                   128 -3.165604840862230E-012
                   129 -6.177368986699450E-005
                   130  5.282710663610060E-004
                   131  4.094521997820960E-012
                   132  3.053206077527280E-004
                   133  7.470084400893530E-004
                   134  2.406336889674310E-011
                   135  1.838120670385223E-005
                   136 -2.775185677879450E-012
                   137  8.769638462436850E-013
                   138  3.772792328970360E-006
                   139  5.240902206527680E-005
                   140  1.372236062088009E-004
                   141  3.900353372102010E-012
                   142 -4.559576053620890E-012
                   143  2.385678801246940E-004
                   144 -1.805242015463530E-004
                   145  1.435190623436016E-012
                   146  7.281249204090253E-006
                   147 -3.374286897026518E-005
                   148 -1.181023668794038E-012
                   149 -1.190154666125890E-012
                   150 -4.773846162342716E-005
                   151  2.863014896548047E-005
                   152 -1.368372478237690E-004
                   153 -6.872242728279810E-004
                   154  2.293885998925550E-004
                   155 -1.326736363638110E-004
                   156  2.763318087329180E-006
                   157 -3.208404842236700E-004
                   158  7.867597316006460E-012
                   159  3.946968123296110E-005
                   160  5.664246897290430E-004