[Molden Format]
[Atoms] AU
  N     1    7    -0.0034053200   -0.0024578800   -4.3489558100        
  C     2    6    -0.0023874100   -0.0036371600   -1.7448326000        
  C     3    6     0.0961824300   -2.3249885200   -0.4143637600        
  C     4    6    -0.0999162700    2.3165082000   -0.4121851900        
  C     5    6     0.1647195800   -2.2935804800    2.1761406600        
  C     6    6    -0.1664282500    2.2827539200    2.1783425000        
  C     7    6    -0.0003478600   -0.0060000600    3.4729811900        
  H     8    1    -1.3686943100   -0.9629193700   -5.3612638600        
  H     9    1     1.3610922200    0.9589205400   -5.3614605700        
  H    10    1     0.2000953300   -4.0515043600   -1.4573602500        
  H    11    1    -0.2046439000    4.0439679500   -1.4535359700        
  H    12    1     0.3293639000   -4.0282185200    3.2076688200        
  H    13    1    -0.3302654900    4.0164569400    3.2115697000        
  H    14    1     0.0004449700   -0.0069186300    5.5013520600        
[5D]
[7F]
[GTO]
  1  0
   s    12 1.00
  0.114200D+05  0.172695D-04
  0.171200D+04  0.134411D-03
  0.389300D+03  0.694561D-03
  0.110000D+03  0.278531D-02
  0.355700D+02  0.863457D-02
  0.125400D+02  0.199805D-01
  0.464400D+01  0.262908D-01
  0.129300D+01 -0.243845D-01
  0.511800D+00 -0.924934D-01
  0.178700D+00 -0.339683D+00
  0.246240D-01  0.345111D+00
  0.112530D-01  0.752750D+00
   s    10 1.00
  0.114200D+05  0.523000D-03
  0.171200D+04  0.404500D-02
  0.389300D+03  0.207750D-01
  0.110000D+03  0.807269D-01
  0.355700D+02  0.233074D+00
  0.125400D+02  0.433501D+00
  0.464400D+01  0.347472D+00
  0.129300D+01  0.412620D-01
  0.511800D+00 -0.850799D-02
  0.178700D+00  0.238400D-02
   s    10 1.00
  0.114200D+05 -0.115000D-03
  0.171200D+04 -0.895000D-03
  0.389300D+03 -0.462400D-02
  0.110000D+03 -0.185280D-01
  0.355700D+02 -0.573390D-01
  0.125400D+02 -0.132076D+00
  0.464400D+01 -0.172510D+00
  0.129300D+01  0.151814D+00
  0.511800D+00  0.599944D+00
  0.178700D+00  0.387462D+00
   s     1 1.00
  0.129300D+01  0.100000D+01
   s     1 1.00
  0.178700D+00  0.100000D+01
   p     5 1.00
  0.266300D+02  0.146700D-01
  0.594800D+01  0.917640D-01
  0.174200D+01  0.298683D+00
  0.555000D+00  0.498487D+00
  0.172500D+00  0.337023D+00
   p     1 1.00
  0.174200D+01  0.100000D+01
   p     1 1.00
  0.555000D+00  0.100000D+01
   d     1 1.00
  0.165400D+01  0.100000D+01
   d     1 1.00
  0.469000D+00  0.100000D+01
   f     1 1.00
  0.109300D+01  0.100000D+01
  
  2  0
   s    10 1.00
  0.823600D+04  0.531000D-03
  0.123500D+04  0.410800D-02
  0.280800D+03  0.210870D-01
  0.792700D+02  0.818530D-01
  0.255900D+02  0.234817D+00
  0.899700D+01  0.434401D+00
  0.331900D+01  0.346129D+00
  0.905900D+00  0.393780D-01
  0.364300D+00 -0.898300D-02
  0.128500D+00  0.238500D-02
   s    10 1.00
  0.823600D+04 -0.113000D-03
  0.123500D+04 -0.878000D-03
  0.280800D+03 -0.454000D-02
  0.792700D+02 -0.181330D-01
  0.255900D+02 -0.557600D-01
  0.899700D+01 -0.126895D+00
  0.331900D+01 -0.170352D+00
  0.905900D+00  0.140382D+00
  0.364300D+00  0.598684D+00
  0.128500D+00  0.395389D+00
   s     1 1.00
  0.905900D+00  0.100000D+01
   s     1 1.00
  0.364300D+00  0.100000D+01
   p     5 1.00
  0.187100D+02  0.140310D-01
  0.413300D+01  0.868660D-01
  0.120000D+01  0.290216D+00
  0.382700D+00  0.501008D+00
  0.120900D+00  0.343406D+00
   p     1 1.00
  0.382700D+00  0.100000D+01
   p     1 1.00
  0.120900D+00  0.100000D+01
   d     1 1.00
  0.109700D+01  0.100000D+01
   d     1 1.00
  0.318000D+00  0.100000D+01
   f     1 1.00
  0.761000D+00  0.100000D+01
  
  3  0
   s    10 1.00
  0.823600D+04  0.531000D-03
  0.123500D+04  0.410800D-02
  0.280800D+03  0.210870D-01
  0.792700D+02  0.818530D-01
  0.255900D+02  0.234817D+00
  0.899700D+01  0.434401D+00
  0.331900D+01  0.346129D+00
  0.905900D+00  0.393780D-01
  0.364300D+00 -0.898300D-02
  0.128500D+00  0.238500D-02
   s    10 1.00
  0.823600D+04 -0.113000D-03
  0.123500D+04 -0.878000D-03
  0.280800D+03 -0.454000D-02
  0.792700D+02 -0.181330D-01
  0.255900D+02 -0.557600D-01
  0.899700D+01 -0.126895D+00
  0.331900D+01 -0.170352D+00
  0.905900D+00  0.140382D+00
  0.364300D+00  0.598684D+00
  0.128500D+00  0.395389D+00
   s     1 1.00
  0.905900D+00  0.100000D+01
   s     1 1.00
  0.364300D+00  0.100000D+01
   p     5 1.00
  0.187100D+02  0.140310D-01
  0.413300D+01  0.868660D-01
  0.120000D+01  0.290216D+00
  0.382700D+00  0.501008D+00
  0.120900D+00  0.343406D+00
   p     1 1.00
  0.382700D+00  0.100000D+01
   p     1 1.00
  0.120900D+00  0.100000D+01
   d     1 1.00
  0.109700D+01  0.100000D+01
   d     1 1.00
  0.318000D+00  0.100000D+01
   f     1 1.00
  0.761000D+00  0.100000D+01
  
  4  0
   s    10 1.00
  0.823600D+04  0.531000D-03
  0.123500D+04  0.410800D-02
  0.280800D+03  0.210870D-01
  0.792700D+02  0.818530D-01
  0.255900D+02  0.234817D+00
  0.899700D+01  0.434401D+00
  0.331900D+01  0.346129D+00
  0.905900D+00  0.393780D-01
  0.364300D+00 -0.898300D-02
  0.128500D+00  0.238500D-02
   s    10 1.00
  0.823600D+04 -0.113000D-03
  0.123500D+04 -0.878000D-03
  0.280800D+03 -0.454000D-02
  0.792700D+02 -0.181330D-01
  0.255900D+02 -0.557600D-01
  0.899700D+01 -0.126895D+00
  0.331900D+01 -0.170352D+00
  0.905900D+00  0.140382D+00
  0.364300D+00  0.598684D+00
  0.128500D+00  0.395389D+00
   s     1 1.00
  0.905900D+00  0.100000D+01
   s     1 1.00
  0.364300D+00  0.100000D+01
   p     5 1.00
  0.187100D+02  0.140310D-01
  0.413300D+01  0.868660D-01
  0.120000D+01  0.290216D+00
  0.382700D+00  0.501008D+00
  0.120900D+00  0.343406D+00
   p     1 1.00
  0.382700D+00  0.100000D+01
   p     1 1.00
  0.120900D+00  0.100000D+01
   d     1 1.00
  0.109700D+01  0.100000D+01
   d     1 1.00
  0.318000D+00  0.100000D+01
   f     1 1.00
  0.761000D+00  0.100000D+01
  
  5  0
   s    10 1.00
  0.823600D+04  0.531000D-03
  0.123500D+04  0.410800D-02
  0.280800D+03  0.210870D-01
  0.792700D+02  0.818530D-01
  0.255900D+02  0.234817D+00
  0.899700D+01  0.434401D+00
  0.331900D+01  0.346129D+00
  0.905900D+00  0.393780D-01
  0.364300D+00 -0.898300D-02
  0.128500D+00  0.238500D-02
   s    10 1.00
  0.823600D+04 -0.113000D-03
  0.123500D+04 -0.878000D-03
  0.280800D+03 -0.454000D-02
  0.792700D+02 -0.181330D-01
  0.255900D+02 -0.557600D-01
  0.899700D+01 -0.126895D+00
  0.331900D+01 -0.170352D+00
  0.905900D+00  0.140382D+00
  0.364300D+00  0.598684D+00
  0.128500D+00  0.395389D+00
   s     1 1.00
  0.905900D+00  0.100000D+01
   s     1 1.00
  0.364300D+00  0.100000D+01
   p     5 1.00
  0.187100D+02  0.140310D-01
  0.413300D+01  0.868660D-01
  0.120000D+01  0.290216D+00
  0.382700D+00  0.501008D+00
  0.120900D+00  0.343406D+00
   p     1 1.00
  0.382700D+00  0.100000D+01
   p     1 1.00
  0.120900D+00  0.100000D+01
   d     1 1.00
  0.109700D+01  0.100000D+01
   d     1 1.00
  0.318000D+00  0.100000D+01
   f     1 1.00
  0.761000D+00  0.100000D+01
  
  6  0
   s    10 1.00
  0.823600D+04  0.531000D-03
  0.123500D+04  0.410800D-02
  0.280800D+03  0.210870D-01
  0.792700D+02  0.818530D-01
  0.255900D+02  0.234817D+00
  0.899700D+01  0.434401D+00
  0.331900D+01  0.346129D+00
  0.905900D+00  0.393780D-01
  0.364300D+00 -0.898300D-02
  0.128500D+00  0.238500D-02
   s    10 1.00
  0.823600D+04 -0.113000D-03
  0.123500D+04 -0.878000D-03
  0.280800D+03 -0.454000D-02
  0.792700D+02 -0.181330D-01
  0.255900D+02 -0.557600D-01
  0.899700D+01 -0.126895D+00
  0.331900D+01 -0.170352D+00
  0.905900D+00  0.140382D+00
  0.364300D+00  0.598684D+00
  0.128500D+00  0.395389D+00
   s     1 1.00
  0.905900D+00  0.100000D+01
   s     1 1.00
  0.364300D+00  0.100000D+01
   p     5 1.00
  0.187100D+02  0.140310D-01
  0.413300D+01  0.868660D-01
  0.120000D+01  0.290216D+00
  0.382700D+00  0.501008D+00
  0.120900D+00  0.343406D+00
   p     1 1.00
  0.382700D+00  0.100000D+01
   p     1 1.00
  0.120900D+00  0.100000D+01
   d     1 1.00
  0.109700D+01  0.100000D+01
   d     1 1.00
  0.318000D+00  0.100000D+01
   f     1 1.00
  0.761000D+00  0.100000D+01
  
  7  0
   s    10 1.00
  0.823600D+04  0.531000D-03
  0.123500D+04  0.410800D-02
  0.280800D+03  0.210870D-01
  0.792700D+02  0.818530D-01
  0.255900D+02  0.234817D+00
  0.899700D+01  0.434401D+00
  0.331900D+01  0.346129D+00
  0.905900D+00  0.393780D-01
  0.364300D+00 -0.898300D-02
  0.128500D+00  0.238500D-02
   s    10 1.00
  0.823600D+04 -0.113000D-03
  0.123500D+04 -0.878000D-03
  0.280800D+03 -0.454000D-02
  0.792700D+02 -0.181330D-01
  0.255900D+02 -0.557600D-01
  0.899700D+01 -0.126895D+00
  0.331900D+01 -0.170352D+00
  0.905900D+00  0.140382D+00
  0.364300D+00  0.598684D+00
  0.128500D+00  0.395389D+00
   s     1 1.00
  0.905900D+00  0.100000D+01
   s     1 1.00
  0.364300D+00  0.100000D+01
   p     5 1.00
  0.187100D+02  0.140310D-01
  0.413300D+01  0.868660D-01
  0.120000D+01  0.290216D+00
  0.382700D+00  0.501008D+00
  0.120900D+00  0.343406D+00
   p     1 1.00
  0.382700D+00  0.100000D+01
   p     1 1.00
  0.120900D+00  0.100000D+01
   d     1 1.00
  0.109700D+01  0.100000D+01
   d     1 1.00
  0.318000D+00  0.100000D+01
   f     1 1.00
  0.761000D+00  0.100000D+01
  
  8  0
   s     4 1.00
  0.130100D+02  0.196850D-01
  0.196200D+01  0.137977D+00
  0.444600D+00  0.478148D+00
  0.122000D+00  0.501240D+00
   s     1 1.00
  0.122000D+00  0.100000D+01
   p     1 1.00
  0.727000D+00  0.100000D+01
  
  9  0
   s     4 1.00
  0.130100D+02  0.196850D-01
  0.196200D+01  0.137977D+00
  0.444600D+00  0.478148D+00
  0.122000D+00  0.501240D+00
   s     1 1.00
  0.122000D+00  0.100000D+01
   p     1 1.00
  0.727000D+00  0.100000D+01
  
 10  0
   s     4 1.00
  0.130100D+02  0.196850D-01
  0.196200D+01  0.137977D+00
  0.444600D+00  0.478148D+00
  0.122000D+00  0.501240D+00
   s     1 1.00
  0.122000D+00  0.100000D+01
   p     1 1.00
  0.727000D+00  0.100000D+01
  
 11  0
   s     4 1.00
  0.130100D+02  0.196850D-01
  0.196200D+01  0.137977D+00
  0.444600D+00  0.478148D+00
  0.122000D+00  0.501240D+00
   s     1 1.00
  0.122000D+00  0.100000D+01
   p     1 1.00
  0.727000D+00  0.100000D+01
  
 12  0
   s     4 1.00
  0.130100D+02  0.196850D-01
  0.196200D+01  0.137977D+00
  0.444600D+00  0.478148D+00
  0.122000D+00  0.501240D+00
   s     1 1.00
  0.122000D+00  0.100000D+01
   p     1 1.00
  0.727000D+00  0.100000D+01
  
 13  0
   s     4 1.00
  0.130100D+02  0.196850D-01
  0.196200D+01  0.137977D+00
  0.444600D+00  0.478148D+00
  0.122000D+00  0.501240D+00
   s     1 1.00
  0.122000D+00  0.100000D+01
   p     1 1.00
  0.727000D+00  0.100000D+01
  
 14  0
   s     4 1.00
  0.130100D+02  0.196850D-01
  0.196200D+01  0.137977D+00
  0.444600D+00  0.478148D+00
  0.122000D+00  0.501240D+00
   s     1 1.00
  0.122000D+00  0.100000D+01
   p     1 1.00
  0.727000D+00  0.100000D+01
  
[MO]
 Sym= __1_A__
 Ene=   1.00000000000000     
 Spin= Alpha
 Occup=    1.00000000000000     
                     1  6.033290045831797E-005
                     2  0.997785730231727     
                     3  1.229530887734227E-002
                     4  2.152780195983847E-003
                     5  1.007381337315589E-003
                     6  1.386939306470324E-006
                     7 -1.610059629701421E-006
                     8  3.521987059954943E-003
                     9 -1.064618303515682E-007
                    10  1.282011627230450E-007
                    11 -2.589071473572576E-004
                    12 -1.841704745857244E-007
                    13  1.797807547450168E-007
                    14 -4.649563369104840E-004
                    15  1.790349057581146E-004
                    16  1.622169776341092E-007
                    17 -1.879818999185452E-007
                    18  1.689526811344941E-005
                    19  1.031217644569047E-004
                    20  8.371442544827666E-005
                    21 -1.121221387581391E-007
                    22  1.746941920525503E-007
                    23 -1.580995884347742E-004
                    24 -4.955317541634548E-004
                    25 -1.830224019372241E-004
                    26  1.222508078478292E-007
                    27 -1.623779267694673E-007
                    28  2.374624151444980E-006
                    29 -7.115702396045777E-005
                    30  3.878532825599130E-008
                    31 -3.575867635281573E-008
                    32 -2.317600456433209E-004
                    33  2.856543281179935E-003
                    34  1.091905078991053E-004
                    35 -5.319936857530106E-004
                    36 -2.692340169742172E-006
                    37  3.133201962657622E-006
                    38 -6.875358280454592E-003
                    39 -1.492520096142815E-008
                    40 -2.796295957149068E-008
                    41 -6.586026282278805E-005
                    42  1.514951157966278E-006
                    43 -1.716509385520624E-006
                    44  3.900147467924420E-003
                    45  3.808555379665063E-004
                    46  2.115474410029085E-007
                    47 -3.330916806984941E-007
                    48  1.075159753032270E-004
                    49 -1.039303931786790E-005
                    50  5.697149794863945E-004
                    51  4.432582957283227E-007
                    52 -6.347615239179466E-007
                    53 -1.641354251500622E-005
                    54  1.132296168866016E-004
                    55 -6.581974083954171E-005
                    56  1.763440376433462E-008
                    57 -9.768208711489910E-008
                    58  4.919626555406288E-005
                    59 -2.221321998215901E-005
                    60 -1.133960612920939E-008
                    61 -4.184239220905095E-008
                    62 -1.925131309723056E-004
                    63 -1.724302359287749E-003
                    64  6.853164139661622E-006
                    65  7.775258609493787E-004
                    66 -6.466705087181675E-006
                    67 -8.955007440213489E-004
                    68  1.206046573289542E-003
                    69  5.274974025618960E-005
                    70  8.412555895869951E-005
                    71  2.280635617266541E-004
                    72  4.551365520892255E-005
                    73 -6.032462534900065E-004
                    74 -2.796184688347017E-004
                    75  9.282844030879044E-005
                    76  2.626939104377803E-006
                    77 -1.256106500729856E-005
                    78  3.562953145457454E-005
                    79  6.810777055613128E-007
                    80  4.116084989703049E-005
                    81 -2.233648386967417E-005
                    82  3.163229557719531E-005
                    83  1.018634355147722E-005
                    84  3.273977588218140E-005
                    85 -7.780660320063062E-005
                    86  6.831040999003830E-006
                    87 -8.328753767360558E-006
                    88  2.120507269294970E-005
                    89 -5.726708708758312E-006
                    90  2.186078499386116E-006
                    91  2.216557447480486E-005
                    92 -1.924745313720765E-004
                    93 -1.724147953238713E-003
                    94  7.027126633481982E-006
                    95  7.769750042096105E-004
                    96  7.406723735142058E-006
                    97  8.944289115084933E-004
                    98  1.206967857799335E-003
                    99 -5.254937348683472E-005
                   100 -8.448456875537748E-005
                   101  2.273765229282554E-004
                   102 -4.569073352473836E-005
                   103  6.028903475070084E-004
                   104 -2.788544722986764E-004
                   105  9.281786196537809E-005
                   106 -2.527643793773016E-006
                   107  1.240067640508726E-005
                   108  3.564059465374818E-005
                   109  6.924989904442849E-007
                   110  4.061206652575382E-005
                   111  2.243397543047959E-005
                   112 -3.184784758687436E-005
                   113  1.008126639804532E-005
                   114  3.269076105671427E-005
                   115 -7.776522456812950E-005
                   116 -6.712975777016631E-006
                   117  8.135945505137076E-006
                   118  2.117697182003196E-005
                   119 -5.689202331561310E-006
                   120 -2.200531510284208E-006
                   121 -2.219343485691102E-005
                   122 -1.539772791807800E-004
                   123  3.033568103552314E-005
                   124  8.508908866200311E-005
                   125  2.293812839108808E-004
                   126 -7.149176248688774E-005
                   127  5.205812336525988E-005
                   128 -8.631172425992021E-004
                   129 -3.051760142353931E-006
                   130  1.891321848056241E-005
                   131  2.377447678620172E-004
                   132  1.684641827665710E-005
                   133 -5.038780130087026E-005
                   134  5.836804877792139E-004
                   135 -3.641604876183469E-006
                   136  2.084823564525375E-006
                   137  5.496009006811945E-006
                   138 -1.045711534019395E-006
                   139  1.724798713841218E-006
                   140 -1.399875922581146E-004
                   141 -1.417199189055540E-005
                   142  1.097847898562621E-004
                   143  3.105417468912246E-005
                   144 -6.915373617330649E-006
                   145 -2.696367934479212E-005
                   146 -5.713082604562370E-007
                   147 -4.776088076416092E-006
                   148 -8.209875361831935E-006
                   149 -1.529158507470975E-006
                   150 -9.590599711542140E-007
                   151 -2.502668002808958E-006
                   152 -1.544844988836174E-004
                   153  2.853642147018448E-005
                   154  8.456114575158282E-005
                   155  2.326557199097413E-004
                   156  7.080502293336279E-005
                   157 -5.121075869776412E-005
                   158 -8.631889885820711E-004
                   159  3.294203311620834E-006
                   160 -1.954874888919560E-005
                   161  2.373771096433151E-004
                   162 -1.644111373576817E-005
                   163  5.042650097871090E-005
                   164  5.839286775095469E-004
                   165 -3.590509958676254E-006
                   166 -2.090107980732942E-006
                   167 -5.500822991389005E-006
                   168 -1.109141068896522E-006
                   169  1.712759291009288E-006
                   170 -1.400502134878654E-004
                   171  1.395971169815502E-005
                   172 -1.098707310402229E-004
                   173  3.090587560141376E-005
                   174 -7.017314169106866E-006
                   175 -2.687856162929463E-005
                   176  6.354606831775934E-007
                   177  4.736241090401044E-006
                   178 -8.255709450704806E-006
                   179 -1.534411635237789E-006
                   180  9.699433910027329E-007
                   181  2.521547427027444E-006
                   182 -1.298982301472548E-004
                   183 -3.535377932447066E-004
                   184  2.492883066148410E-005
                   185  2.308823678068837E-004
                   186 -2.725900482786875E-008
                   187  1.170527587594949E-007
                   188 -4.345425190780164E-005
                   189  4.563313595482680E-008
                   190 -5.038707762871055E-007
                   191  1.049673557287209E-005
                   192 -3.681433378636140E-009
                   193 -3.998912323116353E-008
                   194 -2.645149495307743E-005
                   195  2.109515660003194E-005
                   196  9.781137495407527E-009
                   197  6.306082883143085E-009
                   198  7.867456044391699E-006
                   199  2.152333901222211E-006
                   200  3.461970837387874E-005
                   201 -3.001427414361780E-009
                   202  2.044376647004051E-007
                   203  2.472499421135426E-005
                   204 -1.507351320455963E-006
                   205 -1.141384768295361E-005
                   206  1.122035793804685E-008
                   207 -2.376798605100466E-008
                   208  3.014957169566308E-006
                   209  1.855451105751446E-006
                   210  3.996608011556383E-009
                   211  2.966596183319121E-008
                   212  5.661991669753214E-003
                   213 -3.143778233563692E-003
                   214  5.063349476990914E-004
                   215  3.403842847631738E-004
                   216  4.218329385611215E-004
                   217  5.661957759354208E-003
                   218 -3.143765152042772E-003
                   219 -5.060016457225980E-004
                   220 -3.407670470323943E-004
                   221  4.219184189723726E-004
                   222 -6.909331042237833E-004
                   223 -1.791659374831259E-004
                   224  4.358406366564878E-006
                   225 -3.691227728112598E-005
                   226 -4.439522360305095E-005
                   227 -6.910031419150041E-004
                   228 -1.787675626793247E-004
                   229 -4.392765902479549E-006
                   230  3.693281070674137E-005
                   231 -4.438667318899976E-005
                   232 -2.709577031131077E-004
                   233 -2.605385691728287E-004
                   234 -2.966357985428150E-006
                   235 -1.316497853750118E-005
                   236  4.663896995363552E-009
                   237 -2.710033683817247E-004
                   238 -2.607021696793953E-004
                   239  2.961425142431277E-006
                   240  1.321421619910054E-005
                   241  6.700999515974518E-008
                   242  1.031177164245124E-004
                   243 -4.477154273106607E-005
                   244  6.414541414690097E-009
                   245 -3.087376771513910E-008
                   246  1.423659047220932E-005
 Sym= __2_A__
 Ene=   2.00000000000000     
 Spin= Alpha
 Occup=    1.00000000000000     
                     1 -1.862070188666425E-005
                     2 -9.072084288747344E-005
                     3  1.975178948033589E-003
                     4  4.649078862637250E-005
                     5  1.161398708005097E-003
                     6  8.543656972920368E-007
                     7 -9.968693140024348E-007
                     8  2.206326753296326E-003
                     9 -3.564344494364175E-008
                    10  4.298816441687083E-008
                    11 -9.974166860851659E-005
                    12 -3.426921283007722E-008
                    13  4.845300017472576E-008
                    14 -9.702247112224540E-005
                    15  5.420024327198353E-005
                    16  1.772604279344927E-008
                    17 -4.071755678326318E-008
                    18  1.855651167623249E-005
                    19 -2.494571035897275E-005
                    20 -1.229393865973652E-004
                    21 -1.781083232448052E-009
                    22  8.598880507411615E-008
                    23 -7.180945693287191E-005
                    24  1.130518251298820E-004
                    25  1.949655775857450E-004
                    26 -1.770055827215805E-007
                    27  2.650084809399060E-007
                    28 -4.590846909764176E-005
                    29 -2.760716022983293E-005
                    30  3.727041387414116E-008
                    31  1.269318749294576E-008
                    32   1.00102321737198     
                    33  8.959671939514543E-003
                    34  2.625107659181358E-003
                    35 -7.943265272060797E-003
                    36 -1.287100858027820E-006
                    37  1.484299681525556E-006
                    38 -3.291467597738464E-003
                    39  4.960170104353969E-007
                    40 -5.704004617426656E-007
                    41  1.271802469083290E-003
                    42  1.476826482470809E-006
                    43 -1.772347926691557E-006
                    44  3.760255888902369E-003
                    45  3.065252116927766E-004
                    46  3.658207423753044E-007
                    47 -6.300532975772717E-008
                    48 -4.012470889314550E-004
                    49  3.378289462035368E-006
                    50  4.036764646567612E-004
                    51 -4.633332729472010E-008
                    52 -6.982564348380883E-007
                    53  8.536317710780425E-004
                    54  2.811152669717647E-005
                    55  3.082034320714710E-004
                    56 -1.793236549462416E-007
                    57  4.691793971627085E-007
                    58 -1.818171921326178E-004
                    59  5.589354337996533E-006
                    60  8.412663019860674E-008
                    61  1.053121194733097E-007
                    62  1.166943138488249E-002
                    63 -1.843343816375880E-003
                    64 -2.780419419706254E-004
                    65  2.954955152870462E-003
                    66 -4.083006604723422E-006
                    67  2.226452306668489E-004
                    68 -1.025439311343951E-004
                    69 -3.108094290489566E-005
                    70  5.045779872882097E-004
                    71  7.506270033385300E-005
                    72  1.059551439484208E-004
                    73 -1.880864925091661E-003
                    74  1.219015859695833E-004
                    75 -2.325210774335936E-005
                    76  1.975272242371569E-006
                    77  2.127291515484695E-005
                    78  2.576424192868890E-005
                    79  2.426946107108236E-006
                    80  7.964783273120652E-004
                    81  3.952310954276611E-005
                    82 -4.535981579854424E-004
                    83 -1.048559212645471E-005
                    84 -1.665845933486003E-005
                    85  5.305603620567130E-005
                    86 -6.367328770575615E-008
                    87  3.226076635565465E-005
                    88 -1.099264243672029E-004
                    89 -3.070923711479582E-006
                    90  6.226051764364817E-006
                    91  5.247220081211301E-005
                    92  1.166940169708634E-002
                    93 -1.843424590589815E-003
                    94 -2.780896797992575E-004
                    95  2.955159011741206E-003
                    96  4.003306537793499E-006
                    97 -2.225541617404479E-004
                    98 -1.027762097257131E-004
                    99  3.113511758245714E-005
                   100 -5.046368857191377E-004
                   101  7.473178412967219E-005
                   102 -1.058702699567894E-004
                   103  1.880901354657104E-003
                   104  1.235309781548598E-004
                   105 -2.326853386602390E-005
                   106 -2.025126195190334E-006
                   107 -2.126801015079807E-005
                   108  2.574199742353914E-005
                   109  2.412382548892253E-006
                   110  7.973237307760794E-004
                   111 -3.845605802682035E-005
                   112  4.524195156718244E-004
                   113 -1.008310192128119E-005
                   114 -1.626780125226628E-005
                   115  5.311114325589409E-005
                   116  9.258881634825145E-008
                   117 -3.198025270114786E-005
                   118 -1.100341098573010E-004
                   119 -3.067084655447373E-006
                   120 -6.116978966752261E-006
                   121 -5.235232250096771E-005
                   122 -1.557182096516111E-004
                   123 -7.505285332631988E-004
                   124  2.296754902949108E-004
                   125 -1.936764522895357E-004
                   126 -1.101019584568134E-005
                   127 -4.097371209715412E-005
                   128 -2.010198490444181E-004
                   129  2.368260080927153E-005
                   130  4.073750102148155E-005
                   131  5.654286431965149E-004
                   132 -1.388630955901613E-005
                   133  3.156240493270732E-004
                   134  6.483455998923360E-004
                   135 -2.248831409844077E-005
                   136 -4.219276671110746E-006
                   137  4.875839528167327E-005
                   138  1.573299816204150E-005
                   139  4.792611713465833E-006
                   140 -3.076082720166940E-004
                   141 -5.529734363145042E-006
                   142 -2.607194263861028E-004
                   143 -2.956618839731182E-005
                   144 -2.515304671674621E-005
                   145 -6.503315403530182E-006
                   146  6.033517729782061E-006
                   147 -2.592456852393382E-005
                   148 -2.887228253262328E-005
                   149 -5.040570638286817E-006
                   150  3.135449782907171E-007
                   151 -7.552936682007530E-006
                   152 -1.554255018567319E-004
                   153 -7.495587243268410E-004
                   154  2.297644319350266E-004
                   155 -1.947864888801222E-004
                   156  1.085496684907670E-005
                   157  4.114235209601332E-005
                   158 -2.009954857298714E-004
                   159 -2.325095484039895E-005
                   160 -4.117752066514495E-005