[Molden Format]
[Atoms] AU
  N     1    7    -4.5082829200   -0.1342819900   -0.4228200100        
  C     2    6    -1.7496705200   -0.0824342700   -0.1838819400        
  C     3    6    -0.3491890900    0.2202010900   -2.3813599000        
  C     4    6    -0.4819141000   -0.3194027500    2.1144844200        
  C     5    6     2.2679837200    0.2851297300   -2.2867536700        
  C     6    6     2.1285900100   -0.2535069600    2.1993448600        
  C     7    6     3.5096699900    0.0491470500   -0.0030301700        
  H     8    1    -5.1840567300   -2.1697885400    0.7751543100        
  H     9    1    -5.1331481600    1.1861733600    0.8837931500        
  H    10    1    -1.3260875200    0.4019365300   -4.1451509600        
  H    11    1    -1.5448115400   -0.5543420500    3.8263524900        
  H    12    1     3.3318141500    0.5199799700   -3.9976458500        
  H    13    1     3.0845146800   -0.4378414600    3.9798216900        
  H    14    1     5.5368142800    0.0998677000    0.0666404700        
[5D]
[7F]
[GTO]
  1  0
   s    12 1.00
  0.114200D+05  0.172695D-04
  0.171200D+04  0.134411D-03
  0.389300D+03  0.694561D-03
  0.110000D+03  0.278531D-02
  0.355700D+02  0.863457D-02
  0.125400D+02  0.199805D-01
  0.464400D+01  0.262908D-01
  0.129300D+01 -0.243845D-01
  0.511800D+00 -0.924934D-01
  0.178700D+00 -0.339683D+00
  0.246240D-01  0.345111D+00
  0.112530D-01  0.752750D+00
   s    10 1.00
  0.114200D+05  0.523000D-03
  0.171200D+04  0.404500D-02
  0.389300D+03  0.207750D-01
  0.110000D+03  0.807269D-01
  0.355700D+02  0.233074D+00
  0.125400D+02  0.433501D+00
  0.464400D+01  0.347472D+00
  0.129300D+01  0.412620D-01
  0.511800D+00 -0.850799D-02
  0.178700D+00  0.238400D-02
   s    10 1.00
  0.114200D+05 -0.115000D-03
  0.171200D+04 -0.895000D-03
  0.389300D+03 -0.462400D-02
  0.110000D+03 -0.185280D-01
  0.355700D+02 -0.573390D-01
  0.125400D+02 -0.132076D+00
  0.464400D+01 -0.172510D+00
  0.129300D+01  0.151814D+00
  0.511800D+00  0.599944D+00
  0.178700D+00  0.387462D+00
   s     1 1.00
  0.129300D+01  0.100000D+01
   s     1 1.00
  0.178700D+00  0.100000D+01
   p     5 1.00
  0.266300D+02  0.146700D-01
  0.594800D+01  0.917640D-01
  0.174200D+01  0.298683D+00
  0.555000D+00  0.498487D+00
  0.172500D+00  0.337023D+00
   p     1 1.00
  0.174200D+01  0.100000D+01
   p     1 1.00
  0.555000D+00  0.100000D+01
   d     1 1.00
  0.165400D+01  0.100000D+01
   d     1 1.00
  0.469000D+00  0.100000D+01
   f     1 1.00
  0.109300D+01  0.100000D+01
  
  2  0
   s    10 1.00
  0.823600D+04  0.531000D-03
  0.123500D+04  0.410800D-02
  0.280800D+03  0.210870D-01
  0.792700D+02  0.818530D-01
  0.255900D+02  0.234817D+00
  0.899700D+01  0.434401D+00
  0.331900D+01  0.346129D+00
  0.905900D+00  0.393780D-01
  0.364300D+00 -0.898300D-02
  0.128500D+00  0.238500D-02
   s    10 1.00
  0.823600D+04 -0.113000D-03
  0.123500D+04 -0.878000D-03
  0.280800D+03 -0.454000D-02
  0.792700D+02 -0.181330D-01
  0.255900D+02 -0.557600D-01
  0.899700D+01 -0.126895D+00
  0.331900D+01 -0.170352D+00
  0.905900D+00  0.140382D+00
  0.364300D+00  0.598684D+00
  0.128500D+00  0.395389D+00
   s     1 1.00
  0.905900D+00  0.100000D+01
   s     1 1.00
  0.364300D+00  0.100000D+01
   p     5 1.00
  0.187100D+02  0.140310D-01
  0.413300D+01  0.868660D-01
  0.120000D+01  0.290216D+00
  0.382700D+00  0.501008D+00
  0.120900D+00  0.343406D+00
   p     1 1.00
  0.382700D+00  0.100000D+01
   p     1 1.00
  0.120900D+00  0.100000D+01
   d     1 1.00
  0.109700D+01  0.100000D+01
   d     1 1.00
  0.318000D+00  0.100000D+01
   f     1 1.00
  0.761000D+00  0.100000D+01
  
  3  0
   s    10 1.00
  0.823600D+04  0.531000D-03
  0.123500D+04  0.410800D-02
  0.280800D+03  0.210870D-01
  0.792700D+02  0.818530D-01
  0.255900D+02  0.234817D+00
  0.899700D+01  0.434401D+00
  0.331900D+01  0.346129D+00
  0.905900D+00  0.393780D-01
  0.364300D+00 -0.898300D-02
  0.128500D+00  0.238500D-02
   s    10 1.00
  0.823600D+04 -0.113000D-03
  0.123500D+04 -0.878000D-03
  0.280800D+03 -0.454000D-02
  0.792700D+02 -0.181330D-01
  0.255900D+02 -0.557600D-01
  0.899700D+01 -0.126895D+00
  0.331900D+01 -0.170352D+00
  0.905900D+00  0.140382D+00
  0.364300D+00  0.598684D+00
  0.128500D+00  0.395389D+00
   s     1 1.00
  0.905900D+00  0.100000D+01
   s     1 1.00
  0.364300D+00  0.100000D+01
   p     5 1.00
  0.187100D+02  0.140310D-01
  0.413300D+01  0.868660D-01
  0.120000D+01  0.290216D+00
  0.382700D+00  0.501008D+00
  0.120900D+00  0.343406D+00
   p     1 1.00
  0.382700D+00  0.100000D+01
   p     1 1.00
  0.120900D+00  0.100000D+01
   d     1 1.00
  0.109700D+01  0.100000D+01
   d     1 1.00
  0.318000D+00  0.100000D+01
   f     1 1.00
  0.761000D+00  0.100000D+01
  
  4  0
   s    10 1.00
  0.823600D+04  0.531000D-03
  0.123500D+04  0.410800D-02
  0.280800D+03  0.210870D-01
  0.792700D+02  0.818530D-01
  0.255900D+02  0.234817D+00
  0.899700D+01  0.434401D+00
  0.331900D+01  0.346129D+00
  0.905900D+00  0.393780D-01
  0.364300D+00 -0.898300D-02
  0.128500D+00  0.238500D-02
   s    10 1.00
  0.823600D+04 -0.113000D-03
  0.123500D+04 -0.878000D-03
  0.280800D+03 -0.454000D-02
  0.792700D+02 -0.181330D-01
  0.255900D+02 -0.557600D-01
  0.899700D+01 -0.126895D+00
  0.331900D+01 -0.170352D+00
  0.905900D+00  0.140382D+00
  0.364300D+00  0.598684D+00
  0.128500D+00  0.395389D+00
   s     1 1.00
  0.905900D+00  0.100000D+01
   s     1 1.00
  0.364300D+00  0.100000D+01
   p     5 1.00
  0.187100D+02  0.140310D-01
  0.413300D+01  0.868660D-01
  0.120000D+01  0.290216D+00
  0.382700D+00  0.501008D+00
  0.120900D+00  0.343406D+00
   p     1 1.00
  0.382700D+00  0.100000D+01
   p     1 1.00
  0.120900D+00  0.100000D+01
   d     1 1.00
  0.109700D+01  0.100000D+01
   d     1 1.00
  0.318000D+00  0.100000D+01
   f     1 1.00
  0.761000D+00  0.100000D+01
  
  5  0
   s    10 1.00
  0.823600D+04  0.531000D-03
  0.123500D+04  0.410800D-02
  0.280800D+03  0.210870D-01
  0.792700D+02  0.818530D-01
  0.255900D+02  0.234817D+00
  0.899700D+01  0.434401D+00
  0.331900D+01  0.346129D+00
  0.905900D+00  0.393780D-01
  0.364300D+00 -0.898300D-02
  0.128500D+00  0.238500D-02
   s    10 1.00
  0.823600D+04 -0.113000D-03
  0.123500D+04 -0.878000D-03
  0.280800D+03 -0.454000D-02
  0.792700D+02 -0.181330D-01
  0.255900D+02 -0.557600D-01
  0.899700D+01 -0.126895D+00
  0.331900D+01 -0.170352D+00
  0.905900D+00  0.140382D+00
  0.364300D+00  0.598684D+00
  0.128500D+00  0.395389D+00
   s     1 1.00
  0.905900D+00  0.100000D+01
   s     1 1.00
  0.364300D+00  0.100000D+01
   p     5 1.00
  0.187100D+02  0.140310D-01
  0.413300D+01  0.868660D-01
  0.120000D+01  0.290216D+00
  0.382700D+00  0.501008D+00
  0.120900D+00  0.343406D+00
   p     1 1.00
  0.382700D+00  0.100000D+01
   p     1 1.00
  0.120900D+00  0.100000D+01
   d     1 1.00
  0.109700D+01  0.100000D+01
   d     1 1.00
  0.318000D+00  0.100000D+01
   f     1 1.00
  0.761000D+00  0.100000D+01
  
  6  0
   s    10 1.00
  0.823600D+04  0.531000D-03
  0.123500D+04  0.410800D-02
  0.280800D+03  0.210870D-01
  0.792700D+02  0.818530D-01
  0.255900D+02  0.234817D+00
  0.899700D+01  0.434401D+00
  0.331900D+01  0.346129D+00
  0.905900D+00  0.393780D-01
  0.364300D+00 -0.898300D-02
  0.128500D+00  0.238500D-02
   s    10 1.00
  0.823600D+04 -0.113000D-03
  0.123500D+04 -0.878000D-03
  0.280800D+03 -0.454000D-02
  0.792700D+02 -0.181330D-01
  0.255900D+02 -0.557600D-01
  0.899700D+01 -0.126895D+00
  0.331900D+01 -0.170352D+00
  0.905900D+00  0.140382D+00
  0.364300D+00  0.598684D+00
  0.128500D+00  0.395389D+00
   s     1 1.00
  0.905900D+00  0.100000D+01
   s     1 1.00
  0.364300D+00  0.100000D+01
   p     5 1.00
  0.187100D+02  0.140310D-01
  0.413300D+01  0.868660D-01
  0.120000D+01  0.290216D+00
  0.382700D+00  0.501008D+00
  0.120900D+00  0.343406D+00
   p     1 1.00
  0.382700D+00  0.100000D+01
   p     1 1.00
  0.120900D+00  0.100000D+01
   d     1 1.00
  0.109700D+01  0.100000D+01
   d     1 1.00
  0.318000D+00  0.100000D+01
   f     1 1.00
  0.761000D+00  0.100000D+01
  
  7  0
   s    10 1.00
  0.823600D+04  0.531000D-03
  0.123500D+04  0.410800D-02
  0.280800D+03  0.210870D-01
  0.792700D+02  0.818530D-01
  0.255900D+02  0.234817D+00
  0.899700D+01  0.434401D+00
  0.331900D+01  0.346129D+00
  0.905900D+00  0.393780D-01
  0.364300D+00 -0.898300D-02
  0.128500D+00  0.238500D-02
   s    10 1.00
  0.823600D+04 -0.113000D-03
  0.123500D+04 -0.878000D-03
  0.280800D+03 -0.454000D-02
  0.792700D+02 -0.181330D-01
  0.255900D+02 -0.557600D-01
  0.899700D+01 -0.126895D+00
  0.331900D+01 -0.170352D+00
  0.905900D+00  0.140382D+00
  0.364300D+00  0.598684D+00
  0.128500D+00  0.395389D+00
   s     1 1.00
  0.905900D+00  0.100000D+01
   s     1 1.00
  0.364300D+00  0.100000D+01
   p     5 1.00
  0.187100D+02  0.140310D-01
  0.413300D+01  0.868660D-01
  0.120000D+01  0.290216D+00
  0.382700D+00  0.501008D+00
  0.120900D+00  0.343406D+00
   p     1 1.00
  0.382700D+00  0.100000D+01
   p     1 1.00
  0.120900D+00  0.100000D+01
   d     1 1.00
  0.109700D+01  0.100000D+01
   d     1 1.00
  0.318000D+00  0.100000D+01
   f     1 1.00
  0.761000D+00  0.100000D+01
  
  8  0
   s     4 1.00
  0.130100D+02  0.196850D-01
  0.196200D+01  0.137977D+00
  0.444600D+00  0.478148D+00
  0.122000D+00  0.501240D+00
   s     1 1.00
  0.122000D+00  0.100000D+01
   p     1 1.00
  0.727000D+00  0.100000D+01
  
  9  0
   s     4 1.00
  0.130100D+02  0.196850D-01
  0.196200D+01  0.137977D+00
  0.444600D+00  0.478148D+00
  0.122000D+00  0.501240D+00
   s     1 1.00
  0.122000D+00  0.100000D+01
   p     1 1.00
  0.727000D+00  0.100000D+01
  
 10  0
   s     4 1.00
  0.130100D+02  0.196850D-01
  0.196200D+01  0.137977D+00
  0.444600D+00  0.478148D+00
  0.122000D+00  0.501240D+00
   s     1 1.00
  0.122000D+00  0.100000D+01
   p     1 1.00
  0.727000D+00  0.100000D+01
  
 11  0
   s     4 1.00
  0.130100D+02  0.196850D-01
  0.196200D+01  0.137977D+00
  0.444600D+00  0.478148D+00
  0.122000D+00  0.501240D+00
   s     1 1.00
  0.122000D+00  0.100000D+01
   p     1 1.00
  0.727000D+00  0.100000D+01
  
 12  0
   s     4 1.00
  0.130100D+02  0.196850D-01
  0.196200D+01  0.137977D+00
  0.444600D+00  0.478148D+00
  0.122000D+00  0.501240D+00
   s     1 1.00
  0.122000D+00  0.100000D+01
   p     1 1.00
  0.727000D+00  0.100000D+01
  
 13  0
   s     4 1.00
  0.130100D+02  0.196850D-01
  0.196200D+01  0.137977D+00
  0.444600D+00  0.478148D+00
  0.122000D+00  0.501240D+00
   s     1 1.00
  0.122000D+00  0.100000D+01
   p     1 1.00
  0.727000D+00  0.100000D+01
  
 14  0
   s     4 1.00
  0.130100D+02  0.196850D-01
  0.196200D+01  0.137977D+00
  0.444600D+00  0.478148D+00
  0.122000D+00  0.501240D+00
   s     1 1.00
  0.122000D+00  0.100000D+01
   p     1 1.00
  0.727000D+00  0.100000D+01
  
[MO]
 Sym= __1_A__
 Ene=   1.00000000000000     
 Spin= Alpha
 Occup=    1.00000000000000     
                     1 -4.486558686169736E-004
                     2  0.998046875728849     
                     3 -3.087956197275992E-002
                     4  1.696714952224705E-003
                     5  5.295363370698030E-003
                     6  1.267173623338684E-002
                     7 -2.233796171153542E-003
                     8  2.260709242873515E-002
                     9 -1.387102073008172E-003
                    10  2.353884424197557E-005
                    11 -1.791490116041093E-003
                    12 -3.740049521459517E-003
                    13  3.500541819571529E-004
                    14 -5.547293222311489E-003
                    15  1.360026222855817E-004
                    16  5.391420663316241E-005
                    17 -7.550897595964095E-006
                    18  6.535416835996122E-005
                    19  9.672508085930494E-006
                    20  5.425565899521880E-004
                    21  7.339937136249146E-004
                    22  2.004705799743949E-006
                    23  1.492664738716414E-004
                    24 -8.339501112220810E-005
                    25  3.181360810654643E-005
                    26 -5.384159625310030E-005
                    27  2.686789011508337E-005
                    28  3.855586444192242E-005
                    29  1.842527349703497E-005
                    30  2.361791302488004E-005
                    31 -8.484922105839439E-006
                    32 -3.870392613497938E-004
                    33  7.558865409483165E-004
                    34  2.461284873230014E-004
                    35  9.712376338938874E-005
                    36  9.474630072160593E-004
                    37  8.992154832793354E-005
                    38 -1.381565565739925E-003
                    39 -6.103620305277907E-004
                    40 -9.784380236509726E-005
                    41  5.097385949720031E-004
                    42  3.480331890234278E-003
                    43  3.536351946447570E-004
                    44 -1.426487351387002E-003
                    45  4.236654402637575E-005
                    46 -3.000817639388476E-004
                    47 -1.866255365682305E-005
                    48 -4.474689731439634E-005
                    49  4.015129146488395E-005
                    50  2.364646842595223E-005
                    51  5.334452145151635E-005
                    52  1.810256292857582E-005
                    53 -1.779823602109969E-005
                    54 -4.749665103735563E-005
                    55  1.007208810718749E-004
                    56 -5.092791032830742E-007
                    57  8.780655947555420E-006
                    58  1.054577790293612E-004
                    59  7.679674993214718E-006
                    60 -4.998080783709402E-005
                    61 -7.161935374153255E-006
                    62 -8.281715365843742E-004
                    63  1.549174128044112E-004
                    64 -1.532835892151336E-004
                    65  2.991053330816793E-003
                    66 -3.680359481447234E-003
                    67 -2.476607032623085E-004
                    68  1.020931951370851E-003
                    69  6.984094318259214E-004
                    70 -2.058843510003335E-005
                    71  5.698512074924284E-004
                    72  1.282122955422390E-003
                    73  2.847282121833335E-004
                    74 -2.401224243508269E-003
                    75  1.131410637175087E-004
                    76 -8.569444126979764E-005
                    77 -2.815614513054512E-005
                    78  2.333856923342536E-005
                    79  1.114843126483409E-005
                    80  1.541135306742303E-004
                    81 -2.812206446996031E-004
                    82 -3.565447671686717E-005
                    83  6.636721732238592E-007
                    84  3.860890169445194E-005
                    85 -2.596844382742484E-005
                    86 -1.698672582717215E-004
                    87 -1.060404232917666E-005
                    88  5.041206490326880E-006
                    89  1.936579087272557E-005
                    90 -7.115838499923791E-005
                    91  5.284191876382842E-006
                    92  1.999288058024937E-005
                    93 -7.812993109175302E-004
                    94  2.863850575997004E-004
                    95 -1.072221718129182E-003
                    96 -2.510800086369475E-004
                    97 -2.595741815243544E-004
                    98  1.096572868423580E-003
                    99  4.553923913211298E-005
                   100 -2.888235236154808E-005
                   101  1.998066140689797E-004
                   102 -1.472165058496728E-003
                   103 -4.060126001095061E-005
                   104 -2.846921175614135E-004
                   105 -4.049853941281376E-005
                   106 -1.639255405917032E-005
                   107  4.196741396572684E-006
                   108  3.981325871029656E-005
                   109  4.029754873468652E-006
                   110 -1.227198836599214E-005
                   111  2.925859424907429E-004
                   112  3.722252652690277E-005
                   113 -1.267765128243173E-004
                   114 -3.300090849100434E-005
                   115 -3.152630454073566E-005
                   116  1.837915937330514E-005
                   117 -7.609188894370846E-006
                   118 -1.489087618348565E-005
                   119 -5.525492973210177E-006
                   120  1.126098981972333E-005
                   121 -1.325115006049229E-006
                   122 -2.985784168213740E-004
                   123 -1.987921655144616E-003
                   124  1.602136757418763E-004
                   125  6.084450819482657E-004
                   126  1.789915698742473E-003
                   127  1.127376855748855E-004
                   128 -1.859294636435585E-004
                   129  4.471355507847863E-004
                   130 -3.339183876770515E-005
                   131  3.435394632066708E-004
                   132  1.061387929528745E-003
                   133 -3.701431952474063E-005
                   134  8.369883108188341E-004
                   135  7.291341563163143E-005
                   136 -2.669432093331705E-005
                   137 -7.856822442782486E-006
                   138 -6.613664554393590E-005
                   139  1.779709949099155E-007
                   140  2.267026036073275E-004
                   141  1.149974019848062E-004
                   142 -5.852414636218329E-006
                   143 -3.359423732271756E-004
                   144 -3.493723451739837E-005
                   145 -1.061568826138567E-005
                   146 -4.192157115425923E-005
                   147 -7.020238949311192E-006
                   148  1.433220417928366E-005
                   149 -4.578091696083836E-006
                   150 -8.914681910018757E-005
                   151  4.956430414762358E-006
                   152 -1.317661967931938E-004
                   153 -3.083787549724658E-004
                   154 -6.688117034408141E-005
                   155  7.399312906825688E-004
                   156  4.243769106791438E-004
                   157 -6.747530690678414E-005
                   158  9.172060865862472E-005
                   159 -3.386172486430095E-004
                   160 -1.054747073648627E-005
                   161 -6.197225386818262E-006
                   162 -2.400718159096500E-004
                   163 -1.046882945851911E-004
                   164  9.657104984961131E-004
                   165 -1.744833267220078E-006
                   166 -1.362416135137496E-005
                   167 -1.728895355300799E-006
                   168  1.760466260578510E-005
                   169  4.537863467475013E-006
                   170 -5.873751221229923E-005
                   171  4.965312309000447E-005
                   172  2.222286859749030E-005
                   173 -7.787428760868077E-005
                   174 -5.234255462740584E-006
                   175 -1.772694965014181E-006
                   176 -1.500849320445123E-005
                   177 -3.058703850556087E-007
                   178 -3.345967433324996E-006
                   179  2.391540761001278E-006
                   180 -2.314815744002806E-006
                   181 -5.273110112965257E-007
                   182 -1.237965243420969E-004
                   183 -1.836022991248180E-004
                   184  2.824504422184656E-005
                   185  2.405797754314392E-004
                   186 -2.462038030638719E-004
                   187 -7.994516015832168E-007
                   188 -8.759038310705413E-005
                   189  1.442939441567339E-004
                   190 -3.798911768512134E-005
                   191  3.795008861537506E-004
                   192 -4.896120487092700E-004
                   193 -1.387770397596971E-004
                   194  9.301764875364975E-004
                   195  2.841854315129231E-005
                   196 -1.144929393861277E-005
                   197 -6.418225922344086E-006
                   198 -1.540370839654539E-005
                   199  4.823157098185565E-007
                   200 -3.955086812772988E-005
                   201 -2.315674853838893E-004
                   202 -2.782172597895456E-006
                   203  1.454946180848158E-006
                   204  2.951848056793242E-005
                   205 -3.103790627530917E-007
                   206  5.525870676791184E-006
                   207 -2.189491727535687E-006
                   208  1.282262320567929E-005
                   209 -2.243174700557166E-007
                   210 -5.641970812249115E-006
                   211 -1.780727744371649E-006
                   212 -6.893835487850722E-004
                   213  1.246400166171003E-003
                   214  1.412867950829178E-004
                   215 -2.023690763155047E-005
                   216  1.340734665771561E-004
                   217 -3.519298094960005E-003
                   218  2.125823957582164E-003
                   219  8.900759940418174E-005
                   220  1.449488211956322E-004
                   221  3.766125255037980E-004
                   222  1.501537235393182E-003
                   223 -1.853082630480680E-003
                   224 -2.203440134373550E-005
                   225 -1.431961143558193E-005
                   226  1.375903860411210E-004
                   227  6.594498370152121E-004
                   228 -1.244643683977420E-004
                   229 -2.872066464381479E-005
                   230  1.050956409070213E-005
                   231 -1.108951577764331E-004
                   232  8.650491890592796E-004
                   233 -7.347642732376083E-005
                   234 -1.356613820562959E-007
                   235 -5.750112598191568E-006
                   236  4.869670894335562E-005
                   237  1.342533092527381E-004
                   238 -6.517674157090393E-004
                   239 -2.665567868064759E-005
                   240 -4.626836037672817E-007
                   241 -1.404231206125327E-005
                   242 -3.647523293835696E-004
                   243  2.270590981310645E-004
                   244  3.684200605488042E-005
                   245  1.700760891293192E-006
                   246 -3.155835283189791E-006
 Sym= __2_A__
 Ene=   2.00000000000000     
 Spin= Alpha
 Occup=    1.00000000000000     
                     1 -3.512196785059783E-005
                     2 -3.237803332189702E-006
                     3 -4.256425329774723E-004
                     4 -1.421178042228506E-005
                     5  9.923126118366876E-004
                     6  1.610635791184940E-003
                     7 -1.799744188232663E-004
                     8  9.730394972871420E-004
                     9 -1.506263753082939E-004
                    10 -2.505577070783573E-006
                    11 -1.162704690488344E-004
                    12  1.470717775288428E-004
                    13  1.541508010084799E-005
                    14 -1.484923682031789E-004
                    15 -4.678465874421944E-005
                    16  3.061867379250817E-005
                    17  1.785201076666220E-006
                    18  5.328234986568980E-005
                    19  9.275164880487228E-007
                    20  4.852217074247069E-005
                    21 -5.079957333678952E-005
                    22 -2.773998647475704E-005
                    23  1.031648695369484E-004
                    24  2.403616906834939E-005
                    25 -2.910020239699146E-005
                    26  1.251244198804431E-004
                    27  1.176941571922472E-005
                    28 -6.239327882285379E-005
                    29 -6.066699235999999E-006
                    30  1.070136250710783E-004
                    31 -2.081436950453299E-006
                    32   1.00082342111045     
                    33  8.562970845344599E-003
                    34  2.847007565088409E-003
                    35 -8.438157378116653E-003
                    36 -1.301177437367645E-003
                    37 -1.384978593805999E-004
                    38  4.697362772606753E-005
                    39  7.099429266311745E-004
                    40  1.189283578465615E-004
                    41 -4.072116907594217E-004
                    42  2.460082434684078E-003
                    43  5.193570823623109E-005
                    44  4.060571148036111E-004
                    45  3.187408465837542E-004
                    46 -1.248954043391788E-005
                    47 -1.054270285241328E-004
                    48  3.105603631266518E-004
                    49  1.388598357317505E-005
                    50 -1.012553306082144E-003
                    51 -3.819373204330871E-004
                    52  2.165206175025312E-004
                    53 -1.140444554321479E-004
                    54  4.115433066156115E-005
                    55 -2.691174522025625E-005
                    56  2.538371964685583E-004
                    57  7.518603348481423E-006
                    58 -3.156036613304288E-005
                    59 -3.857743858593444E-005
                    60  6.981906926282446E-005
                    61 -1.221061344046846E-006
                    62  1.703465833027742E-002
                    63 -1.366677934263582E-003
                    64 -2.878460015222429E-004
                    65  2.749276871583013E-003
                    66 -4.074804064118830E-004
                    67 -7.648967000356984E-005
                    68  4.538417158955570E-004
                    69  2.631279320311646E-005
                    70 -3.826714236292131E-005
                    71  2.901646135102316E-004
                    72  1.895288845788278E-004
                    73  2.189988778196393E-004
                    74 -1.779424913971732E-003
                    75  1.468438815669051E-005
                    76  2.330464045329740E-005
                    77  2.594606629344066E-006
                    78 -4.799190584282146E-005
                    79 -4.853762909134584E-006
                    80 -5.589587448312098E-004
                    81 -3.771134383820052E-004
                    82  2.824492138227117E-006
                    83  8.105138558367330E-004
                    84  9.334257557393555E-005
                    85  3.476650438635050E-005
                    86  1.077737289697318E-004
                    87  1.860573462353439E-005
                    88 -2.989769634160030E-005
                    89 -2.545186953609969E-005
                    90 -2.624915423542672E-005
                    91  6.579906788523534E-006
                    92  1.882249524133544E-002
                    93 -1.747525748261600E-003
                    94 -3.398528471107836E-004
                    95  3.399764924468701E-003
                    96 -2.532538235713046E-004
                    97  1.251734465595008E-005
                    98 -3.038055386279226E-004
                    99 -1.215367944535487E-004
                   100  9.031544488953845E-005
                   101 -8.187555384473744E-004
                   102  3.545934868285919E-004
                   103 -1.720367978876190E-004
                   104  1.484187533981215E-003
                   105  7.075546509323372E-006
                   106 -1.655781340146612E-006
                   107  1.487715407145591E-006
                   108 -2.145413726085244E-005
                   109 -7.425763933685774E-007
                   110 -1.405646705356277E-004
                   111  5.290996888726561E-004
                   112 -2.181221552216114E-005
                   113  6.106790422883806E-004
                   114 -2.536269969252444E-005
                   115 -4.340439844342384E-005
                   116  8.246841932925023E-005
                   117 -1.550406024083095E-005
                   118  1.699372756236961E-005
                   119 -1.996398921299872E-005
                   120 -2.804908225183938E-005
                   121 -7.183887396896017E-007
                   122 -2.644545768369507E-005
                   123 -7.434985477369245E-004
                   124  2.446042956204667E-004
                   125 -4.248602323640452E-004
                   126 -3.620126076626283E-005
                   127  1.321268945880905E-006
                   128 -5.765706363658017E-005
                   129  6.263985340957000E-004
                   130  1.213933447974999E-005
                   131  5.683174302944957E-005
                   132  2.726044952541593E-004
                   133 -4.047753827518294E-005
                   134  4.216324298435987E-004
                   135  2.634647711874111E-006
                   136  3.501620704143298E-005
                   137  5.159274570726404E-006
                   138 -4.064793137058814E-005
                   139 -6.549550175522812E-006
                   140  1.859301122761793E-004
                   141 -2.946578302333636E-004
                   142 -2.005054813209427E-005
                   143 -2.201334442950498E-004
                   144  2.231930206297666E-005
                   145 -8.077579904824089E-006
                   146  1.169395025911355E-005
                   147 -1.833474575826218E-006
                   148 -1.099140443495534E-006
                   149 -5.290478639205297E-006
                   150 -1.952562516399165E-005
                   151  1.985791041619963E-006
                   152  5.519958366181438E-005
                   153 -7.618915812057744E-004
                   154  2.281389881138816E-004
                   155 -1.247453434637691E-004
                   156 -9.433048479585948E-005
                   157 -1.662630242292006E-005
                   158  3.871841935715868E-005
                   159  4.755005078369332E-004
                   160  1.484947309044495E-005