[Molden Format]
[Atoms] AU
  N     1    7     0.0000000000   -4.2907334100    0.0000000000        
  C     2    6     0.0000000000   -1.7772236300    0.0000000000        
  C     3    6    -2.3389203600   -0.4111016300    0.0000000000        
  C     4    6     2.3389203600   -0.4111016300    0.0000000000        
  C     5    6    -2.2998668500    2.1639215300    0.0000000000        
  C     6    6     2.2998668500    2.1639215300    0.0000000000        
  C     7    6     0.0000000000    3.4755251800    0.0000000000        
  H     8    1    -3.2166012100   -6.2751063900    0.0000000000        
  H     9    1     1.6528040300   -5.3103747800    0.0000000000        
  H    10    1    -4.0745407300   -1.4447408500    0.0000000000        
  H    11    1     4.0745407300   -1.4447408500    0.0000000000        
  H    12    1    -4.0420632100    3.1963889500    0.0000000000        
  H    13    1     4.0420632100    3.1963889500    0.0000000000        
  H    14    1     0.0000000000    5.5020335600    0.0000000000        
[5D]
[7F]
[GTO]
  1  0
   s    12 1.00
  0.114200D+05  0.172695D-04
  0.171200D+04  0.134411D-03
  0.389300D+03  0.694561D-03
  0.110000D+03  0.278531D-02
  0.355700D+02  0.863457D-02
  0.125400D+02  0.199805D-01
  0.464400D+01  0.262908D-01
  0.129300D+01 -0.243845D-01
  0.511800D+00 -0.924934D-01
  0.178700D+00 -0.339683D+00
  0.246240D-01  0.345111D+00
  0.112530D-01  0.752750D+00
   s    10 1.00
  0.114200D+05  0.523000D-03
  0.171200D+04  0.404500D-02
  0.389300D+03  0.207750D-01
  0.110000D+03  0.807269D-01
  0.355700D+02  0.233074D+00
  0.125400D+02  0.433501D+00
  0.464400D+01  0.347472D+00
  0.129300D+01  0.412620D-01
  0.511800D+00 -0.850799D-02
  0.178700D+00  0.238400D-02
   s    10 1.00
  0.114200D+05 -0.115000D-03
  0.171200D+04 -0.895000D-03
  0.389300D+03 -0.462400D-02
  0.110000D+03 -0.185280D-01
  0.355700D+02 -0.573390D-01
  0.125400D+02 -0.132076D+00
  0.464400D+01 -0.172510D+00
  0.129300D+01  0.151814D+00
  0.511800D+00  0.599944D+00
  0.178700D+00  0.387462D+00
   s     1 1.00
  0.129300D+01  0.100000D+01
   s     1 1.00
  0.178700D+00  0.100000D+01
   p     5 1.00
  0.266300D+02  0.146700D-01
  0.594800D+01  0.917640D-01
  0.174200D+01  0.298683D+00
  0.555000D+00  0.498487D+00
  0.172500D+00  0.337023D+00
   p     1 1.00
  0.174200D+01  0.100000D+01
   p     1 1.00
  0.555000D+00  0.100000D+01
   d     1 1.00
  0.165400D+01  0.100000D+01
   d     1 1.00
  0.469000D+00  0.100000D+01
   f     1 1.00
  0.109300D+01  0.100000D+01
  
  2  0
   s    10 1.00
  0.823600D+04  0.531000D-03
  0.123500D+04  0.410800D-02
  0.280800D+03  0.210870D-01
  0.792700D+02  0.818530D-01
  0.255900D+02  0.234817D+00
  0.899700D+01  0.434401D+00
  0.331900D+01  0.346129D+00
  0.905900D+00  0.393780D-01
  0.364300D+00 -0.898300D-02
  0.128500D+00  0.238500D-02
   s    10 1.00
  0.823600D+04 -0.113000D-03
  0.123500D+04 -0.878000D-03
  0.280800D+03 -0.454000D-02
  0.792700D+02 -0.181330D-01
  0.255900D+02 -0.557600D-01
  0.899700D+01 -0.126895D+00
  0.331900D+01 -0.170352D+00
  0.905900D+00  0.140382D+00
  0.364300D+00  0.598684D+00
  0.128500D+00  0.395389D+00
   s     1 1.00
  0.905900D+00  0.100000D+01
   s     1 1.00
  0.364300D+00  0.100000D+01
   p     5 1.00
  0.187100D+02  0.140310D-01
  0.413300D+01  0.868660D-01
  0.120000D+01  0.290216D+00
  0.382700D+00  0.501008D+00
  0.120900D+00  0.343406D+00
   p     1 1.00
  0.382700D+00  0.100000D+01
   p     1 1.00
  0.120900D+00  0.100000D+01
   d     1 1.00
  0.109700D+01  0.100000D+01
   d     1 1.00
  0.318000D+00  0.100000D+01
   f     1 1.00
  0.761000D+00  0.100000D+01
  
  3  0
   s    10 1.00
  0.823600D+04  0.531000D-03
  0.123500D+04  0.410800D-02
  0.280800D+03  0.210870D-01
  0.792700D+02  0.818530D-01
  0.255900D+02  0.234817D+00
  0.899700D+01  0.434401D+00
  0.331900D+01  0.346129D+00
  0.905900D+00  0.393780D-01
  0.364300D+00 -0.898300D-02
  0.128500D+00  0.238500D-02
   s    10 1.00
  0.823600D+04 -0.113000D-03
  0.123500D+04 -0.878000D-03
  0.280800D+03 -0.454000D-02
  0.792700D+02 -0.181330D-01
  0.255900D+02 -0.557600D-01
  0.899700D+01 -0.126895D+00
  0.331900D+01 -0.170352D+00
  0.905900D+00  0.140382D+00
  0.364300D+00  0.598684D+00
  0.128500D+00  0.395389D+00
   s     1 1.00
  0.905900D+00  0.100000D+01
   s     1 1.00
  0.364300D+00  0.100000D+01
   p     5 1.00
  0.187100D+02  0.140310D-01
  0.413300D+01  0.868660D-01
  0.120000D+01  0.290216D+00
  0.382700D+00  0.501008D+00
  0.120900D+00  0.343406D+00
   p     1 1.00
  0.382700D+00  0.100000D+01
   p     1 1.00
  0.120900D+00  0.100000D+01
   d     1 1.00
  0.109700D+01  0.100000D+01
   d     1 1.00
  0.318000D+00  0.100000D+01
   f     1 1.00
  0.761000D+00  0.100000D+01
  
  4  0
   s    10 1.00
  0.823600D+04  0.531000D-03
  0.123500D+04  0.410800D-02
  0.280800D+03  0.210870D-01
  0.792700D+02  0.818530D-01
  0.255900D+02  0.234817D+00
  0.899700D+01  0.434401D+00
  0.331900D+01  0.346129D+00
  0.905900D+00  0.393780D-01
  0.364300D+00 -0.898300D-02
  0.128500D+00  0.238500D-02
   s    10 1.00
  0.823600D+04 -0.113000D-03
  0.123500D+04 -0.878000D-03
  0.280800D+03 -0.454000D-02
  0.792700D+02 -0.181330D-01
  0.255900D+02 -0.557600D-01
  0.899700D+01 -0.126895D+00
  0.331900D+01 -0.170352D+00
  0.905900D+00  0.140382D+00
  0.364300D+00  0.598684D+00
  0.128500D+00  0.395389D+00
   s     1 1.00
  0.905900D+00  0.100000D+01
   s     1 1.00
  0.364300D+00  0.100000D+01
   p     5 1.00
  0.187100D+02  0.140310D-01
  0.413300D+01  0.868660D-01
  0.120000D+01  0.290216D+00
  0.382700D+00  0.501008D+00
  0.120900D+00  0.343406D+00
   p     1 1.00
  0.382700D+00  0.100000D+01
   p     1 1.00
  0.120900D+00  0.100000D+01
   d     1 1.00
  0.109700D+01  0.100000D+01
   d     1 1.00
  0.318000D+00  0.100000D+01
   f     1 1.00
  0.761000D+00  0.100000D+01
  
  5  0
   s    10 1.00
  0.823600D+04  0.531000D-03
  0.123500D+04  0.410800D-02
  0.280800D+03  0.210870D-01
  0.792700D+02  0.818530D-01
  0.255900D+02  0.234817D+00
  0.899700D+01  0.434401D+00
  0.331900D+01  0.346129D+00
  0.905900D+00  0.393780D-01
  0.364300D+00 -0.898300D-02
  0.128500D+00  0.238500D-02
   s    10 1.00
  0.823600D+04 -0.113000D-03
  0.123500D+04 -0.878000D-03
  0.280800D+03 -0.454000D-02
  0.792700D+02 -0.181330D-01
  0.255900D+02 -0.557600D-01
  0.899700D+01 -0.126895D+00
  0.331900D+01 -0.170352D+00
  0.905900D+00  0.140382D+00
  0.364300D+00  0.598684D+00
  0.128500D+00  0.395389D+00
   s     1 1.00
  0.905900D+00  0.100000D+01
   s     1 1.00
  0.364300D+00  0.100000D+01
   p     5 1.00
  0.187100D+02  0.140310D-01
  0.413300D+01  0.868660D-01
  0.120000D+01  0.290216D+00
  0.382700D+00  0.501008D+00
  0.120900D+00  0.343406D+00
   p     1 1.00
  0.382700D+00  0.100000D+01
   p     1 1.00
  0.120900D+00  0.100000D+01
   d     1 1.00
  0.109700D+01  0.100000D+01
   d     1 1.00
  0.318000D+00  0.100000D+01
   f     1 1.00
  0.761000D+00  0.100000D+01
  
  6  0
   s    10 1.00
  0.823600D+04  0.531000D-03
  0.123500D+04  0.410800D-02
  0.280800D+03  0.210870D-01
  0.792700D+02  0.818530D-01
  0.255900D+02  0.234817D+00
  0.899700D+01  0.434401D+00
  0.331900D+01  0.346129D+00
  0.905900D+00  0.393780D-01
  0.364300D+00 -0.898300D-02
  0.128500D+00  0.238500D-02
   s    10 1.00
  0.823600D+04 -0.113000D-03
  0.123500D+04 -0.878000D-03
  0.280800D+03 -0.454000D-02
  0.792700D+02 -0.181330D-01
  0.255900D+02 -0.557600D-01
  0.899700D+01 -0.126895D+00
  0.331900D+01 -0.170352D+00
  0.905900D+00  0.140382D+00
  0.364300D+00  0.598684D+00
  0.128500D+00  0.395389D+00
   s     1 1.00
  0.905900D+00  0.100000D+01
   s     1 1.00
  0.364300D+00  0.100000D+01
   p     5 1.00
  0.187100D+02  0.140310D-01
  0.413300D+01  0.868660D-01
  0.120000D+01  0.290216D+00
  0.382700D+00  0.501008D+00
  0.120900D+00  0.343406D+00
   p     1 1.00
  0.382700D+00  0.100000D+01
   p     1 1.00
  0.120900D+00  0.100000D+01
   d     1 1.00
  0.109700D+01  0.100000D+01
   d     1 1.00
  0.318000D+00  0.100000D+01
   f     1 1.00
  0.761000D+00  0.100000D+01
  
  7  0
   s    10 1.00
  0.823600D+04  0.531000D-03
  0.123500D+04  0.410800D-02
  0.280800D+03  0.210870D-01
  0.792700D+02  0.818530D-01
  0.255900D+02  0.234817D+00
  0.899700D+01  0.434401D+00
  0.331900D+01  0.346129D+00
  0.905900D+00  0.393780D-01
  0.364300D+00 -0.898300D-02
  0.128500D+00  0.238500D-02
   s    10 1.00
  0.823600D+04 -0.113000D-03
  0.123500D+04 -0.878000D-03
  0.280800D+03 -0.454000D-02
  0.792700D+02 -0.181330D-01
  0.255900D+02 -0.557600D-01
  0.899700D+01 -0.126895D+00
  0.331900D+01 -0.170352D+00
  0.905900D+00  0.140382D+00
  0.364300D+00  0.598684D+00
  0.128500D+00  0.395389D+00
   s     1 1.00
  0.905900D+00  0.100000D+01
   s     1 1.00
  0.364300D+00  0.100000D+01
   p     5 1.00
  0.187100D+02  0.140310D-01
  0.413300D+01  0.868660D-01
  0.120000D+01  0.290216D+00
  0.382700D+00  0.501008D+00
  0.120900D+00  0.343406D+00
   p     1 1.00
  0.382700D+00  0.100000D+01
   p     1 1.00
  0.120900D+00  0.100000D+01
   d     1 1.00
  0.109700D+01  0.100000D+01
   d     1 1.00
  0.318000D+00  0.100000D+01
   f     1 1.00
  0.761000D+00  0.100000D+01
  
  8  0
   s     4 1.00
  0.130100D+02  0.196850D-01
  0.196200D+01  0.137977D+00
  0.444600D+00  0.478148D+00
  0.122000D+00  0.501240D+00
   s     1 1.00
  0.122000D+00  0.100000D+01
   p     1 1.00
  0.727000D+00  0.100000D+01
  
  9  0
   s     4 1.00
  0.130100D+02  0.196850D-01
  0.196200D+01  0.137977D+00
  0.444600D+00  0.478148D+00
  0.122000D+00  0.501240D+00
   s     1 1.00
  0.122000D+00  0.100000D+01
   p     1 1.00
  0.727000D+00  0.100000D+01
  
 10  0
   s     4 1.00
  0.130100D+02  0.196850D-01
  0.196200D+01  0.137977D+00
  0.444600D+00  0.478148D+00
  0.122000D+00  0.501240D+00
   s     1 1.00
  0.122000D+00  0.100000D+01
   p     1 1.00
  0.727000D+00  0.100000D+01
  
 11  0
   s     4 1.00
  0.130100D+02  0.196850D-01
  0.196200D+01  0.137977D+00
  0.444600D+00  0.478148D+00
  0.122000D+00  0.501240D+00
   s     1 1.00
  0.122000D+00  0.100000D+01
   p     1 1.00
  0.727000D+00  0.100000D+01
  
 12  0
   s     4 1.00
  0.130100D+02  0.196850D-01
  0.196200D+01  0.137977D+00
  0.444600D+00  0.478148D+00
  0.122000D+00  0.501240D+00
   s     1 1.00
  0.122000D+00  0.100000D+01
   p     1 1.00
  0.727000D+00  0.100000D+01
  
 13  0
   s     4 1.00
  0.130100D+02  0.196850D-01
  0.196200D+01  0.137977D+00
  0.444600D+00  0.478148D+00
  0.122000D+00  0.501240D+00
   s     1 1.00
  0.122000D+00  0.100000D+01
   p     1 1.00
  0.727000D+00  0.100000D+01
  
 14  0
   s     4 1.00
  0.130100D+02  0.196850D-01
  0.196200D+01  0.137977D+00
  0.444600D+00  0.478148D+00
  0.122000D+00  0.501240D+00
   s     1 1.00
  0.122000D+00  0.100000D+01
   p     1 1.00
  0.727000D+00  0.100000D+01
  
[MO]
 Sym= __1_A__
 Ene=   1.00000000000000     
 Spin= Alpha
 Occup=    1.00000000000000     
                     1  8.953102813308360E-005
                     2  0.998321172593623     
                     3  2.196577594858055E-003
                     4  1.804969780443933E-003
                     5  5.272560543725291E-003
                     6  3.225646531456650E-003
                     7  5.752362747114014E-003
                     8  0.000000000000000E+000
                     9 -6.220852615987164E-004
                    10 -4.877547111927071E-004
                    11  0.000000000000000E+000
                    12 -2.411732480251930E-003
                    13 -1.299354276624345E-003
                    14  0.000000000000000E+000
                    15 -1.128229926526317E-004
                    16  0.000000000000000E+000
                    17  0.000000000000000E+000
                    18 -2.081349380134952E-004
                    19 -1.188583802932962E-004
                    20  1.446165919623755E-004
                    21  0.000000000000000E+000
                    22  0.000000000000000E+000
                    23 -2.348974410115286E-004
                    24  6.693347843567431E-004
                    25  0.000000000000000E+000
                    26 -4.455860857652374E-006
                    27 -5.656638534776420E-005
                    28  0.000000000000000E+000
                    29  0.000000000000000E+000
                    30  2.251881804260553E-005
                    31 -1.417490038477996E-004
                    32 -3.541427709119282E-004
                    33  1.095824458225419E-003
                    34  2.998217165363365E-004
                    35 -2.690234355389468E-004
                    36 -2.353155986247254E-004
                    37 -4.827894788429413E-003
                    38  0.000000000000000E+000
                    39  5.121672242174982E-004
                    40  3.760124515272934E-004
                    41  0.000000000000000E+000
                    42 -2.319661170384932E-003
                    43  5.256553735668052E-003
                    44  0.000000000000000E+000
                    45 -1.797024412847977E-005
                    46  0.000000000000000E+000
                    47  0.000000000000000E+000
                    48 -2.365755065308902E-004
                    49 -1.312248785436969E-005
                    50 -2.352987283572762E-004
                    51  0.000000000000000E+000
                    52  0.000000000000000E+000
                    53  1.354542976476898E-004
                    54  9.027959367837010E-004
                    55  0.000000000000000E+000
                    56 -1.008139740460255E-005
                    57 -6.049852524647271E-005
                    58  0.000000000000000E+000
                    59  0.000000000000000E+000
                    60 -1.926156662087971E-005
                    61 -1.312377882549263E-004
                    62 -5.039325853452718E-004
                    63 -2.337639575056413E-003
                    64 -8.656440307450267E-005
                    65  2.164150775096431E-003
                    66 -6.998144613674657E-004
                    67  5.566526680686454E-004
                    68  0.000000000000000E+000
                    69  4.915199539353808E-004
                    70  8.222375464018801E-004
                    71  0.000000000000000E+000
                    72 -1.726228059451261E-003
                    73  8.115607448135175E-004
                    74  0.000000000000000E+000
                    75 -4.179593749538145E-005
                    76  0.000000000000000E+000
                    77  0.000000000000000E+000
                    78 -9.317017004011092E-005
                    79 -3.461466445904768E-005
                    80 -1.333820048521051E-004
                    81  0.000000000000000E+000
                    82  0.000000000000000E+000
                    83  1.426492373526834E-004
                    84  1.450010906525403E-004
                    85  0.000000000000000E+000
                    86  1.216171251117396E-005
                    87 -4.688714816001266E-005
                    88  0.000000000000000E+000
                    89  0.000000000000000E+000
                    90 -1.155540602301557E-005
                    91 -1.516595323567515E-004
                    92 -1.165791847375398E-004
                    93 -1.029610529533861E-003
                    94  2.283019486711448E-004
                    95 -4.316904458565197E-004
                    96  6.147598599860927E-004
                    97  7.790296621318213E-004
                    98  0.000000000000000E+000
                    99  4.663641223070461E-004
                   100  3.029851012734297E-004
                   101  0.000000000000000E+000
                   102  4.137933589909595E-004
                   103 -1.542203490303940E-003
                   104  0.000000000000000E+000
                   105 -1.200143592136873E-008
                   106  0.000000000000000E+000
                   107  0.000000000000000E+000
                   108 -6.980498761133224E-005
                   109 -2.153626346172392E-005
                   110  1.458716623912146E-004
                   111  0.000000000000000E+000
                   112  0.000000000000000E+000
                   113 -1.309753043630633E-004
                   114 -8.062538358303676E-005
                   115  0.000000000000000E+000
                   116 -2.501004898457631E-005
                   117 -2.912427869001675E-005
                   118  0.000000000000000E+000
                   119  0.000000000000000E+000
                   120  1.239005371783581E-005
                   121 -1.752068743799746E-005
                   122 -2.631969717195846E-004
                   123 -4.989323408726157E-004
                   124  1.686678192101244E-004
                   125  3.975914080962933E-004
                   126 -7.700867754640929E-006
                   127 -6.015218854487204E-004
                   128  0.000000000000000E+000
                   129  1.640281128175539E-004
                   130  5.976102078879016E-004
                   131  0.000000000000000E+000
                   132  4.140198950812613E-004
                   133  2.080652318512031E-003
                   134  0.000000000000000E+000
                   135  1.198674452578895E-005
                   136  0.000000000000000E+000
                   137  0.000000000000000E+000
                   138  4.018736158405050E-005
                   139  9.878696161257029E-007
                   140  2.008953460665217E-004
                   141  0.000000000000000E+000
                   142  0.000000000000000E+000
                   143  3.642446341714942E-004
                   144  2.746894619824153E-004
                   145  0.000000000000000E+000
                   146 -8.248996123222012E-006
                   147 -6.147683930189204E-005
                   148  0.000000000000000E+000
                   149  0.000000000000000E+000
                   150 -2.467809908080899E-005
                   151 -5.012737682895995E-005
                   152 -1.729459094692802E-004
                   153 -2.084679145298191E-004
                   154  2.930836167210022E-005
                   155  3.846871260226690E-004
                   156 -4.020321539502983E-005
                   157 -5.491722471584609E-004
                   158  0.000000000000000E+000
                   159  4.472356881920233E-005
                   160  2.846742128341765E-005
                   161  0.000000000000000E+000
                   162  7.369374673443628E-004
                   163 -3.494205117220538E-004
                   164  0.000000000000000E+000
                   165 -3.968028634567262E-006
                   166  0.000000000000000E+000
                   167  0.000000000000000E+000
                   168 -1.342044768034013E-005
                   169  3.669159836767198E-006
                   170  4.995251380346940E-005
                   171  0.000000000000000E+000
                   172  0.000000000000000E+000
                   173 -8.088857212850384E-007
                   174 -2.875958429941315E-005
                   175  0.000000000000000E+000
                   176  3.860584938346480E-006
                   177 -5.407541171512381E-006
                   178  0.000000000000000E+000
                   179  0.000000000000000E+000
                   180 -2.300808839532291E-005
                   181 -5.923124654651118E-006
                   182 -1.689269545334468E-004
                   183 -4.898195000470735E-004
                   184  4.474247636244167E-005
                   185  2.432074672842896E-004
                   186 -3.755312668801864E-005
                   187 -4.709775095309926E-005
                   188  0.000000000000000E+000
                   189  2.110041907615254E-004
                   190  6.660793073930818E-005
                   191  0.000000000000000E+000
                   192  1.372343976544925E-003
                   193 -1.848153537429905E-004
                   194  0.000000000000000E+000
                   195 -2.632384663418624E-007
                   196  0.000000000000000E+000
                   197  0.000000000000000E+000
                   198 -1.398032926230769E-005
                   199  7.061404326129453E-006
                   200  8.975984995408420E-006
                   201  0.000000000000000E+000
                   202  0.000000000000000E+000
                   203 -8.831588794120008E-005
                   204 -1.874219593652764E-004
                   205  0.000000000000000E+000
                   206 -5.539479540713726E-006
                   207 -4.785584492719520E-006
                   208  0.000000000000000E+000
                   209  0.000000000000000E+000
                   210  1.166059438402831E-005
                   211 -6.271783455652631E-006
                   212 -6.956772036264409E-005
                   213  1.114070621164753E-004
                   214  3.873684021626868E-005
                   215  5.399709978143154E-005
                   216  0.000000000000000E+000
                   217  1.298439237162332E-003
                   218 -1.603018730127729E-003
                   219 -4.329137617815166E-004
                   220  1.990729689988472E-004
                   221  0.000000000000000E+000
                   222 -5.181001291714053E-004
                   223 -5.781233663375491E-004
                   224  9.399035012309530E-006
                   225 -7.878616416066334E-005
                   226  0.000000000000000E+000
                   227 -2.951867372536522E-004
                   228 -4.287070886358438E-004
                   229 -5.414159383905972E-006
                   230 -1.545808783280467E-005
                   231  0.000000000000000E+000
                   232 -8.134610510832148E-005
                   233 -5.529778668638102E-004
                   234  4.097182157148745E-006
                   235 -1.805962368478420E-007
                   236  0.000000000000000E+000
                   237 -2.024644558857970E-004
                   238 -3.711186156163903E-004
                   239  1.077781651860471E-005
                   240  5.416003261279833E-006
                   241  0.000000000000000E+000
                   242  1.977115602737311E-005
                   243 -9.025558550964350E-006
                   244 -8.452970321384137E-007
                   245  2.403662674945084E-005
                   246  0.000000000000000E+000
 Sym= __2_A__
 Ene=   2.00000000000000     
 Spin= Alpha
 Occup=    1.00000000000000     
                     1 -4.764655403983009E-005
                     2 -3.124024123294736E-004
                     3  2.774676509808675E-003
                     4  1.367008386698859E-004
                     5  1.372307781595515E-003
                     6 -3.825766540275469E-004
                     7  2.971842222434064E-003
                     8  0.000000000000000E+000
                     9 -8.762543637167061E-005
                    10 -1.068900358023909E-004
                    11  0.000000000000000E+000
                    12  1.020997774082153E-004
                    13 -4.136632747899408E-004
                    14  0.000000000000000E+000
                    15  3.012695417440128E-005
                    16  0.000000000000000E+000
                    17  0.000000000000000E+000
                    18 -4.377986259573670E-005
                    19  1.256766791908402E-005
                    20 -1.151573790840653E-004
                    21  0.000000000000000E+000
                    22  0.000000000000000E+000
                    23  1.511637725844471E-004
                    24 -3.156024539923371E-005
                    25  0.000000000000000E+000
                    26 -2.146215973263469E-005
                    27  8.650469815919168E-005
                    28  0.000000000000000E+000
                    29  0.000000000000000E+000
                    30 -2.393513692051634E-005
                    31  1.447173878885536E-004
                    32   1.00105984489974     
                    33  9.290404857644572E-003
                    34  2.684150145554444E-003
                    35 -8.144860962057160E-003
                    36 -1.489015022122366E-004
                    37 -3.570158067169005E-003
                    38  0.000000000000000E+000
                    39  1.498582511473336E-004
                    40  4.106422995203091E-004
                    41  0.000000000000000E+000
                    42  3.321259780385029E-005
                    43  4.230399226196699E-003
                    44  0.000000000000000E+000
                    45 -5.659515394142688E-004
                    46  0.000000000000000E+000
                    47  0.000000000000000E+000
                    48 -1.979366265520731E-004
                    49 -8.968540380873347E-006
                    50  5.461418420869816E-004
                    51  0.000000000000000E+000
                    52  0.000000000000000E+000
                    53 -8.979161652872553E-004
                    54  5.791699522048255E-005
                    55  0.000000000000000E+000
                    56 -4.548374059140828E-006
                    57  9.492425962163641E-005
                    58  0.000000000000000E+000
                    59  0.000000000000000E+000
                    60  4.043624603528943E-006
                    61  3.963659896002609E-004
                    62  8.780493688519466E-003
                    63 -2.082118903498301E-003
                    64 -3.029196635658279E-004
                    65  3.068642460364159E-003
                    66 -2.579074356490765E-005
                    67  1.384115048589719E-004
                    68  0.000000000000000E+000
                    69  7.436965151740141E-004
                    70 -3.403194361673967E-006
                    71  0.000000000000000E+000
                    72 -2.074104746963954E-003
                    73  6.209022776908823E-005
                    74  0.000000000000000E+000
                    75  2.571566278438617E-005
                    76  0.000000000000000E+000
                    77  0.000000000000000E+000
                    78 -2.571583428026210E-006
                    79 -4.444100374800530E-008
                    80 -4.169751880738605E-004
                    81  0.000000000000000E+000
                    82  0.000000000000000E+000
                    83 -5.895402953636514E-004
                    84 -3.761843031419758E-004
                    85  0.000000000000000E+000
                    86  3.261018464756861E-005
                    87 -5.977702881760819E-005
                    88  0.000000000000000E+000
                    89  0.000000000000000E+000
                    90  5.036555286864745E-005
                    91  1.393362464572617E-004
                    92  9.723393782139973E-003
                    93 -2.070219442845941E-003
                    94 -2.826752237485837E-004
                    95  3.010262113665122E-003
                    96  4.134386985038904E-005
                    97  1.191786363336879E-004
                    98  0.000000000000000E+000
                    99 -6.623253425561907E-004
                   100  4.819850468116507E-005
                   101  0.000000000000000E+000
                   102  2.019423812346832E-003
                   103  4.260501125453707E-005
                   104  0.000000000000000E+000
                   105  3.123417384104217E-005
                   106  0.000000000000000E+000
                   107  0.000000000000000E+000
                   108 -6.160654141019270E-006
                   109 -8.434594789547412E-006
                   110 -4.112634835924786E-004
                   111  0.000000000000000E+000
                   112  0.000000000000000E+000
                   113 -6.122933350765712E-004
                   114  3.632752263056973E-004
                   115  0.000000000000000E+000
                   116 -3.234050899010415E-005
                   117 -6.052598238456665E-005
                   118  0.000000000000000E+000
                   119  0.000000000000000E+000
                   120 -4.849855833971848E-005
                   121  1.357151280964924E-004
                   122 -1.567405951019766E-004
                   123 -6.516153125693625E-004
                   124  2.268173220520847E-004
                   125 -1.176608601262020E-004
                   126 -3.199724521681914E-006
                   127 -3.613239379583807E-004
                   128  0.000000000000000E+000
                   129 -6.286217446260935E-005
                   130  5.471456329321248E-004
                   131  0.000000000000000E+000
                   132  3.265317381978919E-004
                   133  7.654040423502665E-004
                   134  0.000000000000000E+000
                   135  1.897059141096728E-005
                   136  0.000000000000000E+000
                   137  0.000000000000000E+000
                   138  4.089018735182766E-006
                   139  5.270582882356226E-005
                   140  1.389775469193375E-004
                   141  0.000000000000000E+000
                   142  0.000000000000000E+000
                   143  2.431772005267198E-004
                   144 -1.798507975879400E-004
                   145  0.000000000000000E+000
                   146  7.361390491827493E-006
                   147 -3.411252801914174E-005
                   148  0.000000000000000E+000
                   149  0.000000000000000E+000
                   150 -4.765902224849120E-005
                   151  2.847604324860779E-005
                   152 -1.433070400378601E-004
                   153 -6.595880739898793E-004
                   154  2.297392544367640E-004
                   155 -1.390251190584482E-004
                   156 -2.660366046526233E-006
                   157 -3.570886823430924E-004
                   158  0.000000000000000E+000
                   159  4.741339915762350E-005
                   160  5.663710768431223E-004