[Molden Format]
[Atoms] AU
  N     1    7    -0.0359273400   -4.3001016100    0.0000000100        
  C     2    6     0.0775678500   -1.7674591000   -0.0000000100        
  C     3    6    -2.2571190800   -0.3926626200   -0.0000000100        
  C     4    6     2.3702085900   -0.3237991700   -0.0000000200        
  C     5    6    -2.2619772600    2.1900700800   -0.0000000100        
  C     6    6     2.3150124500    2.2580894100    0.0000000100        
  C     7    6     0.0100184500    3.5448164500    0.0000000100        
  H     8    1    -3.7186087900   -6.9472115500    0.0000000600        
  H     9    1     1.7686532600   -5.0282524400   -0.0000000200        
  H    10    1    -3.9839411700   -1.4490475500   -0.0000000200        
  H    11    1     4.1418421700   -1.3143953800   -0.0000000200        
  H    12    1    -4.0229503900    3.1986484800   -0.0000000300        
  H    13    1     4.0491460400    3.3121027100    0.0000000300        
  H    14    1    -0.0191569900    5.5725266900    0.0000000200        
[5D]
[7F]
[GTO]
  1  0
   s    12 1.00
  0.114200D+05  0.172695D-04
  0.171200D+04  0.134411D-03
  0.389300D+03  0.694561D-03
  0.110000D+03  0.278531D-02
  0.355700D+02  0.863457D-02
  0.125400D+02  0.199805D-01
  0.464400D+01  0.262908D-01
  0.129300D+01 -0.243845D-01
  0.511800D+00 -0.924934D-01
  0.178700D+00 -0.339683D+00
  0.246240D-01  0.345111D+00
  0.112530D-01  0.752750D+00
   s    10 1.00
  0.114200D+05  0.523000D-03
  0.171200D+04  0.404500D-02
  0.389300D+03  0.207750D-01
  0.110000D+03  0.807269D-01
  0.355700D+02  0.233074D+00
  0.125400D+02  0.433501D+00
  0.464400D+01  0.347472D+00
  0.129300D+01  0.412620D-01
  0.511800D+00 -0.850799D-02
  0.178700D+00  0.238400D-02
   s    10 1.00
  0.114200D+05 -0.115000D-03
  0.171200D+04 -0.895000D-03
  0.389300D+03 -0.462400D-02
  0.110000D+03 -0.185280D-01
  0.355700D+02 -0.573390D-01
  0.125400D+02 -0.132076D+00
  0.464400D+01 -0.172510D+00
  0.129300D+01  0.151814D+00
  0.511800D+00  0.599944D+00
  0.178700D+00  0.387462D+00
   s     1 1.00
  0.129300D+01  0.100000D+01
   s     1 1.00
  0.178700D+00  0.100000D+01
   p     5 1.00
  0.266300D+02  0.146700D-01
  0.594800D+01  0.917640D-01
  0.174200D+01  0.298683D+00
  0.555000D+00  0.498487D+00
  0.172500D+00  0.337023D+00
   p     1 1.00
  0.174200D+01  0.100000D+01
   p     1 1.00
  0.555000D+00  0.100000D+01
   d     1 1.00
  0.165400D+01  0.100000D+01
   d     1 1.00
  0.469000D+00  0.100000D+01
   f     1 1.00
  0.109300D+01  0.100000D+01
  
  2  0
   s    10 1.00
  0.823600D+04  0.531000D-03
  0.123500D+04  0.410800D-02
  0.280800D+03  0.210870D-01
  0.792700D+02  0.818530D-01
  0.255900D+02  0.234817D+00
  0.899700D+01  0.434401D+00
  0.331900D+01  0.346129D+00
  0.905900D+00  0.393780D-01
  0.364300D+00 -0.898300D-02
  0.128500D+00  0.238500D-02
   s    10 1.00
  0.823600D+04 -0.113000D-03
  0.123500D+04 -0.878000D-03
  0.280800D+03 -0.454000D-02
  0.792700D+02 -0.181330D-01
  0.255900D+02 -0.557600D-01
  0.899700D+01 -0.126895D+00
  0.331900D+01 -0.170352D+00
  0.905900D+00  0.140382D+00
  0.364300D+00  0.598684D+00
  0.128500D+00  0.395389D+00
   s     1 1.00
  0.905900D+00  0.100000D+01
   s     1 1.00
  0.364300D+00  0.100000D+01
   p     5 1.00
  0.187100D+02  0.140310D-01
  0.413300D+01  0.868660D-01
  0.120000D+01  0.290216D+00
  0.382700D+00  0.501008D+00
  0.120900D+00  0.343406D+00
   p     1 1.00
  0.382700D+00  0.100000D+01
   p     1 1.00
  0.120900D+00  0.100000D+01
   d     1 1.00
  0.109700D+01  0.100000D+01
   d     1 1.00
  0.318000D+00  0.100000D+01
   f     1 1.00
  0.761000D+00  0.100000D+01
  
  3  0
   s    10 1.00
  0.823600D+04  0.531000D-03
  0.123500D+04  0.410800D-02
  0.280800D+03  0.210870D-01
  0.792700D+02  0.818530D-01
  0.255900D+02  0.234817D+00
  0.899700D+01  0.434401D+00
  0.331900D+01  0.346129D+00
  0.905900D+00  0.393780D-01
  0.364300D+00 -0.898300D-02
  0.128500D+00  0.238500D-02
   s    10 1.00
  0.823600D+04 -0.113000D-03
  0.123500D+04 -0.878000D-03
  0.280800D+03 -0.454000D-02
  0.792700D+02 -0.181330D-01
  0.255900D+02 -0.557600D-01
  0.899700D+01 -0.126895D+00
  0.331900D+01 -0.170352D+00
  0.905900D+00  0.140382D+00
  0.364300D+00  0.598684D+00
  0.128500D+00  0.395389D+00
   s     1 1.00
  0.905900D+00  0.100000D+01
   s     1 1.00
  0.364300D+00  0.100000D+01
   p     5 1.00
  0.187100D+02  0.140310D-01
  0.413300D+01  0.868660D-01
  0.120000D+01  0.290216D+00
  0.382700D+00  0.501008D+00
  0.120900D+00  0.343406D+00
   p     1 1.00
  0.382700D+00  0.100000D+01
   p     1 1.00
  0.120900D+00  0.100000D+01
   d     1 1.00
  0.109700D+01  0.100000D+01
   d     1 1.00
  0.318000D+00  0.100000D+01
   f     1 1.00
  0.761000D+00  0.100000D+01
  
  4  0
   s    10 1.00
  0.823600D+04  0.531000D-03
  0.123500D+04  0.410800D-02
  0.280800D+03  0.210870D-01
  0.792700D+02  0.818530D-01
  0.255900D+02  0.234817D+00
  0.899700D+01  0.434401D+00
  0.331900D+01  0.346129D+00
  0.905900D+00  0.393780D-01
  0.364300D+00 -0.898300D-02
  0.128500D+00  0.238500D-02
   s    10 1.00
  0.823600D+04 -0.113000D-03
  0.123500D+04 -0.878000D-03
  0.280800D+03 -0.454000D-02
  0.792700D+02 -0.181330D-01
  0.255900D+02 -0.557600D-01
  0.899700D+01 -0.126895D+00
  0.331900D+01 -0.170352D+00
  0.905900D+00  0.140382D+00
  0.364300D+00  0.598684D+00
  0.128500D+00  0.395389D+00
   s     1 1.00
  0.905900D+00  0.100000D+01
   s     1 1.00
  0.364300D+00  0.100000D+01
   p     5 1.00
  0.187100D+02  0.140310D-01
  0.413300D+01  0.868660D-01
  0.120000D+01  0.290216D+00
  0.382700D+00  0.501008D+00
  0.120900D+00  0.343406D+00
   p     1 1.00
  0.382700D+00  0.100000D+01
   p     1 1.00
  0.120900D+00  0.100000D+01
   d     1 1.00
  0.109700D+01  0.100000D+01
   d     1 1.00
  0.318000D+00  0.100000D+01
   f     1 1.00
  0.761000D+00  0.100000D+01
  
  5  0
   s    10 1.00
  0.823600D+04  0.531000D-03
  0.123500D+04  0.410800D-02
  0.280800D+03  0.210870D-01
  0.792700D+02  0.818530D-01
  0.255900D+02  0.234817D+00
  0.899700D+01  0.434401D+00
  0.331900D+01  0.346129D+00
  0.905900D+00  0.393780D-01
  0.364300D+00 -0.898300D-02
  0.128500D+00  0.238500D-02
   s    10 1.00
  0.823600D+04 -0.113000D-03
  0.123500D+04 -0.878000D-03
  0.280800D+03 -0.454000D-02
  0.792700D+02 -0.181330D-01
  0.255900D+02 -0.557600D-01
  0.899700D+01 -0.126895D+00
  0.331900D+01 -0.170352D+00
  0.905900D+00  0.140382D+00
  0.364300D+00  0.598684D+00
  0.128500D+00  0.395389D+00
   s     1 1.00
  0.905900D+00  0.100000D+01
   s     1 1.00
  0.364300D+00  0.100000D+01
   p     5 1.00
  0.187100D+02  0.140310D-01
  0.413300D+01  0.868660D-01
  0.120000D+01  0.290216D+00
  0.382700D+00  0.501008D+00
  0.120900D+00  0.343406D+00
   p     1 1.00
  0.382700D+00  0.100000D+01
   p     1 1.00
  0.120900D+00  0.100000D+01
   d     1 1.00
  0.109700D+01  0.100000D+01
   d     1 1.00
  0.318000D+00  0.100000D+01
   f     1 1.00
  0.761000D+00  0.100000D+01
  
  6  0
   s    10 1.00
  0.823600D+04  0.531000D-03
  0.123500D+04  0.410800D-02
  0.280800D+03  0.210870D-01
  0.792700D+02  0.818530D-01
  0.255900D+02  0.234817D+00
  0.899700D+01  0.434401D+00
  0.331900D+01  0.346129D+00
  0.905900D+00  0.393780D-01
  0.364300D+00 -0.898300D-02
  0.128500D+00  0.238500D-02
   s    10 1.00
  0.823600D+04 -0.113000D-03
  0.123500D+04 -0.878000D-03
  0.280800D+03 -0.454000D-02
  0.792700D+02 -0.181330D-01
  0.255900D+02 -0.557600D-01
  0.899700D+01 -0.126895D+00
  0.331900D+01 -0.170352D+00
  0.905900D+00  0.140382D+00
  0.364300D+00  0.598684D+00
  0.128500D+00  0.395389D+00
   s     1 1.00
  0.905900D+00  0.100000D+01
   s     1 1.00
  0.364300D+00  0.100000D+01
   p     5 1.00
  0.187100D+02  0.140310D-01
  0.413300D+01  0.868660D-01
  0.120000D+01  0.290216D+00
  0.382700D+00  0.501008D+00
  0.120900D+00  0.343406D+00
   p     1 1.00
  0.382700D+00  0.100000D+01
   p     1 1.00
  0.120900D+00  0.100000D+01
   d     1 1.00
  0.109700D+01  0.100000D+01
   d     1 1.00
  0.318000D+00  0.100000D+01
   f     1 1.00
  0.761000D+00  0.100000D+01
  
  7  0
   s    10 1.00
  0.823600D+04  0.531000D-03
  0.123500D+04  0.410800D-02
  0.280800D+03  0.210870D-01
  0.792700D+02  0.818530D-01
  0.255900D+02  0.234817D+00
  0.899700D+01  0.434401D+00
  0.331900D+01  0.346129D+00
  0.905900D+00  0.393780D-01
  0.364300D+00 -0.898300D-02
  0.128500D+00  0.238500D-02
   s    10 1.00
  0.823600D+04 -0.113000D-03
  0.123500D+04 -0.878000D-03
  0.280800D+03 -0.454000D-02
  0.792700D+02 -0.181330D-01
  0.255900D+02 -0.557600D-01
  0.899700D+01 -0.126895D+00
  0.331900D+01 -0.170352D+00
  0.905900D+00  0.140382D+00
  0.364300D+00  0.598684D+00
  0.128500D+00  0.395389D+00
   s     1 1.00
  0.905900D+00  0.100000D+01
   s     1 1.00
  0.364300D+00  0.100000D+01
   p     5 1.00
  0.187100D+02  0.140310D-01
  0.413300D+01  0.868660D-01
  0.120000D+01  0.290216D+00
  0.382700D+00  0.501008D+00
  0.120900D+00  0.343406D+00
   p     1 1.00
  0.382700D+00  0.100000D+01
   p     1 1.00
  0.120900D+00  0.100000D+01
   d     1 1.00
  0.109700D+01  0.100000D+01
   d     1 1.00
  0.318000D+00  0.100000D+01
   f     1 1.00
  0.761000D+00  0.100000D+01
  
  8  0
   s     4 1.00
  0.130100D+02  0.196850D-01
  0.196200D+01  0.137977D+00
  0.444600D+00  0.478148D+00
  0.122000D+00  0.501240D+00
   s     1 1.00
  0.122000D+00  0.100000D+01
   p     1 1.00
  0.727000D+00  0.100000D+01
  
  9  0
   s     4 1.00
  0.130100D+02  0.196850D-01
  0.196200D+01  0.137977D+00
  0.444600D+00  0.478148D+00
  0.122000D+00  0.501240D+00
   s     1 1.00
  0.122000D+00  0.100000D+01
   p     1 1.00
  0.727000D+00  0.100000D+01
  
 10  0
   s     4 1.00
  0.130100D+02  0.196850D-01
  0.196200D+01  0.137977D+00
  0.444600D+00  0.478148D+00
  0.122000D+00  0.501240D+00
   s     1 1.00
  0.122000D+00  0.100000D+01
   p     1 1.00
  0.727000D+00  0.100000D+01
  
 11  0
   s     4 1.00
  0.130100D+02  0.196850D-01
  0.196200D+01  0.137977D+00
  0.444600D+00  0.478148D+00
  0.122000D+00  0.501240D+00
   s     1 1.00
  0.122000D+00  0.100000D+01
   p     1 1.00
  0.727000D+00  0.100000D+01
  
 12  0
   s     4 1.00
  0.130100D+02  0.196850D-01
  0.196200D+01  0.137977D+00
  0.444600D+00  0.478148D+00
  0.122000D+00  0.501240D+00
   s     1 1.00
  0.122000D+00  0.100000D+01
   p     1 1.00
  0.727000D+00  0.100000D+01
  
 13  0
   s     4 1.00
  0.130100D+02  0.196850D-01
  0.196200D+01  0.137977D+00
  0.444600D+00  0.478148D+00
  0.122000D+00  0.501240D+00
   s     1 1.00
  0.122000D+00  0.100000D+01
   p     1 1.00
  0.727000D+00  0.100000D+01
  
 14  0
   s     4 1.00
  0.130100D+02  0.196850D-01
  0.196200D+01  0.137977D+00
  0.444600D+00  0.478148D+00
  0.122000D+00  0.501240D+00
   s     1 1.00
  0.122000D+00  0.100000D+01
   p     1 1.00
  0.727000D+00  0.100000D+01
  
[MO]
 Sym= __1_A__
 Ene=   1.00000000000000     
 Spin= Alpha
 Occup=    1.00000000000000     
                     1  8.909030008137165E-005
                     2  0.998381090937783     
                     3 -4.080505995543159E-003
                     4  1.850611745396126E-003
                     5  6.486961755534031E-003
                     6  2.709875673492216E-003
                     7  5.536684183032901E-003
                     8 -1.714288165776655E-010
                     9 -7.215765904070935E-004
                    10 -7.207378026545708E-004
                    11  1.968968061539173E-010
                    12 -2.438766555074676E-003
                    13 -1.967612508297349E-003
                    14 -1.778938522711140E-010
                    15 -2.633663481374494E-005
                    16  5.652111763472176E-011
                    17  8.673887055177342E-012
                    18 -1.475841013777079E-004
                    19 -6.028979181588472E-005
                    20  1.125707353104332E-004
                    21 -6.085217904042514E-011
                    22 -2.840126108638781E-010
                    23 -1.656120599241200E-004
                    24  4.709645009416513E-004
                    25 -2.937769158482696E-010
                    26 -2.864532425504880E-006
                    27 -4.207074899808187E-005
                    28  1.667768226180555E-010
                    29 -2.557606966966091E-010
                    30  3.328256774155196E-005
                    31 -9.858078300478054E-005
                    32 -2.868733253195764E-004
                    33  3.099819792685801E-005
                    34  3.090549931168054E-004
                    35 -9.679104821039289E-005
                    36 -7.517344972807233E-005
                    37 -1.844433208426420E-003
                    38 -9.860032213919873E-011
                    39  3.435085017547316E-004
                    40  7.616383152953937E-005
                    41  2.604980212417461E-010
                    42 -1.988208073468198E-003
                    43  4.745248687965739E-003
                    44 -9.777965334805832E-011
                    45  1.334214664642514E-005
                    46 -9.123399595293009E-012
                    47 -2.862070203357144E-011
                    48 -9.534392704183736E-005
                    49  1.170937789871092E-005
                    50 -1.893708654565114E-004
                    51  5.319236480816622E-011
                    52 -3.366018466247839E-010
                    53 -6.782700381897538E-006
                    54  7.483375072013486E-004
                    55  8.349098301460070E-011
                    56 -4.470182550964965E-006
                    57 -7.967899947344601E-005
                    58 -1.748564979812455E-010
                    59 -3.241199824560913E-011
                    60  1.878333195104239E-005
                    61 -1.336926009121768E-004
                    62 -5.248173227812236E-004
                    63 -1.943830560025795E-003
                    64 -9.647061942737628E-005
                    65  2.176900999328948E-003
                    66 -3.023780708308618E-004
                    67 -4.797683576992527E-005
                    68 -5.242713797803615E-011
                    69  3.683685733479681E-004
                    70  8.647265567207718E-004
                    71  4.544461016149799E-011
                    72 -1.780709568242660E-003
                    73  6.327179234640734E-004
                    74  2.617720569578269E-011
                    75 -4.746867016117398E-005
                    76 -7.240687503084455E-012
                    77  1.674756805882348E-011
                    78 -4.688816797292062E-005
                    79 -2.423541001092277E-005
                    80 -1.336197568785108E-004
                    81  7.922507093113810E-011
                    82 -4.689421542853578E-011
                    83  1.807347734201704E-005
                    84 -2.283930685339522E-005
                    85  5.226633528466731E-011
                    86  9.216969713292762E-006
                    87 -4.568150923263695E-005
                    88 -7.460325360015443E-011
                    89 -1.346577925012081E-011
                    90 -2.974788765774059E-005
                    91 -1.562605868039741E-004
                    92 -1.752666264872533E-004
                    93 -5.177917636521801E-004
                    94  1.473218423969114E-004
                    95 -4.399312857744091E-005
                    96  5.706545348040844E-005
                    97 -1.209347731602965E-004
                    98 -4.063645085883336E-011
                    99  3.345502454862104E-004
                   100  3.653077267868534E-004
                   101  3.291143775246875E-011
                   102  6.113233936783099E-004
                   103 -1.657061542394549E-003
                   104 -6.231944281280287E-012
                   105 -1.473471673242693E-005
                   106 -5.342382045481713E-013
                   107  8.408113808081020E-012
                   108 -3.450035557251264E-005
                   109 -1.130733425584514E-005
                   110  7.366632591139830E-005
                   111 -4.691018968552786E-011
                   112 -2.904464723197754E-011
                   113 -1.508664013776151E-004
                   114  1.131370828737477E-004
                   115  4.064262854196199E-011
                   116 -1.751882804087007E-005
                   117 -2.160582912498630E-005
                   118 -5.145751598457026E-011
                   119  4.284367405246506E-012
                   120 -8.391998881254278E-006
                   121 -4.419847948187095E-005
                   122 -2.404468102496715E-004
                   123 -6.687683303845938E-004
                   124  1.716794504810013E-004
                   125  2.828401455131740E-004
                   126 -3.841389102261742E-005
                   127 -2.059077139408531E-004
                   128 -1.207937370500316E-011
                   129  2.346968299485794E-004
                   130  6.377203075758093E-004
                   131 -1.898620337898934E-011
                   132  4.292063887327870E-004
                   133  1.875451035196699E-003
                   134  6.889921907057123E-011
                   135  1.534431869908851E-005
                   136  8.324361815634750E-012
                   137  3.688927895793886E-010
                   138  4.907239868366398E-005
                   139 -4.813546327248442E-006
                   140  2.022589982323145E-004
                   141  1.520096676742433E-011
                   142 -2.383358003843370E-010
                   143  3.902431684098206E-004
                   144  2.020481836992926E-004
                   145 -3.578088246095008E-012
                   146 -1.229718899750879E-005
                   147 -6.292640738300359E-005
                   148  2.195454772894730E-011
                   149  7.513192570935403E-012
                   150 -1.000231012499931E-005
                   151 -5.570560424920847E-005
                   152 -1.332600232585386E-004
                   153 -4.214889885293040E-004
                   154  5.590618113971221E-005
                   155  2.007062329146840E-004
                   156  8.665263109204828E-006
                   157 -1.105219122915735E-006
                   158 -2.601354536722779E-011
                   159 -1.065090913466244E-005
                   160  4.720514040155646E-005
                   161  2.766628282635584E-011
                   162  7.237216965168262E-004
                   163 -3.395039630309054E-004
                   164  7.393899833162416E-011
                   165  2.032300018592490E-006
                   166 -7.143697996240973E-012
                   167  2.828056114324350E-010
                   168  5.252689944845162E-006
                   169  1.324330711097199E-005
                   170  1.075905744823441E-004
                   171 -4.142196112751607E-011
                   172 -1.669286241114347E-010
                   173  4.842030077765226E-005
                   174  3.921200695114501E-005
                   175  5.562060289765531E-012
                   176  4.426589239886742E-006
                   177 -1.423144866089572E-005
                   178  2.090331057400158E-011
                   179 -1.662792739040645E-011
                   180 -2.532922810200444E-005
                   181 -3.079242663564232E-005
                   182 -1.356116933312859E-004
                   183 -4.033351423392963E-004
                   184  3.078429673228368E-005
                   185  2.132821938372719E-004
                   186 -4.449202076524381E-005
                   187 -5.627260100640212E-005
                   188  2.795122353234095E-011
                   189  2.507978068804921E-004
                   190  1.153831047186532E-004
                   191 -2.317076115169657E-011
                   192  1.259158066173554E-003
                   193 -3.062997053608141E-004
                   194 -2.546242928024425E-011
                   195  6.808649879297774E-007
                   196  3.038961848707916E-012
                   197  1.217569025109637E-011
                   198 -2.419102282262352E-006
                   199  3.977734553680090E-006
                   200 -7.200345114173300E-006
                   201 -4.077619911256779E-011
                   202  8.824888120853283E-011
                   203 -6.540915264584935E-005
                   204 -1.913888149435049E-004
                   205 -4.250367304887453E-011
                   206 -9.112847613098972E-006
                   207 -3.760112045070472E-006
                   208 -2.905597635778030E-011
                   209  1.143906931345144E-012
                   210  7.680299771188234E-006
                   211 -3.737247866697240E-006
                   212 -2.072056771527539E-005
                   213  1.148592910552384E-004
                   214  1.420375121873577E-005
                   215  2.628325853054639E-005
                   216 -4.748166353796583E-013
                   217 -1.247126145903535E-003
                   218 -3.966014547813868E-004
                   219 -2.009193380280675E-004
                   220  3.672356433273298E-005
                   221 -1.701493546721316E-011
                   222 -1.537144066872393E-004
                   223 -6.503791590691061E-004
                   224  2.233146807119742E-005
                   225 -5.861630310384798E-005
                   226  1.440939954340588E-011
                   227  8.691601584409159E-005
                   228 -6.255085238553612E-004
                   229 -4.342951066571439E-005
                   230 -1.592108873652678E-005
                   231  9.098607581324884E-012
                   232  5.150860893333131E-005
                   233 -4.485659295485206E-004
                   234  1.473085503062646E-005
                   235 -4.111619376337990E-006
                   236  1.368564058861804E-011
                   237  4.175843460811998E-005
                   238 -3.574829085751109E-004
                   239 -1.020632468159975E-005
                   240 -3.549223655016863E-006
                   241  1.060000661747764E-011
                   242 -6.971711523878197E-005
                   243  8.541388142667089E-005
                   244  4.882179119819843E-008
                   245  2.884290030453105E-005
                   246 -3.481495161581184E-011
 Sym= __2_A__
 Ene=   2.00000000000000     
 Spin= Alpha
 Occup=    1.00000000000000     
                     1  4.816832026372271E-005
                     2  3.324521063612967E-004
                     3 -2.843488600419580E-003
                     4 -1.210927065704791E-004
                     5 -1.325847453533089E-003
                     6  3.022434656481796E-004
                     7 -2.709547333366403E-003
                     8  2.398808164197641E-011
                     9  3.076040631823352E-005
                    10  1.096096032145064E-004
                    11 -2.889123636036301E-011
                    12  5.174925422948620E-005
                    13  3.058492867470379E-004
                    14  8.762361247920508E-011
                    15 -2.732508158432454E-005
                    16 -1.835991203878539E-012
                    17 -8.786963959542032E-012
                    18  4.146226471973374E-005
                    19 -1.951106196652026E-005
                    20  1.123827089851588E-004
                    21  4.246281034311375E-012
                    22  1.535780847937620E-010
                    23 -1.221656023736732E-004
                    24  1.516199519073289E-004
                    25  1.273550669166104E-010
                    26  1.809620857696023E-005
                    27 -9.492400046774328E-005
                    28 -1.217006941560276E-010
                    29  1.567009949584327E-010
                    30  6.600767519747064E-005
                    31 -1.473431865130577E-004
                    32  -1.00089865334207     
                    33 -9.061024559435355E-003
                    34 -2.761317697500195E-003
                    35  8.062789849348259E-003
                    36  1.818514647108466E-004
                    37  3.149252195531516E-003
                    38 -1.692204959143335E-010
                    39  1.071632468105317E-004
                    40 -1.932312005773381E-004
                    41  2.738770719725056E-011
                    42  1.592882002268720E-004
                    43 -3.979789275538899E-003
                    44  4.712200683737351E-010
                    45  5.279496480911817E-004
                    46 -4.443534208679645E-011
                    47  2.168485433795677E-011
                    48  1.943596279676629E-004
                    49 -3.228126217633118E-005
                    50 -5.510922278749344E-004
                    51 -3.933361914486808E-011
                    52  3.403471605073090E-010
                    53  6.600472094087666E-004
                    54  4.007644185794616E-004
                    55 -2.005868823081260E-011
                    56 -1.206052133369436E-005
                    57 -9.894317647833687E-005
                    58  7.641346886466653E-011
                    59  1.814202857142686E-011
                    60  2.438476507830310E-005
                    61 -3.810613249601338E-004
                    62 -1.240198822677178E-002
                    63  2.022685367087153E-003
                    64  2.385118454282552E-004
                    65 -2.704144067957777E-003
                    66 -3.738754516094275E-005
                    67 -1.027066427719076E-004
                    68  9.991001437833700E-011
                    69 -5.267262997732929E-004
                    70 -1.541387319460730E-004
                    71 -2.406977323664981E-010
                    72  2.094519998871461E-003
                    73 -2.711340822804703E-004
                    74 -4.989435259577280E-010
                    75 -3.399933867690215E-005
                    76  2.269925611042681E-011
                    77  7.536634230753105E-012
                    78  5.072785509876060E-006
                    79 -3.583330141311989E-006
                    80  4.291106901365096E-004
                    81 -2.482597355170140E-010
                    82 -1.665231825120314E-010
                    83  6.565079690681194E-004
                    84  2.626197936733955E-004
                    85 -3.572422019964413E-011
                    86 -2.861819178119006E-005
                    87  5.855574451591032E-005
                    88  3.420290921172496E-011
                    89 -2.632307454703607E-011
                    90 -4.365562646907733E-005
                    91 -1.482169312516989E-004
                    92 -1.521550623032805E-002
                    93  2.083266235906740E-003
                    94  2.997014465498737E-004
                    95 -3.169284084152468E-003
                    96 -1.617059160601652E-004
                    97 -1.629975193673796E-004
                    98  8.777900430723724E-011
                    99  9.218738401480696E-004
                   100 -1.763281065885407E-005
                   101 -2.625409731054642E-010
                   102 -1.697537908890694E-003
                   103  9.001001113483736E-006
                   104 -4.849614770235995E-010
                   105 -2.361583456551081E-005
                   106 -1.391163159600407E-011
                   107  1.490877758773131E-011
                   108  6.823786187678562E-006
                   109 -4.319682992981932E-006
                   110  4.203828603030881E-004
                   111  2.268208056723802E-010
                   112 -2.253183685854147E-010
                   113  3.937529248951850E-004
                   114 -2.429048084735217E-004
                   115 -3.720474527210817E-011
                   116  3.107665411352416E-005
                   117  7.286941440065414E-005
                   118  3.982034705256172E-011
                   119  3.509594479947488E-011
                   120  2.667591700511636E-006
                   121 -1.335104851023530E-004
                   122  8.183624249933224E-005
                   123  6.682068426172797E-004
                   124 -2.302221366421627E-004
                   125  1.337655037449383E-004
                   126 -2.689914547539943E-006
                   127  3.850743822059666E-004
                   128 -2.629355778412915E-010
                   129  7.931082813373896E-005
                   130 -6.196753934183826E-004
                   131  6.508244619303335E-010
                   132 -3.759140596035428E-004
                   133 -9.128041507681025E-004
                   134  8.822365803815356E-010
                   135 -1.856127488697878E-005
                   136 -6.310543799597515E-011
                   137  3.833011465697850E-011
                   138 -3.624554284800936E-006
                   139 -4.353417972784055E-005
                   140 -1.297475610758115E-004
                   141  8.054946308132744E-010
                   142 -1.090917584800316E-010
                   143 -2.555297265849518E-004
                   144  1.081216900060618E-004
                   145  1.334757375689242E-010
                   146 -9.080069371410061E-006
                   147  3.685641004056194E-005
                   148  1.014098003481447E-010
                   149  9.207835203264219E-011
                   150  4.334907845725026E-005
                   151 -3.696163202247136E-005
                   152 -9.590324641995922E-005
                   153  6.383774380479607E-004
                   154 -2.300466470421316E-004
                   155  5.076306897074624E-005
                   156  3.656818256489383E-005
                   157  4.176230488846254E-004
                   158 -2.555978372996385E-010
                   159 -1.315072219945692E-004
                   160 -5.509168883282502E-004