[Molden Format]
[Atoms] AU
  N     1    7    -0.0359273400   -4.3001016100    0.0000000100        
  C     2    6     0.0775678500   -1.7674591000   -0.0000000100        
  C     3    6    -2.2571190800   -0.3926626200   -0.0000000100        
  C     4    6     2.3702085900   -0.3237991700   -0.0000000200        
  C     5    6    -2.2619772600    2.1900700800   -0.0000000100        
  C     6    6     2.3150124500    2.2580894100    0.0000000100        
  C     7    6     0.0100184500    3.5448164500    0.0000000100        
  H     8    1    -3.7186087900   -6.9472115500    0.0000000600        
  H     9    1     1.7686532600   -5.0282524400   -0.0000000200        
  H    10    1    -3.9839411700   -1.4490475500   -0.0000000200        
  H    11    1     4.1418421700   -1.3143953800   -0.0000000200        
  H    12    1    -4.0229503900    3.1986484800   -0.0000000300        
  H    13    1     4.0491460400    3.3121027100    0.0000000300        
  H    14    1    -0.0191569900    5.5725266900    0.0000000200        
[5D]
[7F]
[GTO]
  1  0
   s    12 1.00
  0.114200D+05  0.172695D-04
  0.171200D+04  0.134411D-03
  0.389300D+03  0.694561D-03
  0.110000D+03  0.278531D-02
  0.355700D+02  0.863457D-02
  0.125400D+02  0.199805D-01
  0.464400D+01  0.262908D-01
  0.129300D+01 -0.243845D-01
  0.511800D+00 -0.924934D-01
  0.178700D+00 -0.339683D+00
  0.246240D-01  0.345111D+00
  0.112530D-01  0.752750D+00
   s    10 1.00
  0.114200D+05  0.523000D-03
  0.171200D+04  0.404500D-02
  0.389300D+03  0.207750D-01
  0.110000D+03  0.807269D-01
  0.355700D+02  0.233074D+00
  0.125400D+02  0.433501D+00
  0.464400D+01  0.347472D+00
  0.129300D+01  0.412620D-01
  0.511800D+00 -0.850799D-02
  0.178700D+00  0.238400D-02
   s    10 1.00
  0.114200D+05 -0.115000D-03
  0.171200D+04 -0.895000D-03
  0.389300D+03 -0.462400D-02
  0.110000D+03 -0.185280D-01
  0.355700D+02 -0.573390D-01
  0.125400D+02 -0.132076D+00
  0.464400D+01 -0.172510D+00
  0.129300D+01  0.151814D+00
  0.511800D+00  0.599944D+00
  0.178700D+00  0.387462D+00
   s     1 1.00
  0.129300D+01  0.100000D+01
   s     1 1.00
  0.178700D+00  0.100000D+01
   p     5 1.00
  0.266300D+02  0.146700D-01
  0.594800D+01  0.917640D-01
  0.174200D+01  0.298683D+00
  0.555000D+00  0.498487D+00
  0.172500D+00  0.337023D+00
   p     1 1.00
  0.174200D+01  0.100000D+01
   p     1 1.00
  0.555000D+00  0.100000D+01
   d     1 1.00
  0.165400D+01  0.100000D+01
   d     1 1.00
  0.469000D+00  0.100000D+01
   f     1 1.00
  0.109300D+01  0.100000D+01
  
  2  0
   s    10 1.00
  0.823600D+04  0.531000D-03
  0.123500D+04  0.410800D-02
  0.280800D+03  0.210870D-01
  0.792700D+02  0.818530D-01
  0.255900D+02  0.234817D+00
  0.899700D+01  0.434401D+00
  0.331900D+01  0.346129D+00
  0.905900D+00  0.393780D-01
  0.364300D+00 -0.898300D-02
  0.128500D+00  0.238500D-02
   s    10 1.00
  0.823600D+04 -0.113000D-03
  0.123500D+04 -0.878000D-03
  0.280800D+03 -0.454000D-02
  0.792700D+02 -0.181330D-01
  0.255900D+02 -0.557600D-01
  0.899700D+01 -0.126895D+00
  0.331900D+01 -0.170352D+00
  0.905900D+00  0.140382D+00
  0.364300D+00  0.598684D+00
  0.128500D+00  0.395389D+00
   s     1 1.00
  0.905900D+00  0.100000D+01
   s     1 1.00
  0.364300D+00  0.100000D+01
   p     5 1.00
  0.187100D+02  0.140310D-01
  0.413300D+01  0.868660D-01
  0.120000D+01  0.290216D+00
  0.382700D+00  0.501008D+00
  0.120900D+00  0.343406D+00
   p     1 1.00
  0.382700D+00  0.100000D+01
   p     1 1.00
  0.120900D+00  0.100000D+01
   d     1 1.00
  0.109700D+01  0.100000D+01
   d     1 1.00
  0.318000D+00  0.100000D+01
   f     1 1.00
  0.761000D+00  0.100000D+01
  
  3  0
   s    10 1.00
  0.823600D+04  0.531000D-03
  0.123500D+04  0.410800D-02
  0.280800D+03  0.210870D-01
  0.792700D+02  0.818530D-01
  0.255900D+02  0.234817D+00
  0.899700D+01  0.434401D+00
  0.331900D+01  0.346129D+00
  0.905900D+00  0.393780D-01
  0.364300D+00 -0.898300D-02
  0.128500D+00  0.238500D-02
   s    10 1.00
  0.823600D+04 -0.113000D-03
  0.123500D+04 -0.878000D-03
  0.280800D+03 -0.454000D-02
  0.792700D+02 -0.181330D-01
  0.255900D+02 -0.557600D-01
  0.899700D+01 -0.126895D+00
  0.331900D+01 -0.170352D+00
  0.905900D+00  0.140382D+00
  0.364300D+00  0.598684D+00
  0.128500D+00  0.395389D+00
   s     1 1.00
  0.905900D+00  0.100000D+01
   s     1 1.00
  0.364300D+00  0.100000D+01
   p     5 1.00
  0.187100D+02  0.140310D-01
  0.413300D+01  0.868660D-01
  0.120000D+01  0.290216D+00
  0.382700D+00  0.501008D+00
  0.120900D+00  0.343406D+00
   p     1 1.00
  0.382700D+00  0.100000D+01
   p     1 1.00
  0.120900D+00  0.100000D+01
   d     1 1.00
  0.109700D+01  0.100000D+01
   d     1 1.00
  0.318000D+00  0.100000D+01
   f     1 1.00
  0.761000D+00  0.100000D+01
  
  4  0
   s    10 1.00
  0.823600D+04  0.531000D-03
  0.123500D+04  0.410800D-02
  0.280800D+03  0.210870D-01
  0.792700D+02  0.818530D-01
  0.255900D+02  0.234817D+00
  0.899700D+01  0.434401D+00
  0.331900D+01  0.346129D+00
  0.905900D+00  0.393780D-01
  0.364300D+00 -0.898300D-02
  0.128500D+00  0.238500D-02
   s    10 1.00
  0.823600D+04 -0.113000D-03
  0.123500D+04 -0.878000D-03
  0.280800D+03 -0.454000D-02
  0.792700D+02 -0.181330D-01
  0.255900D+02 -0.557600D-01
  0.899700D+01 -0.126895D+00
  0.331900D+01 -0.170352D+00
  0.905900D+00  0.140382D+00
  0.364300D+00  0.598684D+00
  0.128500D+00  0.395389D+00
   s     1 1.00
  0.905900D+00  0.100000D+01
   s     1 1.00
  0.364300D+00  0.100000D+01
   p     5 1.00
  0.187100D+02  0.140310D-01
  0.413300D+01  0.868660D-01
  0.120000D+01  0.290216D+00
  0.382700D+00  0.501008D+00
  0.120900D+00  0.343406D+00
   p     1 1.00
  0.382700D+00  0.100000D+01
   p     1 1.00
  0.120900D+00  0.100000D+01
   d     1 1.00
  0.109700D+01  0.100000D+01
   d     1 1.00
  0.318000D+00  0.100000D+01
   f     1 1.00
  0.761000D+00  0.100000D+01
  
  5  0
   s    10 1.00
  0.823600D+04  0.531000D-03
  0.123500D+04  0.410800D-02
  0.280800D+03  0.210870D-01
  0.792700D+02  0.818530D-01
  0.255900D+02  0.234817D+00
  0.899700D+01  0.434401D+00
  0.331900D+01  0.346129D+00
  0.905900D+00  0.393780D-01
  0.364300D+00 -0.898300D-02
  0.128500D+00  0.238500D-02
   s    10 1.00
  0.823600D+04 -0.113000D-03
  0.123500D+04 -0.878000D-03
  0.280800D+03 -0.454000D-02
  0.792700D+02 -0.181330D-01
  0.255900D+02 -0.557600D-01
  0.899700D+01 -0.126895D+00
  0.331900D+01 -0.170352D+00
  0.905900D+00  0.140382D+00
  0.364300D+00  0.598684D+00
  0.128500D+00  0.395389D+00
   s     1 1.00
  0.905900D+00  0.100000D+01
   s     1 1.00
  0.364300D+00  0.100000D+01
   p     5 1.00
  0.187100D+02  0.140310D-01
  0.413300D+01  0.868660D-01
  0.120000D+01  0.290216D+00
  0.382700D+00  0.501008D+00
  0.120900D+00  0.343406D+00
   p     1 1.00
  0.382700D+00  0.100000D+01
   p     1 1.00
  0.120900D+00  0.100000D+01
   d     1 1.00
  0.109700D+01  0.100000D+01
   d     1 1.00
  0.318000D+00  0.100000D+01
   f     1 1.00
  0.761000D+00  0.100000D+01
  
  6  0
   s    10 1.00
  0.823600D+04  0.531000D-03
  0.123500D+04  0.410800D-02
  0.280800D+03  0.210870D-01
  0.792700D+02  0.818530D-01
  0.255900D+02  0.234817D+00
  0.899700D+01  0.434401D+00
  0.331900D+01  0.346129D+00
  0.905900D+00  0.393780D-01
  0.364300D+00 -0.898300D-02
  0.128500D+00  0.238500D-02
   s    10 1.00
  0.823600D+04 -0.113000D-03
  0.123500D+04 -0.878000D-03
  0.280800D+03 -0.454000D-02
  0.792700D+02 -0.181330D-01
  0.255900D+02 -0.557600D-01
  0.899700D+01 -0.126895D+00
  0.331900D+01 -0.170352D+00
  0.905900D+00  0.140382D+00
  0.364300D+00  0.598684D+00
  0.128500D+00  0.395389D+00
   s     1 1.00
  0.905900D+00  0.100000D+01
   s     1 1.00
  0.364300D+00  0.100000D+01
   p     5 1.00
  0.187100D+02  0.140310D-01
  0.413300D+01  0.868660D-01
  0.120000D+01  0.290216D+00
  0.382700D+00  0.501008D+00
  0.120900D+00  0.343406D+00
   p     1 1.00
  0.382700D+00  0.100000D+01
   p     1 1.00
  0.120900D+00  0.100000D+01
   d     1 1.00
  0.109700D+01  0.100000D+01
   d     1 1.00
  0.318000D+00  0.100000D+01
   f     1 1.00
  0.761000D+00  0.100000D+01
  
  7  0
   s    10 1.00
  0.823600D+04  0.531000D-03
  0.123500D+04  0.410800D-02
  0.280800D+03  0.210870D-01
  0.792700D+02  0.818530D-01
  0.255900D+02  0.234817D+00
  0.899700D+01  0.434401D+00
  0.331900D+01  0.346129D+00
  0.905900D+00  0.393780D-01
  0.364300D+00 -0.898300D-02
  0.128500D+00  0.238500D-02
   s    10 1.00
  0.823600D+04 -0.113000D-03
  0.123500D+04 -0.878000D-03
  0.280800D+03 -0.454000D-02
  0.792700D+02 -0.181330D-01
  0.255900D+02 -0.557600D-01
  0.899700D+01 -0.126895D+00
  0.331900D+01 -0.170352D+00
  0.905900D+00  0.140382D+00
  0.364300D+00  0.598684D+00
  0.128500D+00  0.395389D+00
   s     1 1.00
  0.905900D+00  0.100000D+01
   s     1 1.00
  0.364300D+00  0.100000D+01
   p     5 1.00
  0.187100D+02  0.140310D-01
  0.413300D+01  0.868660D-01
  0.120000D+01  0.290216D+00
  0.382700D+00  0.501008D+00
  0.120900D+00  0.343406D+00
   p     1 1.00
  0.382700D+00  0.100000D+01
   p     1 1.00
  0.120900D+00  0.100000D+01
   d     1 1.00
  0.109700D+01  0.100000D+01
   d     1 1.00
  0.318000D+00  0.100000D+01
   f     1 1.00
  0.761000D+00  0.100000D+01
  
  8  0
   s     4 1.00
  0.130100D+02  0.196850D-01
  0.196200D+01  0.137977D+00
  0.444600D+00  0.478148D+00
  0.122000D+00  0.501240D+00
   s     1 1.00
  0.122000D+00  0.100000D+01
   p     1 1.00
  0.727000D+00  0.100000D+01
  
  9  0
   s     4 1.00
  0.130100D+02  0.196850D-01
  0.196200D+01  0.137977D+00
  0.444600D+00  0.478148D+00
  0.122000D+00  0.501240D+00
   s     1 1.00
  0.122000D+00  0.100000D+01
   p     1 1.00
  0.727000D+00  0.100000D+01
  
 10  0
   s     4 1.00
  0.130100D+02  0.196850D-01
  0.196200D+01  0.137977D+00
  0.444600D+00  0.478148D+00
  0.122000D+00  0.501240D+00
   s     1 1.00
  0.122000D+00  0.100000D+01
   p     1 1.00
  0.727000D+00  0.100000D+01
  
 11  0
   s     4 1.00
  0.130100D+02  0.196850D-01
  0.196200D+01  0.137977D+00
  0.444600D+00  0.478148D+00
  0.122000D+00  0.501240D+00
   s     1 1.00
  0.122000D+00  0.100000D+01
   p     1 1.00
  0.727000D+00  0.100000D+01
  
 12  0
   s     4 1.00
  0.130100D+02  0.196850D-01
  0.196200D+01  0.137977D+00
  0.444600D+00  0.478148D+00
  0.122000D+00  0.501240D+00
   s     1 1.00
  0.122000D+00  0.100000D+01
   p     1 1.00
  0.727000D+00  0.100000D+01
  
 13  0
   s     4 1.00
  0.130100D+02  0.196850D-01
  0.196200D+01  0.137977D+00
  0.444600D+00  0.478148D+00
  0.122000D+00  0.501240D+00
   s     1 1.00
  0.122000D+00  0.100000D+01
   p     1 1.00
  0.727000D+00  0.100000D+01
  
 14  0
   s     4 1.00
  0.130100D+02  0.196850D-01
  0.196200D+01  0.137977D+00
  0.444600D+00  0.478148D+00
  0.122000D+00  0.501240D+00
   s     1 1.00
  0.122000D+00  0.100000D+01
   p     1 1.00
  0.727000D+00  0.100000D+01
  
[MO]
 Sym= __1_A__
 Ene=  0.000000000000000E+000
 Spin= Alpha
 Occup=    2.00000000000000     
                     1  8.909030008166137E-005
                     2  0.998381090937781     
                     3 -4.080505995534649E-003
                     4  1.850611745395898E-003
                     5  6.486961755533894E-003
                     6  2.709875673509110E-003
                     7  5.536684183043290E-003
                     8 -1.714288165714258E-010
                     9 -7.215765904067114E-004
                    10 -7.207378026546320E-004
                    11  1.968968061504483E-010
                    12 -2.438766555074929E-003
                    13 -1.967612508296391E-003
                    14 -1.778938522675116E-010
                    15 -2.633663481400710E-005
                    16  5.652111763473646E-011
                    17  8.673887054533170E-012
                    18 -1.475841013777981E-004
                    19 -6.028979181521325E-005
                    20  1.125707353096148E-004
                    21 -6.085217904019287E-011
                    22 -2.840126108549252E-010
                    23 -1.656120599252040E-004
                    24  4.709645009448491E-004
                    25 -2.937769158411725E-010
                    26 -2.864532425737212E-006
                    27 -4.207074899833445E-005
                    28  1.667768226094376E-010
                    29 -2.557606966937735E-010
                    30  3.328256774209955E-005
                    31 -9.858078300489337E-005
                    32 -2.868733253576856E-004
                    33  3.099819797330609E-005
                    34  3.090549931163512E-004
                    35 -9.679104821384157E-005
                    36 -7.517344962898710E-005
                    37 -1.844433208427971E-003
                    38 -9.860032213468031E-011
                    39  3.435085017501529E-004
                    40  7.616383153246900E-005
                    41  2.604980212315371E-010
                    42 -1.988208073496857E-003
                    43  4.745248687971712E-003
                    44 -9.777965334629426E-011
                    45  1.334214664583345E-005
                    46 -9.123399595133143E-012
                    47 -2.862070203246309E-011
                    48 -9.534392704115535E-005
                    49  1.170937790116609E-005
                    50 -1.893708654582246E-004
                    51  5.319236480732178E-011
                    52 -3.366018466155967E-010
                    53 -6.782700379800108E-006
                    54  7.483375072063213E-004
                    55  8.349098301075279E-011
                    56 -4.470182551918346E-006
                    57 -7.967899947355416E-005
                    58 -1.748564979763460E-010
                    59 -3.241199824617076E-011
                    60  1.878333195106539E-005
                    61 -1.336926009114587E-004
                    62 -5.248173227791326E-004
                    63 -1.943830560058381E-003
                    64 -9.647061942646046E-005
                    65  2.176900999331051E-003
                    66 -3.023780708763659E-004
                    67 -4.797683575978332E-005
                    68 -5.242713797795017E-011
                    69  3.683685733513750E-004
                    70  8.647265567223774E-004
                    71  4.544461015974434E-011
                    72 -1.780709568244014E-003
                    73  6.327179234653433E-004
                    74  2.617720569282128E-011
                    75 -4.746867016065637E-005
                    76 -7.240687502989121E-012
                    77  1.674756805897231E-011
                    78 -4.688816797283054E-005
                    79 -2.423541000919900E-005
                    80 -1.336197568775150E-004
                    81  7.922507092966601E-011
                    82 -4.689421542979947E-011
                    83  1.807347734254441E-005
                    84 -2.283930685182307E-005
                    85  5.226633528462029E-011
                    86  9.216969713665577E-006
                    87 -4.568150923282204E-005
                    88 -7.460325359982850E-011
                    89 -1.346577925005725E-011
                    90 -2.974788765791936E-005
                    91 -1.562605868034122E-004
                    92 -1.752666264880196E-004
                    93 -5.177917636152169E-004
                    94  1.473218423965992E-004
                    95 -4.399312858104728E-005
                    96  5.706545343459280E-005
                    97 -1.209347732489468E-004
                    98 -4.063645085882490E-011
                    99  3.345502454892927E-004
                   100  3.653077267955172E-004
                   101  3.291143775135392E-011
                   102  6.113233936858774E-004
                   103 -1.657061542378244E-003
                   104 -6.231944284143357E-012
                   105 -1.473471673297099E-005
                   106 -5.342382046872082E-013
                   107  8.408113808304488E-012
                   108 -3.450035557063516E-005
                   109 -1.130733425377846E-005
                   110  7.366632591066031E-005
                   111 -4.691018968495330E-011
                   112 -2.904464723530592E-011
                   113 -1.508664013783102E-004
                   114  1.131370828766776E-004
                   115  4.064262854207967E-011
                   116 -1.751882804039189E-005
                   117 -2.160582912424465E-005
                   118 -5.145751598389764E-011
                   119  4.284367405528900E-012
                   120 -8.391998881677143E-006
                   121 -4.419847948228456E-005
                   122 -2.404468102497990E-004
                   123 -6.687683303807933E-004
                   124  1.716794504810021E-004
                   125  2.828401455138334E-004
                   126 -3.841389101346662E-005
                   127 -2.059077139324775E-004
                   128 -1.207937370518697E-011
                   129  2.346968299478828E-004
                   130  6.377203075757259E-004
                   131 -1.898620337809223E-011
                   132  4.292063887359954E-004
                   133  1.875451035200428E-003
                   134  6.889921907234529E-011
                   135  1.534431869906429E-005
                   136  8.324361815653312E-012
                   137  3.688927895794314E-010
                   138  4.907239868389798E-005
                   139 -4.813546326341920E-006
                   140  2.022589982322770E-004
                   141  1.520096676762676E-011
                   142 -2.383358003856373E-010
                   143  3.902431684110834E-004
                   144  2.020481837008105E-004
                   145 -3.578088245980354E-012
                   146 -1.229718899753669E-005
                   147 -6.292640738313825E-005
                   148  2.195454772870014E-011
                   149  7.513192570945644E-012
                   150 -1.000231012523989E-005
                   151 -5.570560424909632E-005
                   152 -1.332600232572507E-004
                   153 -4.214889885590678E-004
                   154  5.590618114065066E-005
                   155  2.007062329144064E-004
                   156  8.665263116355878E-006
                   157 -1.105219070893765E-006
                   158 -2.601354536669234E-011
                   159 -1.065090913564240E-005
                   160  4.720514039881061E-005
                   161  2.766628282815044E-011
                   162  7.237216965205401E-004
                   163 -3.395039630397363E-004
                   164  7.393899833384067E-011
                   165  2.032300019169120E-006
                   166 -7.143697996267739E-012
                   167  2.828056114324015E-010
                   168  5.252689946563650E-006
                   169  1.324330711195705E-005
                   170  1.075905744833629E-004
                   171 -4.142196112762204E-011
                   172 -1.669286241134526E-010
                   173  4.842030077912546E-005
                   174  3.921200695187589E-005
                   175  5.562060290039100E-012
                   176  4.426589239849653E-006
                   177 -1.423144866128717E-005
                   178  2.090331057360894E-011
                   179 -1.662792739048984E-011
                   180 -2.532922810222043E-005
                   181 -3.079242663630484E-005
                   182 -1.356116933317040E-004
                   183 -4.033351423315533E-004
                   184  3.078429673214137E-005
                   185  2.132821938368029E-004
                   186 -4.449202077231162E-005
                   187 -5.627260101529779E-005
                   188  2.795122353243295E-011
                   189  2.507978068814656E-004
                   190  1.153831047198991E-004
                   191 -2.317076115135687E-011
                   192  1.259158066178446E-003
                   193 -3.062997053638983E-004
                   194 -2.546242928148705E-011
                   195  6.808649878527192E-007
                   196  3.038961848735421E-012
                   197  1.217569025097973E-011
                   198 -2.419102281396110E-006
                   199  3.977734554148994E-006
                   200 -7.200345114754992E-006
                   201 -4.077619911265648E-011
                   202  8.824888120912935E-011
                   203 -6.540915264541565E-005
                   204 -1.913888149431025E-004
                   205 -4.250367304888559E-011
                   206 -9.112847613111304E-006
                   207 -3.760112045029629E-006
                   208 -2.905597635776778E-011
                   209  1.143906931400431E-012
                   210  7.680299771058755E-006
                   211 -3.737247866947635E-006
                   212 -2.072056771471973E-005
                   213  1.148592910567353E-004
                   214  1.420375121885842E-005
                   215  2.628325853067872E-005
                   216 -4.748166354005929E-013
                   217 -1.247126145893977E-003
                   218 -3.966014547894064E-004
                   219 -2.009193380289612E-004
                   220  3.672356433381702E-005
                   221 -1.701493546610173E-011
                   222 -1.537144066625197E-004
                   223 -6.503791590749218E-004
                   224  2.233146807182489E-005
                   225 -5.861630310294017E-005
                   226  1.440939954311281E-011
                   227  8.691601585752773E-005
                   228 -6.255085238646882E-004
                   229 -4.342951066760444E-005
                   230 -1.592108873707539E-005
                   231  9.098607580896933E-012
                   232  5.150860892726657E-005
                   233 -4.485659295490589E-004
                   234  1.473085503047647E-005
                   235 -4.111619376178282E-006
                   236  1.368564058872887E-011
                   237  4.175843463348687E-005
                   238 -3.574829085800663E-004
                   239 -1.020632468281484E-005
                   240 -3.549223654956974E-006
                   241  1.060000661756590E-011
                   242 -6.971711524866869E-005
                   243  8.541388142871459E-005
                   244  4.882179115819578E-008
                   245  2.884290030496638E-005
                   246 -3.481495161595580E-011
 Sym= __2_A__
 Ene=  0.000000000000000E+000
 Spin= Alpha
 Occup=    2.00000000000000     
                     1  4.816832026414117E-005
                     2  3.324521063226158E-004
                     3 -2.843488600400121E-003
                     4 -1.210927065711409E-004
                     5 -1.325847453538493E-003
                     6  3.022434656517375E-004
                     7 -2.709547333357863E-003
                     8  2.398808164077019E-011
                     9  3.076040631929445E-005
                    10  1.096096032150832E-004
                    11 -2.889123635953488E-011
                    12  5.174925422850036E-005
                    13  3.058492867477344E-004
                    14  8.762361247845141E-011
                    15 -2.732508158473726E-005
                    16 -1.835991203660411E-012
                    17 -8.786963959489404E-012
                    18  4.146226471949020E-005
                    19 -1.951106196662387E-005
                    20  1.123827089840648E-004
                    21  4.246281033134326E-012
                    22  1.535780847923784E-010
                    23 -1.221656023758446E-004
                    24  1.516199519069269E-004
                    25  1.273550669122516E-010
                    26  1.809620857693836E-005
                    27 -9.492400046815767E-005
                    28 -1.217006941566240E-010
                    29  1.567009949546726E-010
                    30  6.600767519724941E-005
                    31 -1.473431865134055E-004
                    32  -1.00089865334206     
                    33 -9.061024559320769E-003
                    34 -2.761317697500470E-003
                    35  8.062789849336562E-003
                    36  1.818514647118434E-004
                    37  3.149252195554152E-003
                    38 -1.692204959147907E-010
                    39  1.071632468147105E-004
                    40 -1.932312005749813E-004
                    41  2.738770719887323E-011
                    42  1.592882002194134E-004
                    43 -3.979789275527668E-003
                    44  4.712200683726000E-010
                    45  5.279496480894597E-004
                    46 -4.443534208698003E-011
                    47  2.168485433776971E-011
                    48  1.943596279701809E-004
                    49 -3.228126217597563E-005
                    50 -5.510922278781372E-004
                    51 -3.933361914305813E-011
                    52  3.403471605048545E-010
                    53  6.600472094090884E-004
                    54  4.007644185776816E-004
                    55 -2.005868823013018E-011
                    56 -1.206052133341656E-005
                    57 -9.894317647866095E-005
                    58  7.641346886340484E-011
                    59  1.814202857028196E-011
                    60  2.438476507856173E-005
                    61 -3.810613249582127E-004
                    62 -1.240198822921020E-002
                    63  2.022685367097040E-003
                    64  2.385118454210359E-004
                    65 -2.704144067937099E-003
                    66 -3.738754515745253E-005
                    67 -1.027066428681763E-004
                    68  9.991001437798026E-011
                    69 -5.267262997703571E-004
                    70 -1.541387319340158E-004
                    71 -2.406977323660912E-010
                    72  2.094519998852337E-003
                    73 -2.711340822547149E-004
                    74 -4.989435259570258E-010
                    75 -3.399933867640683E-005
                    76  2.269925611020518E-011
                    77  7.536634230925093E-012
                    78  5.072785513129708E-006
                    79 -3.583330141383873E-006
                    80  4.291106901351704E-004
                    81 -2.482597355159777E-010
                    82 -1.665231825134613E-010
                    83  6.565079690662540E-004
                    84  2.626197936669279E-004
                    85 -3.572422019971250E-011
                    86 -2.861819178165532E-005
                    87  5.855574451646366E-005
                    88  3.420290921165050E-011
                    89 -2.632307454755729E-011
                    90 -4.365562646890066E-005
                    91 -1.482169312514893E-004
                    92 -1.521550622867049E-002
                    93  2.083266235950397E-003
                    94  2.997014465545823E-004
                    95 -3.169284084166643E-003
                    96 -1.617059160715967E-004
                    97 -1.629975194484144E-004
                    98  8.777900430775009E-011
                    99  9.218738401475363E-004
                   100 -1.763281064988570E-005
                   101 -2.625409731061934E-010
                   102 -1.697537908879241E-003
                   103  9.001001130744442E-006
                   104 -4.849614770233853E-010
                   105 -2.361583456675878E-005
                   106 -1.391163159613029E-011
                   107  1.490877758757548E-011
                   108  6.823786190013474E-006
                   109 -4.319682992163149E-006
                   110  4.203828603032693E-004
                   111  2.268208056722315E-010
                   112 -2.253183685855952E-010
                   113  3.937529248946286E-004
                   114 -2.429048084712414E-004
                   115 -3.720474527212978E-011
                   116  3.107665411358899E-005
                   117  7.286941440123504E-005
                   118  3.982034705283970E-011
                   119  3.509594479965143E-011
                   120  2.667591700394556E-006
                   121 -1.335104851030928E-004
                   122  8.183624237265764E-005
                   123  6.682068425775488E-004
                   124 -2.302221366403730E-004
                   125  1.337655037416925E-004
                   126 -2.689914548006838E-006
                   127  3.850743822702525E-004
                   128 -2.629355778412015E-010
                   129  7.931082813504017E-005
                   130 -6.196753934187246E-004
                   131  6.508244619309302E-010
                   132 -3.759140595996350E-004
                   133 -9.128041507695296E-004
                   134  8.822365803828038E-010
                   135 -1.856127488629004E-005
                   136 -6.310543799604799E-011
                   137  3.833011465709144E-011
                   138 -3.624554282890338E-006
                   139 -4.353417972777672E-005
                   140 -1.297475610738975E-004
                   141  8.054946308140102E-010
                   142 -1.090917584810014E-010
                   143 -2.555297265813458E-004
                   144  1.081216900038346E-004
                   145  1.334757375691077E-010
                   146 -9.080069371279523E-006
                   147  3.685641004023670E-005
                   148  1.014098003481760E-010
                   149  9.207835203267785E-011
                   150  4.334907845725874E-005
                   151 -3.696163202302142E-005
                   152 -9.590324649476300E-005
                   153  6.383774380174710E-004
                   154 -2.300466470418206E-004
                   155  5.076306897559748E-005
                   156  3.656818257106620E-005
                   157  4.176230489365300E-004
                   158 -2.555978372990719E-010
                   159 -1.315072219970916E-004
                   160 -5.509168883307591E-004