[Molden Format]
[Atoms] AU
  N     1    7    -0.0359273400   -4.3001016100    0.0000000100        
  C     2    6     0.0775678500   -1.7674591000   -0.0000000100        
  C     3    6    -2.2571190800   -0.3926626200   -0.0000000100        
  C     4    6     2.3702085900   -0.3237991700   -0.0000000200        
  C     5    6    -2.2619772600    2.1900700800   -0.0000000100        
  C     6    6     2.3150124500    2.2580894100    0.0000000100        
  C     7    6     0.0100184500    3.5448164500    0.0000000100        
  H     8    1    -3.7186087900   -6.9472115500    0.0000000600        
  H     9    1     1.7686532600   -5.0282524400   -0.0000000200        
  H    10    1    -3.9839411700   -1.4490475500   -0.0000000200        
  H    11    1     4.1418421700   -1.3143953800   -0.0000000200        
  H    12    1    -4.0229503900    3.1986484800   -0.0000000300        
  H    13    1     4.0491460400    3.3121027100    0.0000000300        
  H    14    1    -0.0191569900    5.5725266900    0.0000000200        
[5D]
[7F]
[GTO]
  1  0
   s    12 1.00
  0.114200D+05  0.172695D-04
  0.171200D+04  0.134411D-03
  0.389300D+03  0.694561D-03
  0.110000D+03  0.278531D-02
  0.355700D+02  0.863457D-02
  0.125400D+02  0.199805D-01
  0.464400D+01  0.262908D-01
  0.129300D+01 -0.243845D-01
  0.511800D+00 -0.924934D-01
  0.178700D+00 -0.339683D+00
  0.246240D-01  0.345111D+00
  0.112530D-01  0.752750D+00
   s    10 1.00
  0.114200D+05  0.523000D-03
  0.171200D+04  0.404500D-02
  0.389300D+03  0.207750D-01
  0.110000D+03  0.807269D-01
  0.355700D+02  0.233074D+00
  0.125400D+02  0.433501D+00
  0.464400D+01  0.347472D+00
  0.129300D+01  0.412620D-01
  0.511800D+00 -0.850799D-02
  0.178700D+00  0.238400D-02
   s    10 1.00
  0.114200D+05 -0.115000D-03
  0.171200D+04 -0.895000D-03
  0.389300D+03 -0.462400D-02
  0.110000D+03 -0.185280D-01
  0.355700D+02 -0.573390D-01
  0.125400D+02 -0.132076D+00
  0.464400D+01 -0.172510D+00
  0.129300D+01  0.151814D+00
  0.511800D+00  0.599944D+00
  0.178700D+00  0.387462D+00
   s     1 1.00
  0.129300D+01  0.100000D+01
   s     1 1.00
  0.178700D+00  0.100000D+01
   p     5 1.00
  0.266300D+02  0.146700D-01
  0.594800D+01  0.917640D-01
  0.174200D+01  0.298683D+00
  0.555000D+00  0.498487D+00
  0.172500D+00  0.337023D+00
   p     1 1.00
  0.174200D+01  0.100000D+01
   p     1 1.00
  0.555000D+00  0.100000D+01
   d     1 1.00
  0.165400D+01  0.100000D+01
   d     1 1.00
  0.469000D+00  0.100000D+01
   f     1 1.00
  0.109300D+01  0.100000D+01
  
  2  0
   s    10 1.00
  0.823600D+04  0.531000D-03
  0.123500D+04  0.410800D-02
  0.280800D+03  0.210870D-01
  0.792700D+02  0.818530D-01
  0.255900D+02  0.234817D+00
  0.899700D+01  0.434401D+00
  0.331900D+01  0.346129D+00
  0.905900D+00  0.393780D-01
  0.364300D+00 -0.898300D-02
  0.128500D+00  0.238500D-02
   s    10 1.00
  0.823600D+04 -0.113000D-03
  0.123500D+04 -0.878000D-03
  0.280800D+03 -0.454000D-02
  0.792700D+02 -0.181330D-01
  0.255900D+02 -0.557600D-01
  0.899700D+01 -0.126895D+00
  0.331900D+01 -0.170352D+00
  0.905900D+00  0.140382D+00
  0.364300D+00  0.598684D+00
  0.128500D+00  0.395389D+00
   s     1 1.00
  0.905900D+00  0.100000D+01
   s     1 1.00
  0.364300D+00  0.100000D+01
   p     5 1.00
  0.187100D+02  0.140310D-01
  0.413300D+01  0.868660D-01
  0.120000D+01  0.290216D+00
  0.382700D+00  0.501008D+00
  0.120900D+00  0.343406D+00
   p     1 1.00
  0.382700D+00  0.100000D+01
   p     1 1.00
  0.120900D+00  0.100000D+01
   d     1 1.00
  0.109700D+01  0.100000D+01
   d     1 1.00
  0.318000D+00  0.100000D+01
   f     1 1.00
  0.761000D+00  0.100000D+01
  
  3  0
   s    10 1.00
  0.823600D+04  0.531000D-03
  0.123500D+04  0.410800D-02
  0.280800D+03  0.210870D-01
  0.792700D+02  0.818530D-01
  0.255900D+02  0.234817D+00
  0.899700D+01  0.434401D+00
  0.331900D+01  0.346129D+00
  0.905900D+00  0.393780D-01
  0.364300D+00 -0.898300D-02
  0.128500D+00  0.238500D-02
   s    10 1.00
  0.823600D+04 -0.113000D-03
  0.123500D+04 -0.878000D-03
  0.280800D+03 -0.454000D-02
  0.792700D+02 -0.181330D-01
  0.255900D+02 -0.557600D-01
  0.899700D+01 -0.126895D+00
  0.331900D+01 -0.170352D+00
  0.905900D+00  0.140382D+00
  0.364300D+00  0.598684D+00
  0.128500D+00  0.395389D+00
   s     1 1.00
  0.905900D+00  0.100000D+01
   s     1 1.00
  0.364300D+00  0.100000D+01
   p     5 1.00
  0.187100D+02  0.140310D-01
  0.413300D+01  0.868660D-01
  0.120000D+01  0.290216D+00
  0.382700D+00  0.501008D+00
  0.120900D+00  0.343406D+00
   p     1 1.00
  0.382700D+00  0.100000D+01
   p     1 1.00
  0.120900D+00  0.100000D+01
   d     1 1.00
  0.109700D+01  0.100000D+01
   d     1 1.00
  0.318000D+00  0.100000D+01
   f     1 1.00
  0.761000D+00  0.100000D+01
  
  4  0
   s    10 1.00
  0.823600D+04  0.531000D-03
  0.123500D+04  0.410800D-02
  0.280800D+03  0.210870D-01
  0.792700D+02  0.818530D-01
  0.255900D+02  0.234817D+00
  0.899700D+01  0.434401D+00
  0.331900D+01  0.346129D+00
  0.905900D+00  0.393780D-01
  0.364300D+00 -0.898300D-02
  0.128500D+00  0.238500D-02
   s    10 1.00
  0.823600D+04 -0.113000D-03
  0.123500D+04 -0.878000D-03
  0.280800D+03 -0.454000D-02
  0.792700D+02 -0.181330D-01
  0.255900D+02 -0.557600D-01
  0.899700D+01 -0.126895D+00
  0.331900D+01 -0.170352D+00
  0.905900D+00  0.140382D+00
  0.364300D+00  0.598684D+00
  0.128500D+00  0.395389D+00
   s     1 1.00
  0.905900D+00  0.100000D+01
   s     1 1.00
  0.364300D+00  0.100000D+01
   p     5 1.00
  0.187100D+02  0.140310D-01
  0.413300D+01  0.868660D-01
  0.120000D+01  0.290216D+00
  0.382700D+00  0.501008D+00
  0.120900D+00  0.343406D+00
   p     1 1.00
  0.382700D+00  0.100000D+01
   p     1 1.00
  0.120900D+00  0.100000D+01
   d     1 1.00
  0.109700D+01  0.100000D+01
   d     1 1.00
  0.318000D+00  0.100000D+01
   f     1 1.00
  0.761000D+00  0.100000D+01
  
  5  0
   s    10 1.00
  0.823600D+04  0.531000D-03
  0.123500D+04  0.410800D-02
  0.280800D+03  0.210870D-01
  0.792700D+02  0.818530D-01
  0.255900D+02  0.234817D+00
  0.899700D+01  0.434401D+00
  0.331900D+01  0.346129D+00
  0.905900D+00  0.393780D-01
  0.364300D+00 -0.898300D-02
  0.128500D+00  0.238500D-02
   s    10 1.00
  0.823600D+04 -0.113000D-03
  0.123500D+04 -0.878000D-03
  0.280800D+03 -0.454000D-02
  0.792700D+02 -0.181330D-01
  0.255900D+02 -0.557600D-01
  0.899700D+01 -0.126895D+00
  0.331900D+01 -0.170352D+00
  0.905900D+00  0.140382D+00
  0.364300D+00  0.598684D+00
  0.128500D+00  0.395389D+00
   s     1 1.00
  0.905900D+00  0.100000D+01
   s     1 1.00
  0.364300D+00  0.100000D+01
   p     5 1.00
  0.187100D+02  0.140310D-01
  0.413300D+01  0.868660D-01
  0.120000D+01  0.290216D+00
  0.382700D+00  0.501008D+00
  0.120900D+00  0.343406D+00
   p     1 1.00
  0.382700D+00  0.100000D+01
   p     1 1.00
  0.120900D+00  0.100000D+01
   d     1 1.00
  0.109700D+01  0.100000D+01
   d     1 1.00
  0.318000D+00  0.100000D+01
   f     1 1.00
  0.761000D+00  0.100000D+01
  
  6  0
   s    10 1.00
  0.823600D+04  0.531000D-03
  0.123500D+04  0.410800D-02
  0.280800D+03  0.210870D-01
  0.792700D+02  0.818530D-01
  0.255900D+02  0.234817D+00
  0.899700D+01  0.434401D+00
  0.331900D+01  0.346129D+00
  0.905900D+00  0.393780D-01
  0.364300D+00 -0.898300D-02
  0.128500D+00  0.238500D-02
   s    10 1.00
  0.823600D+04 -0.113000D-03
  0.123500D+04 -0.878000D-03
  0.280800D+03 -0.454000D-02
  0.792700D+02 -0.181330D-01
  0.255900D+02 -0.557600D-01
  0.899700D+01 -0.126895D+00
  0.331900D+01 -0.170352D+00
  0.905900D+00  0.140382D+00
  0.364300D+00  0.598684D+00
  0.128500D+00  0.395389D+00
   s     1 1.00
  0.905900D+00  0.100000D+01
   s     1 1.00
  0.364300D+00  0.100000D+01
   p     5 1.00
  0.187100D+02  0.140310D-01
  0.413300D+01  0.868660D-01
  0.120000D+01  0.290216D+00
  0.382700D+00  0.501008D+00
  0.120900D+00  0.343406D+00
   p     1 1.00
  0.382700D+00  0.100000D+01
   p     1 1.00
  0.120900D+00  0.100000D+01
   d     1 1.00
  0.109700D+01  0.100000D+01
   d     1 1.00
  0.318000D+00  0.100000D+01
   f     1 1.00
  0.761000D+00  0.100000D+01
  
  7  0
   s    10 1.00
  0.823600D+04  0.531000D-03
  0.123500D+04  0.410800D-02
  0.280800D+03  0.210870D-01
  0.792700D+02  0.818530D-01
  0.255900D+02  0.234817D+00
  0.899700D+01  0.434401D+00
  0.331900D+01  0.346129D+00
  0.905900D+00  0.393780D-01
  0.364300D+00 -0.898300D-02
  0.128500D+00  0.238500D-02
   s    10 1.00
  0.823600D+04 -0.113000D-03
  0.123500D+04 -0.878000D-03
  0.280800D+03 -0.454000D-02
  0.792700D+02 -0.181330D-01
  0.255900D+02 -0.557600D-01
  0.899700D+01 -0.126895D+00
  0.331900D+01 -0.170352D+00
  0.905900D+00  0.140382D+00
  0.364300D+00  0.598684D+00
  0.128500D+00  0.395389D+00
   s     1 1.00
  0.905900D+00  0.100000D+01
   s     1 1.00
  0.364300D+00  0.100000D+01
   p     5 1.00
  0.187100D+02  0.140310D-01
  0.413300D+01  0.868660D-01
  0.120000D+01  0.290216D+00
  0.382700D+00  0.501008D+00
  0.120900D+00  0.343406D+00
   p     1 1.00
  0.382700D+00  0.100000D+01
   p     1 1.00
  0.120900D+00  0.100000D+01
   d     1 1.00
  0.109700D+01  0.100000D+01
   d     1 1.00
  0.318000D+00  0.100000D+01
   f     1 1.00
  0.761000D+00  0.100000D+01
  
  8  0
   s     4 1.00
  0.130100D+02  0.196850D-01
  0.196200D+01  0.137977D+00
  0.444600D+00  0.478148D+00
  0.122000D+00  0.501240D+00
   s     1 1.00
  0.122000D+00  0.100000D+01
   p     1 1.00
  0.727000D+00  0.100000D+01
  
  9  0
   s     4 1.00
  0.130100D+02  0.196850D-01
  0.196200D+01  0.137977D+00
  0.444600D+00  0.478148D+00
  0.122000D+00  0.501240D+00
   s     1 1.00
  0.122000D+00  0.100000D+01
   p     1 1.00
  0.727000D+00  0.100000D+01
  
 10  0
   s     4 1.00
  0.130100D+02  0.196850D-01
  0.196200D+01  0.137977D+00
  0.444600D+00  0.478148D+00
  0.122000D+00  0.501240D+00
   s     1 1.00
  0.122000D+00  0.100000D+01
   p     1 1.00
  0.727000D+00  0.100000D+01
  
 11  0
   s     4 1.00
  0.130100D+02  0.196850D-01
  0.196200D+01  0.137977D+00
  0.444600D+00  0.478148D+00
  0.122000D+00  0.501240D+00
   s     1 1.00
  0.122000D+00  0.100000D+01
   p     1 1.00
  0.727000D+00  0.100000D+01
  
 12  0
   s     4 1.00
  0.130100D+02  0.196850D-01
  0.196200D+01  0.137977D+00
  0.444600D+00  0.478148D+00
  0.122000D+00  0.501240D+00
   s     1 1.00
  0.122000D+00  0.100000D+01
   p     1 1.00
  0.727000D+00  0.100000D+01
  
 13  0
   s     4 1.00
  0.130100D+02  0.196850D-01
  0.196200D+01  0.137977D+00
  0.444600D+00  0.478148D+00
  0.122000D+00  0.501240D+00
   s     1 1.00
  0.122000D+00  0.100000D+01
   p     1 1.00
  0.727000D+00  0.100000D+01
  
 14  0
   s     4 1.00
  0.130100D+02  0.196850D-01
  0.196200D+01  0.137977D+00
  0.444600D+00  0.478148D+00
  0.122000D+00  0.501240D+00
   s     1 1.00
  0.122000D+00  0.100000D+01
   p     1 1.00
  0.727000D+00  0.100000D+01
  
[MO]
 Sym= __1_a__
 Ene=  0.000000000000000E+000
 Spin= Alpha
 Occup=    2.00000000000000     
                     1  8.909030008137161E-005
                     2  0.998381090937783     
                     3 -4.080505995543160E-003
                     4  1.850611745396130E-003
                     5  6.486961755534030E-003
                     6  2.709875673492220E-003
                     7  5.536684183032900E-003
                     8 -1.714288165776650E-010
                     9 -7.215765904070930E-004
                    10 -7.207378026545710E-004
                    11  1.968968061539170E-010
                    12 -2.438766555074680E-003
                    13 -1.967612508297350E-003
                    14 -1.778938522711140E-010
                    15 -2.633663481374495E-005
                    16  5.652111763472180E-011
                    17  8.673887055177340E-012
                    18 -1.475841013777078E-004
                    19 -6.028979181588470E-005
                    20  1.125707353104333E-004
                    21 -6.085217904042510E-011
                    22 -2.840126108638780E-010
                    23 -1.656120599241200E-004
                    24  4.709645009416510E-004
                    25 -2.937769158482707E-010
                    26 -2.864532425504878E-006
                    27 -4.207074899808189E-005
                    28  1.667768226180556E-010
                    29 -2.557606966966090E-010
                    30  3.328256774155204E-005
                    31 -9.858078300478077E-005
                    32 -2.868733253195760E-004
                    33  3.099819792685800E-005
                    34  3.090549931168050E-004
                    35 -9.679104821039290E-005
                    36 -7.517344972807229E-005
                    37 -1.844433208426420E-003
                    38 -9.860032213919870E-011
                    39  3.435085017547320E-004
                    40  7.616383152953939E-005
                    41  2.604980212417460E-010
                    42 -1.988208073468200E-003
                    43  4.745248687965740E-003
                    44 -9.777965334805830E-011
                    45  1.334214664642514E-005
                    46 -9.123399595293011E-012
                    47 -2.862070203357140E-011
                    48 -9.534392704183740E-005
                    49  1.170937789871090E-005
                    50 -1.893708654565116E-004
                    51  5.319236480816620E-011
                    52 -3.366018466247840E-010
                    53 -6.782700381897540E-006
                    54  7.483375072013490E-004
                    55  8.349098301460075E-011
                    56 -4.470182550964962E-006
                    57 -7.967899947344588E-005
                    58 -1.748564979812454E-010
                    59 -3.241199824560910E-011
                    60  1.878333195104244E-005
                    61 -1.336926009121766E-004
                    62 -5.248173227812240E-004
                    63 -1.943830560025790E-003
                    64 -9.647061942737630E-005
                    65  2.176900999328950E-003
                    66 -3.023780708308620E-004
                    67 -4.797683576992530E-005
                    68 -5.242713797803610E-011
                    69  3.683685733479680E-004
                    70  8.647265567207720E-004
                    71  4.544461016149800E-011
                    72 -1.780709568242660E-003
                    73  6.327179234640730E-004
                    74  2.617720569578270E-011
                    75 -4.746867016117405E-005
                    76 -7.240687503084450E-012
                    77  1.674756805882350E-011
                    78 -4.688816797292060E-005
                    79 -2.423541001092280E-005
                    80 -1.336197568785108E-004
                    81  7.922507093113810E-011
                    82 -4.689421542853580E-011
                    83  1.807347734201704E-005
                    84 -2.283930685339520E-005
                    85  5.226633528466742E-011
                    86  9.216969713292744E-006
                    87 -4.568150923263695E-005
                    88 -7.460325360015440E-011
                    89 -1.346577925012080E-011
                    90 -2.974788765774064E-005
                    91 -1.562605868039743E-004
                    92 -1.752666264872530E-004
                    93 -5.177917636521800E-004
                    94  1.473218423969110E-004
                    95 -4.399312857744090E-005
                    96  5.706545348040840E-005
                    97 -1.209347731602970E-004
                    98 -4.063645085883340E-011
                    99  3.345502454862100E-004
                   100  3.653077267868530E-004
                   101  3.291143775246880E-011
                   102  6.113233936783100E-004
                   103 -1.657061542394550E-003
                   104 -6.231944281280290E-012
                   105 -1.473471673242694E-005
                   106 -5.342382045481710E-013
                   107  8.408113808081020E-012
                   108 -3.450035557251260E-005
                   109 -1.130733425584510E-005
                   110  7.366632591139844E-005
                   111 -4.691018968552790E-011
                   112 -2.904464723197750E-011
                   113 -1.508664013776150E-004
                   114  1.131370828737480E-004
                   115  4.064262854196199E-011
                   116 -1.751882804087007E-005
                   117 -2.160582912498633E-005
                   118 -5.145751598457020E-011
                   119  4.284367405246510E-012
                   120 -8.391998881254271E-006
                   121 -4.419847948187094E-005
                   122 -2.404468102496720E-004
                   123 -6.687683303845940E-004
                   124  1.716794504810010E-004
                   125  2.828401455131740E-004
                   126 -3.841389102261740E-005
                   127 -2.059077139408530E-004
                   128 -1.207937370500320E-011
                   129  2.346968299485790E-004
                   130  6.377203075758090E-004
                   131 -1.898620337898930E-011
                   132  4.292063887327870E-004
                   133  1.875451035196700E-003
                   134  6.889921907057120E-011
                   135  1.534431869908851E-005
                   136  8.324361815634750E-012
                   137  3.688927895793890E-010
                   138  4.907239868366400E-005
                   139 -4.813546327248440E-006
                   140  2.022589982323144E-004
                   141  1.520096676742430E-011
                   142 -2.383358003843370E-010
                   143  3.902431684098200E-004
                   144  2.020481836992930E-004
                   145 -3.578088246095015E-012
                   146 -1.229718899750878E-005
                   147 -6.292640738300358E-005
                   148  2.195454772894720E-011
                   149  7.513192570935400E-012
                   150 -1.000231012499930E-005
                   151 -5.570560424920832E-005
                   152 -1.332600232585390E-004
                   153 -4.214889885293040E-004
                   154  5.590618113971220E-005
                   155  2.007062329146840E-004
                   156  8.665263109204829E-006
                   157 -1.105219122915740E-006
                   158 -2.601354536722780E-011
                   159 -1.065090913466240E-005
                   160  4.720514040155650E-005
                   161  2.766628282635580E-011
                   162  7.237216965168260E-004
                   163 -3.395039630309050E-004
                   164  7.393899833162420E-011
                   165  2.032300018592491E-006
                   166 -7.143697996240970E-012
                   167  2.828056114324350E-010
                   168  5.252689944845160E-006
                   169  1.324330711097200E-005
                   170  1.075905744823440E-004
                   171 -4.142196112751610E-011
                   172 -1.669286241114350E-010
                   173  4.842030077765220E-005
                   174  3.921200695114500E-005
                   175  5.562060289765531E-012
                   176  4.426589239886745E-006
                   177 -1.423144866089574E-005
                   178  2.090331057400160E-011
                   179 -1.662792739040650E-011
                   180 -2.532922810200440E-005
                   181 -3.079242663564232E-005
                   182 -1.356116933312860E-004
                   183 -4.033351423392960E-004
                   184  3.078429673228370E-005
                   185  2.132821938372720E-004
                   186 -4.449202076524380E-005
                   187 -5.627260100640210E-005
                   188  2.795122353234090E-011
                   189  2.507978068804920E-004
                   190  1.153831047186530E-004
                   191 -2.317076115169660E-011
                   192  1.259158066173550E-003
                   193 -3.062997053608140E-004
                   194 -2.546242928024430E-011
                   195  6.808649879297768E-007
                   196  3.038961848707920E-012
                   197  1.217569025109640E-011
                   198 -2.419102282262360E-006
                   199  3.977734553680090E-006
                   200 -7.200345114173296E-006
                   201 -4.077619911256780E-011
                   202  8.824888120853280E-011
                   203 -6.540915264584939E-005
                   204 -1.913888149435050E-004
                   205 -4.250367304887451E-011
                   206 -9.112847613098965E-006
                   207 -3.760112045070474E-006
                   208 -2.905597635778020E-011
                   209  1.143906931345140E-012
                   210  7.680299771188232E-006
                   211 -3.737247866697241E-006
                   212 -2.072056771527540E-005
                   213  1.148592910552380E-004
                   214  1.420375121873580E-005
                   215  2.628325853054640E-005
                   216 -4.748166353796580E-013
                   217 -1.247126145903540E-003
                   218 -3.966014547813870E-004
                   219 -2.009193380280680E-004
                   220  3.672356433273300E-005
                   221 -1.701493546721320E-011
                   222 -1.537144066872390E-004
                   223 -6.503791590691060E-004
                   224  2.233146807119740E-005
                   225 -5.861630310384800E-005
                   226  1.440939954340590E-011
                   227  8.691601584409160E-005
                   228 -6.255085238553610E-004
                   229 -4.342951066571440E-005
                   230 -1.592108873652680E-005
                   231  9.098607581324879E-012
                   232  5.150860893333130E-005
                   233 -4.485659295485210E-004
                   234  1.473085503062650E-005
                   235 -4.111619376337990E-006
                   236  1.368564058861800E-011
                   237  4.175843460812000E-005
                   238 -3.574829085751110E-004
                   239 -1.020632468159980E-005
                   240 -3.549223655016860E-006
                   241  1.060000661747760E-011
                   242 -6.971711523878200E-005
                   243  8.541388142667090E-005
                   244  4.882179119819840E-008
                   245  2.884290030453100E-005
                   246 -3.481495161581180E-011
 Sym= __2_a__
 Ene=  0.000000000000000E+000
 Spin= Alpha
 Occup=    2.00000000000000     
                     1  4.816832026372270E-005
                     2  3.324521063612970E-004
                     3 -2.843488600419580E-003
                     4 -1.210927065704790E-004
                     5 -1.325847453533090E-003
                     6  3.022434656481800E-004
                     7 -2.709547333366400E-003
                     8  2.398808164197640E-011
                     9  3.076040631823350E-005
                    10  1.096096032145060E-004
                    11 -2.889123636036300E-011
                    12  5.174925422948620E-005
                    13  3.058492867470380E-004
                    14  8.762361247920510E-011
                    15 -2.732508158432454E-005
                    16 -1.835991203878540E-012
                    17 -8.786963959542040E-012
                    18  4.146226471973380E-005
                    19 -1.951106196652030E-005
                    20  1.123827089851588E-004
                    21  4.246281034311380E-012
                    22  1.535780847937620E-010
                    23 -1.221656023736734E-004
                    24  1.516199519073290E-004
                    25  1.273550669166103E-010
                    26  1.809620857696024E-005
                    27 -9.492400046774347E-005
                    28 -1.217006941560276E-010
                    29  1.567009949584330E-010
                    30  6.600767519747068E-005
                    31 -1.473431865130579E-004
                    32  -1.00089865334207     
                    33 -9.061024559435360E-003
                    34 -2.761317697500200E-003
                    35  8.062789849348259E-003
                    36  1.818514647108470E-004
                    37  3.149252195531520E-003
                    38 -1.692204959143340E-010
                    39  1.071632468105320E-004
                    40 -1.932312005773380E-004
                    41  2.738770719725060E-011
                    42  1.592882002268720E-004
                    43 -3.979789275538900E-003
                    44  4.712200683737350E-010
                    45  5.279496480911817E-004
                    46 -4.443534208679650E-011
                    47  2.168485433795680E-011
                    48  1.943596279676630E-004
                    49 -3.228126217633120E-005
                    50 -5.510922278749344E-004
                    51 -3.933361914486810E-011
                    52  3.403471605073090E-010
                    53  6.600472094087660E-004
                    54  4.007644185794620E-004
                    55 -2.005868823081263E-011
                    56 -1.206052133369435E-005
                    57 -9.894317647833680E-005
                    58  7.641346886466660E-011
                    59  1.814202857142690E-011
                    60  2.438476507830307E-005
                    61 -3.810613249601343E-004
                    62 -1.240198822677180E-002
                    63  2.022685367087150E-003
                    64  2.385118454282550E-004
                    65 -2.704144067957780E-003
                    66 -3.738754516094280E-005
                    67 -1.027066427719080E-004
                    68  9.991001437833700E-011
                    69 -5.267262997732930E-004
                    70 -1.541387319460730E-004
                    71 -2.406977323664980E-010
                    72  2.094519998871460E-003
                    73 -2.711340822804700E-004
                    74 -4.989435259577280E-010
                    75 -3.399933867690216E-005
                    76  2.269925611042680E-011
                    77  7.536634230753109E-012
                    78  5.072785509876060E-006
                    79 -3.583330141311990E-006
                    80  4.291106901365096E-004
                    81 -2.482597355170140E-010
                    82 -1.665231825120310E-010
                    83  6.565079690681200E-004
                    84  2.626197936733960E-004
                    85 -3.572422019964405E-011
                    86 -2.861819178119011E-005
                    87  5.855574451591035E-005
                    88  3.420290921172500E-011
                    89 -2.632307454703610E-011
                    90 -4.365562646907737E-005
                    91 -1.482169312516989E-004
                    92 -1.521550623032810E-002
                    93  2.083266235906740E-003
                    94  2.997014465498740E-004
                    95 -3.169284084152470E-003
                    96 -1.617059160601650E-004
                    97 -1.629975193673800E-004
                    98  8.777900430723730E-011
                    99  9.218738401480700E-004
                   100 -1.763281065885410E-005
                   101 -2.625409731054640E-010
                   102 -1.697537908890690E-003
                   103  9.001001113483740E-006
                   104 -4.849614770236000E-010
                   105 -2.361583456551082E-005
                   106 -1.391163159600410E-011
                   107  1.490877758773130E-011
                   108  6.823786187678560E-006
                   109 -4.319682992981930E-006
                   110  4.203828603030867E-004
                   111  2.268208056723800E-010
                   112 -2.253183685854150E-010
                   113  3.937529248951860E-004
                   114 -2.429048084735220E-004
                   115 -3.720474527210815E-011
                   116  3.107665411352415E-005
                   117  7.286941440065395E-005
                   118  3.982034705256180E-011
                   119  3.509594479947490E-011
                   120  2.667591700511641E-006
                   121 -1.335104851023528E-004
                   122  8.183624249933229E-005
                   123  6.682068426172800E-004
                   124 -2.302221366421630E-004
                   125  1.337655037449380E-004
                   126 -2.689914547539940E-006
                   127  3.850743822059670E-004
                   128 -2.629355778412920E-010
                   129  7.931082813373900E-005
                   130 -6.196753934183830E-004
                   131  6.508244619303340E-010
                   132 -3.759140596035430E-004
                   133 -9.128041507681030E-004
                   134  8.822365803815360E-010
                   135 -1.856127488697878E-005
                   136 -6.310543799597520E-011
                   137  3.833011465697850E-011
                   138 -3.624554284800940E-006
                   139 -4.353417972784060E-005
                   140 -1.297475610758115E-004
                   141  8.054946308132750E-010
                   142 -1.090917584800320E-010
                   143 -2.555297265849520E-004
                   144  1.081216900060620E-004
                   145  1.334757375689242E-010
                   146 -9.080069371410068E-006
                   147  3.685641004056194E-005
                   148  1.014098003481446E-010
                   149  9.207835203264220E-011
                   150  4.334907845725021E-005
                   151 -3.696163202247138E-005
                   152 -9.590324641995930E-005
                   153  6.383774380479611E-004
                   154 -2.300466470421320E-004
                   155  5.076306897074630E-005
                   156  3.656818256489390E-005
                   157  4.176230488846260E-004
                   158 -2.555978372996390E-010
                   159 -1.315072219945690E-004
                   160 -5.509168883282500E-004