[Molden Format]
[Atoms] AU
  N     1    7    -0.0005000500    0.0009412100   -4.3878167000        
  C     2    6    -0.0019986000   -0.0015163600   -1.7302480300        
  C     3    6     0.1432949500   -2.3153455500   -0.4122954500        
  C     4    6    -0.1487808000    2.3098715000   -0.4081830000        
  C     5    6     0.2109642200   -2.2891922700    2.1834936800        
  C     6    6    -0.2193774000    2.2789174700    2.1874753400        
  C     7    6    -0.0049362600   -0.0063340400    3.4794990900        
  H     8    1    -1.6100745600   -0.4563597000   -5.4026014200        
  H     9    1     1.6102173600    0.4601164900   -5.3999380600        
  H    10    1     0.2638132800   -4.0383599800   -1.4594390900        
  H    11    1    -0.2681199300    4.0348197900   -1.4522734200        
  H    12    1     0.4006368800   -4.0211578100    3.2152500700        
  H    13    1    -0.4102153000    4.0089720200    3.2222186500        
  H    14    1    -0.0060802500   -0.0082101600    5.5083080200        
[5D]
[7F]
[GTO]
  1  0
   s    12 1.00
  0.114200D+05  0.172695D-04
  0.171200D+04  0.134411D-03
  0.389300D+03  0.694561D-03
  0.110000D+03  0.278531D-02
  0.355700D+02  0.863457D-02
  0.125400D+02  0.199805D-01
  0.464400D+01  0.262908D-01
  0.129300D+01 -0.243845D-01
  0.511800D+00 -0.924934D-01
  0.178700D+00 -0.339683D+00
  0.246240D-01  0.345111D+00
  0.112530D-01  0.752750D+00
   s    10 1.00
  0.114200D+05  0.523000D-03
  0.171200D+04  0.404500D-02
  0.389300D+03  0.207750D-01
  0.110000D+03  0.807269D-01
  0.355700D+02  0.233074D+00
  0.125400D+02  0.433501D+00
  0.464400D+01  0.347472D+00
  0.129300D+01  0.412620D-01
  0.511800D+00 -0.850799D-02
  0.178700D+00  0.238400D-02
   s    10 1.00
  0.114200D+05 -0.115000D-03
  0.171200D+04 -0.895000D-03
  0.389300D+03 -0.462400D-02
  0.110000D+03 -0.185280D-01
  0.355700D+02 -0.573390D-01
  0.125400D+02 -0.132076D+00
  0.464400D+01 -0.172510D+00
  0.129300D+01  0.151814D+00
  0.511800D+00  0.599944D+00
  0.178700D+00  0.387462D+00
   s     1 1.00
  0.129300D+01  0.100000D+01
   s     1 1.00
  0.178700D+00  0.100000D+01
   p     5 1.00
  0.266300D+02  0.146700D-01
  0.594800D+01  0.917640D-01
  0.174200D+01  0.298683D+00
  0.555000D+00  0.498487D+00
  0.172500D+00  0.337023D+00
   p     1 1.00
  0.174200D+01  0.100000D+01
   p     1 1.00
  0.555000D+00  0.100000D+01
   d     1 1.00
  0.165400D+01  0.100000D+01
   d     1 1.00
  0.469000D+00  0.100000D+01
   f     1 1.00
  0.109300D+01  0.100000D+01
  
  2  0
   s    10 1.00
  0.823600D+04  0.531000D-03
  0.123500D+04  0.410800D-02
  0.280800D+03  0.210870D-01
  0.792700D+02  0.818530D-01
  0.255900D+02  0.234817D+00
  0.899700D+01  0.434401D+00
  0.331900D+01  0.346129D+00
  0.905900D+00  0.393780D-01
  0.364300D+00 -0.898300D-02
  0.128500D+00  0.238500D-02
   s    10 1.00
  0.823600D+04 -0.113000D-03
  0.123500D+04 -0.878000D-03
  0.280800D+03 -0.454000D-02
  0.792700D+02 -0.181330D-01
  0.255900D+02 -0.557600D-01
  0.899700D+01 -0.126895D+00
  0.331900D+01 -0.170352D+00
  0.905900D+00  0.140382D+00
  0.364300D+00  0.598684D+00
  0.128500D+00  0.395389D+00
   s     1 1.00
  0.905900D+00  0.100000D+01
   s     1 1.00
  0.364300D+00  0.100000D+01
   p     5 1.00
  0.187100D+02  0.140310D-01
  0.413300D+01  0.868660D-01
  0.120000D+01  0.290216D+00
  0.382700D+00  0.501008D+00
  0.120900D+00  0.343406D+00
   p     1 1.00
  0.382700D+00  0.100000D+01
   p     1 1.00
  0.120900D+00  0.100000D+01
   d     1 1.00
  0.109700D+01  0.100000D+01
   d     1 1.00
  0.318000D+00  0.100000D+01
   f     1 1.00
  0.761000D+00  0.100000D+01
  
  3  0
   s    10 1.00
  0.823600D+04  0.531000D-03
  0.123500D+04  0.410800D-02
  0.280800D+03  0.210870D-01
  0.792700D+02  0.818530D-01
  0.255900D+02  0.234817D+00
  0.899700D+01  0.434401D+00
  0.331900D+01  0.346129D+00
  0.905900D+00  0.393780D-01
  0.364300D+00 -0.898300D-02
  0.128500D+00  0.238500D-02
   s    10 1.00
  0.823600D+04 -0.113000D-03
  0.123500D+04 -0.878000D-03
  0.280800D+03 -0.454000D-02
  0.792700D+02 -0.181330D-01
  0.255900D+02 -0.557600D-01
  0.899700D+01 -0.126895D+00
  0.331900D+01 -0.170352D+00
  0.905900D+00  0.140382D+00
  0.364300D+00  0.598684D+00
  0.128500D+00  0.395389D+00
   s     1 1.00
  0.905900D+00  0.100000D+01
   s     1 1.00
  0.364300D+00  0.100000D+01
   p     5 1.00
  0.187100D+02  0.140310D-01
  0.413300D+01  0.868660D-01
  0.120000D+01  0.290216D+00
  0.382700D+00  0.501008D+00
  0.120900D+00  0.343406D+00
   p     1 1.00
  0.382700D+00  0.100000D+01
   p     1 1.00
  0.120900D+00  0.100000D+01
   d     1 1.00
  0.109700D+01  0.100000D+01
   d     1 1.00
  0.318000D+00  0.100000D+01
   f     1 1.00
  0.761000D+00  0.100000D+01
  
  4  0
   s    10 1.00
  0.823600D+04  0.531000D-03
  0.123500D+04  0.410800D-02
  0.280800D+03  0.210870D-01
  0.792700D+02  0.818530D-01
  0.255900D+02  0.234817D+00
  0.899700D+01  0.434401D+00
  0.331900D+01  0.346129D+00
  0.905900D+00  0.393780D-01
  0.364300D+00 -0.898300D-02
  0.128500D+00  0.238500D-02
   s    10 1.00
  0.823600D+04 -0.113000D-03
  0.123500D+04 -0.878000D-03
  0.280800D+03 -0.454000D-02
  0.792700D+02 -0.181330D-01
  0.255900D+02 -0.557600D-01
  0.899700D+01 -0.126895D+00
  0.331900D+01 -0.170352D+00
  0.905900D+00  0.140382D+00
  0.364300D+00  0.598684D+00
  0.128500D+00  0.395389D+00
   s     1 1.00
  0.905900D+00  0.100000D+01
   s     1 1.00
  0.364300D+00  0.100000D+01
   p     5 1.00
  0.187100D+02  0.140310D-01
  0.413300D+01  0.868660D-01
  0.120000D+01  0.290216D+00
  0.382700D+00  0.501008D+00
  0.120900D+00  0.343406D+00
   p     1 1.00
  0.382700D+00  0.100000D+01
   p     1 1.00
  0.120900D+00  0.100000D+01
   d     1 1.00
  0.109700D+01  0.100000D+01
   d     1 1.00
  0.318000D+00  0.100000D+01
   f     1 1.00
  0.761000D+00  0.100000D+01
  
  5  0
   s    10 1.00
  0.823600D+04  0.531000D-03
  0.123500D+04  0.410800D-02
  0.280800D+03  0.210870D-01
  0.792700D+02  0.818530D-01
  0.255900D+02  0.234817D+00
  0.899700D+01  0.434401D+00
  0.331900D+01  0.346129D+00
  0.905900D+00  0.393780D-01
  0.364300D+00 -0.898300D-02
  0.128500D+00  0.238500D-02
   s    10 1.00
  0.823600D+04 -0.113000D-03
  0.123500D+04 -0.878000D-03
  0.280800D+03 -0.454000D-02
  0.792700D+02 -0.181330D-01
  0.255900D+02 -0.557600D-01
  0.899700D+01 -0.126895D+00
  0.331900D+01 -0.170352D+00
  0.905900D+00  0.140382D+00
  0.364300D+00  0.598684D+00
  0.128500D+00  0.395389D+00
   s     1 1.00
  0.905900D+00  0.100000D+01
   s     1 1.00
  0.364300D+00  0.100000D+01
   p     5 1.00
  0.187100D+02  0.140310D-01
  0.413300D+01  0.868660D-01
  0.120000D+01  0.290216D+00
  0.382700D+00  0.501008D+00
  0.120900D+00  0.343406D+00
   p     1 1.00
  0.382700D+00  0.100000D+01
   p     1 1.00
  0.120900D+00  0.100000D+01
   d     1 1.00
  0.109700D+01  0.100000D+01
   d     1 1.00
  0.318000D+00  0.100000D+01
   f     1 1.00
  0.761000D+00  0.100000D+01
  
  6  0
   s    10 1.00
  0.823600D+04  0.531000D-03
  0.123500D+04  0.410800D-02
  0.280800D+03  0.210870D-01
  0.792700D+02  0.818530D-01
  0.255900D+02  0.234817D+00
  0.899700D+01  0.434401D+00
  0.331900D+01  0.346129D+00
  0.905900D+00  0.393780D-01
  0.364300D+00 -0.898300D-02
  0.128500D+00  0.238500D-02
   s    10 1.00
  0.823600D+04 -0.113000D-03
  0.123500D+04 -0.878000D-03
  0.280800D+03 -0.454000D-02
  0.792700D+02 -0.181330D-01
  0.255900D+02 -0.557600D-01
  0.899700D+01 -0.126895D+00
  0.331900D+01 -0.170352D+00
  0.905900D+00  0.140382D+00
  0.364300D+00  0.598684D+00
  0.128500D+00  0.395389D+00
   s     1 1.00
  0.905900D+00  0.100000D+01
   s     1 1.00
  0.364300D+00  0.100000D+01
   p     5 1.00
  0.187100D+02  0.140310D-01
  0.413300D+01  0.868660D-01
  0.120000D+01  0.290216D+00
  0.382700D+00  0.501008D+00
  0.120900D+00  0.343406D+00
   p     1 1.00
  0.382700D+00  0.100000D+01
   p     1 1.00
  0.120900D+00  0.100000D+01
   d     1 1.00
  0.109700D+01  0.100000D+01
   d     1 1.00
  0.318000D+00  0.100000D+01
   f     1 1.00
  0.761000D+00  0.100000D+01
  
  7  0
   s    10 1.00
  0.823600D+04  0.531000D-03
  0.123500D+04  0.410800D-02
  0.280800D+03  0.210870D-01
  0.792700D+02  0.818530D-01
  0.255900D+02  0.234817D+00
  0.899700D+01  0.434401D+00
  0.331900D+01  0.346129D+00
  0.905900D+00  0.393780D-01
  0.364300D+00 -0.898300D-02
  0.128500D+00  0.238500D-02
   s    10 1.00
  0.823600D+04 -0.113000D-03
  0.123500D+04 -0.878000D-03
  0.280800D+03 -0.454000D-02
  0.792700D+02 -0.181330D-01
  0.255900D+02 -0.557600D-01
  0.899700D+01 -0.126895D+00
  0.331900D+01 -0.170352D+00
  0.905900D+00  0.140382D+00
  0.364300D+00  0.598684D+00
  0.128500D+00  0.395389D+00
   s     1 1.00
  0.905900D+00  0.100000D+01
   s     1 1.00
  0.364300D+00  0.100000D+01
   p     5 1.00
  0.187100D+02  0.140310D-01
  0.413300D+01  0.868660D-01
  0.120000D+01  0.290216D+00
  0.382700D+00  0.501008D+00
  0.120900D+00  0.343406D+00
   p     1 1.00
  0.382700D+00  0.100000D+01
   p     1 1.00
  0.120900D+00  0.100000D+01
   d     1 1.00
  0.109700D+01  0.100000D+01
   d     1 1.00
  0.318000D+00  0.100000D+01
   f     1 1.00
  0.761000D+00  0.100000D+01
  
  8  0
   s     4 1.00
  0.130100D+02  0.196850D-01
  0.196200D+01  0.137977D+00
  0.444600D+00  0.478148D+00
  0.122000D+00  0.501240D+00
   s     1 1.00
  0.122000D+00  0.100000D+01
   p     1 1.00
  0.727000D+00  0.100000D+01
  
  9  0
   s     4 1.00
  0.130100D+02  0.196850D-01
  0.196200D+01  0.137977D+00
  0.444600D+00  0.478148D+00
  0.122000D+00  0.501240D+00
   s     1 1.00
  0.122000D+00  0.100000D+01
   p     1 1.00
  0.727000D+00  0.100000D+01
  
 10  0
   s     4 1.00
  0.130100D+02  0.196850D-01
  0.196200D+01  0.137977D+00
  0.444600D+00  0.478148D+00
  0.122000D+00  0.501240D+00
   s     1 1.00
  0.122000D+00  0.100000D+01
   p     1 1.00
  0.727000D+00  0.100000D+01
  
 11  0
   s     4 1.00
  0.130100D+02  0.196850D-01
  0.196200D+01  0.137977D+00
  0.444600D+00  0.478148D+00
  0.122000D+00  0.501240D+00
   s     1 1.00
  0.122000D+00  0.100000D+01
   p     1 1.00
  0.727000D+00  0.100000D+01
  
 12  0
   s     4 1.00
  0.130100D+02  0.196850D-01
  0.196200D+01  0.137977D+00
  0.444600D+00  0.478148D+00
  0.122000D+00  0.501240D+00
   s     1 1.00
  0.122000D+00  0.100000D+01
   p     1 1.00
  0.727000D+00  0.100000D+01
  
 13  0
   s     4 1.00
  0.130100D+02  0.196850D-01
  0.196200D+01  0.137977D+00
  0.444600D+00  0.478148D+00
  0.122000D+00  0.501240D+00
   s     1 1.00
  0.122000D+00  0.100000D+01
   p     1 1.00
  0.727000D+00  0.100000D+01
  
 14  0
   s     4 1.00
  0.130100D+02  0.196850D-01
  0.196200D+01  0.137977D+00
  0.444600D+00  0.478148D+00
  0.122000D+00  0.501240D+00
   s     1 1.00
  0.122000D+00  0.100000D+01
   p     1 1.00
  0.727000D+00  0.100000D+01
  
[MO]
 Sym= __1_A__
 Ene=   1.00000000000000     
 Spin= Alpha
 Occup=    1.00000000000000     
                     1  7.897044755122084E-005
                     2  0.997676955816131     
                     3  1.321812371770673E-002
                     4  2.191773981220935E-003
                     5  8.650928391103500E-004
                     6 -1.718647064054743E-006
                     7 -2.845469892233325E-006
                     8  3.060260442570133E-003
                     9  1.874568293736155E-007
                    10  3.245717103498514E-007
                    11 -3.387817855726653E-004
                    12  3.731757914907842E-007
                    13  5.871361343742566E-007
                    14 -6.646725121605850E-004
                    15  1.266608083867063E-004
                    16 -2.420541184870310E-008
                    17 -2.387706347136642E-007
                    18  7.602147726042862E-005
                    19  6.055552808852394E-005
                    20  2.561257585521200E-005
                    21 -5.478222123068750E-007
                    22  2.060506492616618E-007
                    23 -4.605335082750834E-004
                    24 -2.806926179248658E-004
                    25 -1.679108635207944E-004
                    26 -3.390699948729586E-007
                    27 -3.529100104310139E-007
                    28 -4.677919087221774E-005
                    29 -4.431314746221479E-005
                    30  1.783326418409062E-008
                    31  8.326473114335858E-008
                    32 -1.731249733185462E-004
                    33  2.769238831049907E-003
                    34  8.233074989339068E-005
                    35 -6.158536801841517E-004
                    36  3.667156454690044E-006
                    37  6.040987766140211E-006
                    38 -6.512354945915068E-003
                    39  1.848344978834898E-007
                    40  2.269217313381994E-007
                    41 -3.068056577950023E-004
                    42 -2.033000170291063E-006
                    43 -3.281150355952898E-006
                    44  3.591952256882615E-003
                    45  3.843126177278660E-004
                    46 -3.219536360924882E-007
                    47 -6.920279174875166E-007
                    48  9.331487484348479E-005
                    49  6.320126299882650E-007
                    50  7.797560117862075E-004
                    51 -6.170931390451411E-007
                    52 -1.494550273312543E-006
                    53  1.515930105927028E-004
                    54  5.979343649590775E-005
                    55 -3.746594412966410E-005
                    56 -2.485434568362873E-008
                    57 -1.475933793552685E-007
                    58  3.724161382636022E-005
                    59 -4.876587375044565E-006
                    60  3.107446759481850E-008
                    61 -4.232488654978773E-008
                    62 -1.861843704144794E-004
                    63 -1.699028278896128E-003
                    64 -7.599936602023301E-006
                    65  8.467634415468672E-004
                    66  5.594381887972542E-005
                    67 -8.830669161670430E-004
                    68  1.236699873738041E-003
                    69  1.708067429946246E-005
                    70  1.333837694461325E-004
                    71  5.039747682734817E-005
                    72  4.744545572719632E-005
                    73 -5.900005001334982E-004
                    74 -3.509721912426174E-004
                    75  9.265607531928274E-005
                    76  2.341730251031948E-006
                    77 -1.262453889675768E-005
                    78  3.186229029353826E-005
                    79  3.324566965340091E-006
                    80  3.814168307971747E-005
                    81 -3.548276883428019E-006
                    82 -5.434231072140552E-005
                    83  2.075967254960410E-005
                    84  1.628937780192032E-005
                    85 -6.951369279116907E-005
                    86  4.249501229246203E-006
                    87 -1.532999945914606E-006
                    88  2.060240287687538E-005
                    89 -5.610183133541757E-007
                    90  4.442259123624065E-006
                    91  2.379714135931001E-005
                    92 -1.861487348649865E-004
                    93 -1.698886179474008E-003
                    94 -7.439972174469487E-006
                    95  8.462631330400630E-004
                    96 -5.734301953611810E-005
                    97  8.807980757242445E-004
                    98  1.238375533582770E-003
                    99 -1.711211388504780E-005
                   100 -1.336200567199658E-004
                   101  4.953149515621909E-005
                   102 -4.700461760460837E-005
                   103  5.900811840352947E-004
                   104 -3.497730849571574E-004
                   105  9.266045726604787E-005
                   106 -2.480195142571266E-006
                   107  1.228899148073134E-005
                   108  3.188947179391614E-005
                   109  3.314289495338296E-006
                   110  3.788752311694647E-005
                   111  3.549686691764525E-006
                   112  5.409256380356544E-005
                   113  2.076912375209630E-005
                   114  1.621573797177727E-005
                   115 -6.944021276397843E-005
                   116 -4.403068556932110E-006
                   117  1.160228426573604E-006
                   118  2.056180068954228E-005
                   119 -5.950744162592959E-007
                   120 -4.412900137574580E-006
                   121 -2.384156905580917E-005
                   122 -1.559105712401479E-004
                   123  2.203151614034412E-005
                   124  6.707034672383610E-005
                   125  3.074821344281706E-004
                   126 -5.607519173454944E-005
                   127  5.667013609132953E-005
                   128 -8.573890426751678E-004
                   129 -4.198088093210014E-006
                   130  2.604967288370927E-005
                   131  1.680848160412235E-004
                   132  9.429204572779363E-006
                   133 -1.715942531442897E-005
                   134  5.243102642976622E-004
                   135  3.134045537290695E-006
                   136  6.038211741829072E-007
                   137  6.599954864824455E-006
                   138 -2.928250205815060E-006
                   139  6.952817524370342E-007
                   140 -1.131295824500377E-004
                   141 -9.770049594601685E-006
                   142  7.920382236529337E-005
                   143  4.104724598351588E-005
                   144  2.324810472441649E-008
                   145 -2.125886399557781E-005
                   146  3.576679992041312E-007
                   147 -6.368404154431642E-006
                   148 -8.361894411679023E-006
                   149 -1.370637345492357E-006
                   150 -1.078346405632019E-006
                   151 -2.329808410788873E-006
                   152 -1.563811058619870E-004
                   153  2.035994657228541E-005
                   154  6.657586071665278E-005
                   155  3.105310258093076E-004
                   156  5.703002209768301E-005
                   157 -5.502232261724780E-005
                   158 -8.574005137630152E-004
                   159  4.070611553622478E-006
                   160 -2.675884447195807E-005
                   161  1.677253868509583E-004
                   162 -1.007679681432369E-005
                   163  1.671413183535090E-005
                   164  5.244969208561921E-004
                   165  3.164005080212307E-006
                   166 -6.143266012125775E-007
                   167 -6.613337782829823E-006
                   168 -2.992307412351270E-006
                   169  6.927752718022553E-007
                   170 -1.132470731885473E-004
                   171  1.005043821146296E-005
                   172 -7.917919543516409E-005
                   173  4.083178349960222E-005
                   174  8.793403532443413E-008
                   175 -2.119841053263366E-005
                   176 -4.311366792388940E-007
                   177  6.299393073128933E-006
                   178 -8.392077290469537E-006
                   179 -1.385676243609811E-006
                   180  1.072077923693757E-006
                   181  2.361126609755600E-006
                   182 -1.275433754386955E-004
                   183 -3.475329503943644E-004
                   184  2.178878933104829E-005
                   185  2.607695277412330E-004
                   186  1.341779601525604E-008
                   187  1.317347071516386E-007
                   188 -4.374352708210170E-005
                   189  4.224800420513508E-008
                   190 -4.800251835472228E-007
                   191  1.129210652134002E-005
                   192  5.011715454677134E-008
                   193  2.703076674066747E-008
                   194 -7.797716051695321E-005
                   195  2.165992000449209E-005
                   196 -1.793551765031680E-008
                   197 -1.459513366238452E-008
                   198  7.087950181201320E-006
                   199  2.170362191051323E-006
                   200  2.239665749798259E-005
                   201 -3.023628772190066E-008
                   202  1.766598209693652E-007
                   203  1.803048572785132E-005
                   204  1.635838734302965E-006
                   205 -9.978107673475208E-006
                   206 -1.012584708442003E-008
                   207 -3.057787547964257E-008
                   208  1.292921234685558E-006
                   209  1.120415997161476E-006
                   210  7.567753921953145E-009
                   211  2.604855457685691E-008
                   212  6.388355928296733E-003
                   213 -3.454170669860830E-003
                   214  6.409382756574691E-004
                   215  1.759974236615875E-004
                   216  4.371237291442745E-004
                   217  6.388339126492962E-003
                   218 -3.454164704108321E-003
                   219 -6.414285140247654E-004
                   220 -1.768078768810513E-004
                   221  4.360736750918832E-004
                   222 -6.647609951481117E-004
                   223 -2.030121085373935E-004
                   224  4.011510398974986E-006
                   225 -3.953321374612237E-005
                   226 -4.843010726252743E-005
                   227 -6.648246126045169E-004
                   228 -2.026435413715470E-004
                   229 -3.956306854840836E-006
                   230  3.960442968372711E-005
                   231 -4.838746155568819E-005
                   232 -2.733572153396904E-004
                   233 -2.007476958548466E-004
                   234 -1.062322512578428E-006
                   235 -1.574429536678651E-005
                   236 -4.140551756332737E-006
                   237 -2.734011432959488E-004
                   238 -2.008946755895380E-004
                   239  1.061545966877809E-006
                   240  1.579763630709761E-005
                   241 -4.060712836956995E-006
                   242  1.168433475441062E-004
                   243  2.228582960148388E-006
                   244 -6.571743348842832E-009
                   245 -3.609398465921373E-008
                   246  1.409753961999500E-005
 Sym= __2_A__
 Ene=   2.00000000000000     
 Spin= Alpha
 Occup=    1.00000000000000     
                     1 -5.818878048863649E-006
                     2 -5.113553333356444E-005
                     3  1.758261209395459E-003
                     4  1.360936479108081E-005
                     5  1.072611647235193E-003
                     6 -1.014102657793980E-006
                     7 -1.650848073768293E-006
                     8  1.789699552454103E-003
                     9  7.084090737204719E-008
                    10  1.100121166661528E-007
                    11 -1.220654289556034E-004
                    12 -3.687480660540562E-008
                    13 -6.006331348699602E-008
                    14  6.886181489789022E-005
                    15  6.095820855327216E-005
                    16 -6.562156434034064E-008
                    17 -1.097141441067879E-007
                    18  7.116215007484108E-006
                    19 -1.059208626853726E-005
                    20 -4.844019937813083E-005
                    21  7.346114221978493E-008
                    22  1.198304071609318E-007
                    23 -2.072271171562638E-005
                    24  3.902373549224256E-005
                    25  1.878708345210106E-004
                    26  1.887385762244885E-007
                    27  4.871393970642165E-007
                    28 -5.341434377962238E-005
                    29 -1.662365015514141E-005
                    30 -1.783631481288563E-008
                    31  7.236473148884512E-008
                    32   1.00100371707331     
                    33  8.807360253565944E-003
                    34  2.621004223519337E-003
                    35 -8.084108187577215E-003
                    36  1.560771186413485E-006
                    37  2.555439811561172E-006
                    38 -2.769303762770961E-003
                    39 -7.299234056280515E-007
                    40 -1.189717226834783E-006
                    41  1.292649695016510E-003
                    42 -1.881553202392250E-006
                    43 -3.162206562337668E-006
                    44  3.349575396805912E-003
                    45  2.213815311228919E-004
                    46 -4.657628458868481E-007
                    47 -1.373408205894034E-008
                    48 -3.908944742488244E-004
                    49 -3.140646097113444E-005
                    50  3.798035560931127E-004
                    51  2.017647075827876E-007
                    52 -1.337262197464616E-006
                    53  8.627329773626654E-004
                    54  9.219756113333257E-005
                    55  2.638804139100821E-004
                    56  1.996848031410517E-007
                    57  8.388873587424858E-007
                    58 -1.696106296831076E-004
                    59 -8.895129536362933E-006
                    60 -1.067678532209207E-007
                    61  1.999473518482103E-007
                    62  1.393221992173110E-002
                    63 -1.720703482802029E-003
                    64 -2.899476532773550E-004
                    65  2.953903072775075E-003
                    66 -1.453000560735118E-005
                    67  2.883767535301214E-004
                    68 -1.497432346761558E-004
                    69 -2.708866646034251E-005
                    70  4.835681979821363E-004
                    71  5.200286736536357E-005
                    72  1.342287812771347E-004
                    73 -1.796311298079972E-003
                    74  1.594383324504262E-004
                    75 -2.838797006235212E-005
                    76  1.034946640858245E-006
                    77  2.098619909934329E-005
                    78  1.912555728827817E-005
                    79  1.580675961466369E-006
                    80  8.139681072996362E-004
                    81  4.565634246176723E-005
                    82 -4.810434349219360E-004
                    83 -1.142413969377738E-005
                    84 -9.750664668826048E-006
                    85  4.286431574061060E-005
                    86  8.467405103859135E-007
                    87  2.685582346190103E-005
                    88 -9.986058636133672E-005
                    89 -8.923378052113961E-006
                    90  9.422602552371336E-006
                    91  5.331879373068242E-005
                    92  1.393219916773650E-002
                    93 -1.720778708758422E-003
                    94 -2.899941393213041E-004
                    95  2.954096207232155E-003
                    96  1.469960078392199E-005
                    97 -2.881013319646083E-004
                    98 -1.502870849904861E-004
                    99  2.702537944897702E-005
                   100 -4.836527767491627E-004
                   101  5.128639948339795E-005
                   102 -1.344225250542292E-004
                   103  1.796159108089295E-003
                   104  1.624628434319496E-004
                   105 -2.844361371068162E-005
                   106 -9.551958028219487E-007
                   107 -2.093466580739591E-005
                   108  1.908662168651651E-005
                   109  1.606353790282434E-006
                   110  8.154979425996854E-004
                   111 -4.728471054842977E-005
                   112  4.784894875033230E-004
                   113 -1.046230517221128E-005
                   114 -1.020376124727489E-005
                   115  4.297102983436877E-005
                   116 -9.335145334799997E-007
                   117 -2.638411258869404E-005
                   118 -1.000421167623644E-004
                   119 -8.967856634356803E-006
                   120 -9.540130356620797E-006
                   121 -5.307948453202934E-005
                   122 -9.882164402444805E-005
                   123 -7.583550738399697E-004
                   124  2.328763201959887E-004
                   125 -2.311633542142359E-004
                   126 -4.907149454880615E-006
                   127 -4.932794692200084E-005
                   128 -1.656949642769410E-004
                   129  2.099443141085584E-005
                   130  5.791092079030114E-005
                   131  5.707487470224652E-004
                   132 -2.239318106334628E-005
                   133  3.306059917819101E-004
                   134  5.872107873550585E-004
                   135 -2.641782193971678E-005
                   136 -4.898571528988277E-006
                   137  4.647627965508410E-005
                   138  1.632304167840747E-005
                   139  5.713234973255101E-006
                   140 -3.075335005799864E-004
                   141 -3.928258871440015E-007
                   142 -2.803899075778706E-004
                   143 -3.304575064091928E-005
                   144 -2.871522062126772E-005
                   145 -9.446212324727999E-006
                   146  5.577134942039664E-006
                   147 -1.947617148058903E-005
                   148 -2.430863482788056E-005
                   149 -5.205313353490818E-006
                   150 -6.523209922855304E-007
                   151 -7.408778337463982E-006
                   152 -9.854679880600450E-005
                   153 -7.574464243638078E-004
                   154  2.329696593116910E-004
                   155 -2.322356158002628E-004
                   156  5.095991043541425E-006
                   157  4.962024582888759E-005
                   158 -1.656021873990786E-004
                   159 -2.165067930671747E-005
                   160 -5.888887705689037E-005