[Molden Format]
[Atoms] AU
  N     1    7     0.0000000000    0.0000000000   -4.2907334100        
  C     2    6     0.0000000000    0.0000000000   -1.7772236300        
  C     3    6     0.0000000000   -2.3389203600   -0.4111016300        
  C     4    6     0.0000000000    2.3389203600   -0.4111016300        
  C     5    6     0.0000000000   -2.2998668500    2.1639215300        
  C     6    6     0.0000000000    2.2998668500    2.1639215300        
  C     7    6     0.0000000000    0.0000000000    3.4755251800        
  H     8    1     0.0000000000   -2.0907907800   -5.5805758500        
  H     9    1     0.0000000000    2.0907907800   -5.5805758500        
  H    10    1     0.0000000000   -4.0745407300   -1.4447408500        
  H    11    1     0.0000000000    4.0745407300   -1.4447408500        
  H    12    1     0.0000000000   -4.0420632100    3.1963889500        
  H    13    1     0.0000000000    4.0420632100    3.1963889500        
  H    14    1     0.0000000000    0.0000000000    5.5020335600        
[5D]
[7F]
[GTO]
  1  0
   s    12 1.00
  0.114200D+05  0.172695D-04
  0.171200D+04  0.134411D-03
  0.389300D+03  0.694561D-03
  0.110000D+03  0.278531D-02
  0.355700D+02  0.863457D-02
  0.125400D+02  0.199805D-01
  0.464400D+01  0.262908D-01
  0.129300D+01 -0.243845D-01
  0.511800D+00 -0.924934D-01
  0.178700D+00 -0.339683D+00
  0.246240D-01  0.345111D+00
  0.112530D-01  0.752750D+00
   s    10 1.00
  0.114200D+05  0.523000D-03
  0.171200D+04  0.404500D-02
  0.389300D+03  0.207750D-01
  0.110000D+03  0.807269D-01
  0.355700D+02  0.233074D+00
  0.125400D+02  0.433501D+00
  0.464400D+01  0.347472D+00
  0.129300D+01  0.412620D-01
  0.511800D+00 -0.850799D-02
  0.178700D+00  0.238400D-02
   s    10 1.00
  0.114200D+05 -0.115000D-03
  0.171200D+04 -0.895000D-03
  0.389300D+03 -0.462400D-02
  0.110000D+03 -0.185280D-01
  0.355700D+02 -0.573390D-01
  0.125400D+02 -0.132076D+00
  0.464400D+01 -0.172510D+00
  0.129300D+01  0.151814D+00
  0.511800D+00  0.599944D+00
  0.178700D+00  0.387462D+00
   s     1 1.00
  0.129300D+01  0.100000D+01
   s     1 1.00
  0.178700D+00  0.100000D+01
   p     5 1.00
  0.266300D+02  0.146700D-01
  0.594800D+01  0.917640D-01
  0.174200D+01  0.298683D+00
  0.555000D+00  0.498487D+00
  0.172500D+00  0.337023D+00
   p     1 1.00
  0.174200D+01  0.100000D+01
   p     1 1.00
  0.555000D+00  0.100000D+01
   d     1 1.00
  0.165400D+01  0.100000D+01
   d     1 1.00
  0.469000D+00  0.100000D+01
   f     1 1.00
  0.109300D+01  0.100000D+01
  
  2  0
   s    10 1.00
  0.823600D+04  0.531000D-03
  0.123500D+04  0.410800D-02
  0.280800D+03  0.210870D-01
  0.792700D+02  0.818530D-01
  0.255900D+02  0.234817D+00
  0.899700D+01  0.434401D+00
  0.331900D+01  0.346129D+00
  0.905900D+00  0.393780D-01
  0.364300D+00 -0.898300D-02
  0.128500D+00  0.238500D-02
   s    10 1.00
  0.823600D+04 -0.113000D-03
  0.123500D+04 -0.878000D-03
  0.280800D+03 -0.454000D-02
  0.792700D+02 -0.181330D-01
  0.255900D+02 -0.557600D-01
  0.899700D+01 -0.126895D+00
  0.331900D+01 -0.170352D+00
  0.905900D+00  0.140382D+00
  0.364300D+00  0.598684D+00
  0.128500D+00  0.395389D+00
   s     1 1.00
  0.905900D+00  0.100000D+01
   s     1 1.00
  0.364300D+00  0.100000D+01
   p     5 1.00
  0.187100D+02  0.140310D-01
  0.413300D+01  0.868660D-01
  0.120000D+01  0.290216D+00
  0.382700D+00  0.501008D+00
  0.120900D+00  0.343406D+00
   p     1 1.00
  0.382700D+00  0.100000D+01
   p     1 1.00
  0.120900D+00  0.100000D+01
   d     1 1.00
  0.109700D+01  0.100000D+01
   d     1 1.00
  0.318000D+00  0.100000D+01
   f     1 1.00
  0.761000D+00  0.100000D+01
  
  3  0
   s    10 1.00
  0.823600D+04  0.531000D-03
  0.123500D+04  0.410800D-02
  0.280800D+03  0.210870D-01
  0.792700D+02  0.818530D-01
  0.255900D+02  0.234817D+00
  0.899700D+01  0.434401D+00
  0.331900D+01  0.346129D+00
  0.905900D+00  0.393780D-01
  0.364300D+00 -0.898300D-02
  0.128500D+00  0.238500D-02
   s    10 1.00
  0.823600D+04 -0.113000D-03
  0.123500D+04 -0.878000D-03
  0.280800D+03 -0.454000D-02
  0.792700D+02 -0.181330D-01
  0.255900D+02 -0.557600D-01
  0.899700D+01 -0.126895D+00
  0.331900D+01 -0.170352D+00
  0.905900D+00  0.140382D+00
  0.364300D+00  0.598684D+00
  0.128500D+00  0.395389D+00
   s     1 1.00
  0.905900D+00  0.100000D+01
   s     1 1.00
  0.364300D+00  0.100000D+01
   p     5 1.00
  0.187100D+02  0.140310D-01
  0.413300D+01  0.868660D-01
  0.120000D+01  0.290216D+00
  0.382700D+00  0.501008D+00
  0.120900D+00  0.343406D+00
   p     1 1.00
  0.382700D+00  0.100000D+01
   p     1 1.00
  0.120900D+00  0.100000D+01
   d     1 1.00
  0.109700D+01  0.100000D+01
   d     1 1.00
  0.318000D+00  0.100000D+01
   f     1 1.00
  0.761000D+00  0.100000D+01
  
  4  0
   s    10 1.00
  0.823600D+04  0.531000D-03
  0.123500D+04  0.410800D-02
  0.280800D+03  0.210870D-01
  0.792700D+02  0.818530D-01
  0.255900D+02  0.234817D+00
  0.899700D+01  0.434401D+00
  0.331900D+01  0.346129D+00
  0.905900D+00  0.393780D-01
  0.364300D+00 -0.898300D-02
  0.128500D+00  0.238500D-02
   s    10 1.00
  0.823600D+04 -0.113000D-03
  0.123500D+04 -0.878000D-03
  0.280800D+03 -0.454000D-02
  0.792700D+02 -0.181330D-01
  0.255900D+02 -0.557600D-01
  0.899700D+01 -0.126895D+00
  0.331900D+01 -0.170352D+00
  0.905900D+00  0.140382D+00
  0.364300D+00  0.598684D+00
  0.128500D+00  0.395389D+00
   s     1 1.00
  0.905900D+00  0.100000D+01
   s     1 1.00
  0.364300D+00  0.100000D+01
   p     5 1.00
  0.187100D+02  0.140310D-01
  0.413300D+01  0.868660D-01
  0.120000D+01  0.290216D+00
  0.382700D+00  0.501008D+00
  0.120900D+00  0.343406D+00
   p     1 1.00
  0.382700D+00  0.100000D+01
   p     1 1.00
  0.120900D+00  0.100000D+01
   d     1 1.00
  0.109700D+01  0.100000D+01
   d     1 1.00
  0.318000D+00  0.100000D+01
   f     1 1.00
  0.761000D+00  0.100000D+01
  
  5  0
   s    10 1.00
  0.823600D+04  0.531000D-03
  0.123500D+04  0.410800D-02
  0.280800D+03  0.210870D-01
  0.792700D+02  0.818530D-01
  0.255900D+02  0.234817D+00
  0.899700D+01  0.434401D+00
  0.331900D+01  0.346129D+00
  0.905900D+00  0.393780D-01
  0.364300D+00 -0.898300D-02
  0.128500D+00  0.238500D-02
   s    10 1.00
  0.823600D+04 -0.113000D-03
  0.123500D+04 -0.878000D-03
  0.280800D+03 -0.454000D-02
  0.792700D+02 -0.181330D-01
  0.255900D+02 -0.557600D-01
  0.899700D+01 -0.126895D+00
  0.331900D+01 -0.170352D+00
  0.905900D+00  0.140382D+00
  0.364300D+00  0.598684D+00
  0.128500D+00  0.395389D+00
   s     1 1.00
  0.905900D+00  0.100000D+01
   s     1 1.00
  0.364300D+00  0.100000D+01
   p     5 1.00
  0.187100D+02  0.140310D-01
  0.413300D+01  0.868660D-01
  0.120000D+01  0.290216D+00
  0.382700D+00  0.501008D+00
  0.120900D+00  0.343406D+00
   p     1 1.00
  0.382700D+00  0.100000D+01
   p     1 1.00
  0.120900D+00  0.100000D+01
   d     1 1.00
  0.109700D+01  0.100000D+01
   d     1 1.00
  0.318000D+00  0.100000D+01
   f     1 1.00
  0.761000D+00  0.100000D+01
  
  6  0
   s    10 1.00
  0.823600D+04  0.531000D-03
  0.123500D+04  0.410800D-02
  0.280800D+03  0.210870D-01
  0.792700D+02  0.818530D-01
  0.255900D+02  0.234817D+00
  0.899700D+01  0.434401D+00
  0.331900D+01  0.346129D+00
  0.905900D+00  0.393780D-01
  0.364300D+00 -0.898300D-02
  0.128500D+00  0.238500D-02
   s    10 1.00
  0.823600D+04 -0.113000D-03
  0.123500D+04 -0.878000D-03
  0.280800D+03 -0.454000D-02
  0.792700D+02 -0.181330D-01
  0.255900D+02 -0.557600D-01
  0.899700D+01 -0.126895D+00
  0.331900D+01 -0.170352D+00
  0.905900D+00  0.140382D+00
  0.364300D+00  0.598684D+00
  0.128500D+00  0.395389D+00
   s     1 1.00
  0.905900D+00  0.100000D+01
   s     1 1.00
  0.364300D+00  0.100000D+01
   p     5 1.00
  0.187100D+02  0.140310D-01
  0.413300D+01  0.868660D-01
  0.120000D+01  0.290216D+00
  0.382700D+00  0.501008D+00
  0.120900D+00  0.343406D+00
   p     1 1.00
  0.382700D+00  0.100000D+01
   p     1 1.00
  0.120900D+00  0.100000D+01
   d     1 1.00
  0.109700D+01  0.100000D+01
   d     1 1.00
  0.318000D+00  0.100000D+01
   f     1 1.00
  0.761000D+00  0.100000D+01
  
  7  0
   s    10 1.00
  0.823600D+04  0.531000D-03
  0.123500D+04  0.410800D-02
  0.280800D+03  0.210870D-01
  0.792700D+02  0.818530D-01
  0.255900D+02  0.234817D+00
  0.899700D+01  0.434401D+00
  0.331900D+01  0.346129D+00
  0.905900D+00  0.393780D-01
  0.364300D+00 -0.898300D-02
  0.128500D+00  0.238500D-02
   s    10 1.00
  0.823600D+04 -0.113000D-03
  0.123500D+04 -0.878000D-03
  0.280800D+03 -0.454000D-02
  0.792700D+02 -0.181330D-01
  0.255900D+02 -0.557600D-01
  0.899700D+01 -0.126895D+00
  0.331900D+01 -0.170352D+00
  0.905900D+00  0.140382D+00
  0.364300D+00  0.598684D+00
  0.128500D+00  0.395389D+00
   s     1 1.00
  0.905900D+00  0.100000D+01
   s     1 1.00
  0.364300D+00  0.100000D+01
   p     5 1.00
  0.187100D+02  0.140310D-01
  0.413300D+01  0.868660D-01
  0.120000D+01  0.290216D+00
  0.382700D+00  0.501008D+00
  0.120900D+00  0.343406D+00
   p     1 1.00
  0.382700D+00  0.100000D+01
   p     1 1.00
  0.120900D+00  0.100000D+01
   d     1 1.00
  0.109700D+01  0.100000D+01
   d     1 1.00
  0.318000D+00  0.100000D+01
   f     1 1.00
  0.761000D+00  0.100000D+01
  
  8  0
   s     4 1.00
  0.130100D+02  0.196850D-01
  0.196200D+01  0.137977D+00
  0.444600D+00  0.478148D+00
  0.122000D+00  0.501240D+00
   s     1 1.00
  0.122000D+00  0.100000D+01
   p     1 1.00
  0.727000D+00  0.100000D+01
  
  9  0
   s     4 1.00
  0.130100D+02  0.196850D-01
  0.196200D+01  0.137977D+00
  0.444600D+00  0.478148D+00
  0.122000D+00  0.501240D+00
   s     1 1.00
  0.122000D+00  0.100000D+01
   p     1 1.00
  0.727000D+00  0.100000D+01
  
 10  0
   s     4 1.00
  0.130100D+02  0.196850D-01
  0.196200D+01  0.137977D+00
  0.444600D+00  0.478148D+00
  0.122000D+00  0.501240D+00
   s     1 1.00
  0.122000D+00  0.100000D+01
   p     1 1.00
  0.727000D+00  0.100000D+01
  
 11  0
   s     4 1.00
  0.130100D+02  0.196850D-01
  0.196200D+01  0.137977D+00
  0.444600D+00  0.478148D+00
  0.122000D+00  0.501240D+00
   s     1 1.00
  0.122000D+00  0.100000D+01
   p     1 1.00
  0.727000D+00  0.100000D+01
  
 12  0
   s     4 1.00
  0.130100D+02  0.196850D-01
  0.196200D+01  0.137977D+00
  0.444600D+00  0.478148D+00
  0.122000D+00  0.501240D+00
   s     1 1.00
  0.122000D+00  0.100000D+01
   p     1 1.00
  0.727000D+00  0.100000D+01
  
 13  0
   s     4 1.00
  0.130100D+02  0.196850D-01
  0.196200D+01  0.137977D+00
  0.444600D+00  0.478148D+00
  0.122000D+00  0.501240D+00
   s     1 1.00
  0.122000D+00  0.100000D+01
   p     1 1.00
  0.727000D+00  0.100000D+01
  
 14  0
   s     4 1.00
  0.130100D+02  0.196850D-01
  0.196200D+01  0.137977D+00
  0.444600D+00  0.478148D+00
  0.122000D+00  0.501240D+00
   s     1 1.00
  0.122000D+00  0.100000D+01
   p     1 1.00
  0.727000D+00  0.100000D+01
  
[MO]
 Sym= __1_a__
 Ene=  0.000000000000000E+000
 Spin= Alpha
 Occup=    2.00000000000000     
                     1 -2.124940164040330E-005
                     2  0.998707040509932     
                     3  2.692345634024600E-003
                     4  1.393975640112160E-003
                     5  3.789898768671880E-003
                     6  2.453983157995770E-011
                     7 -6.340070068262830E-009
                     8  6.036744792667290E-003
                     9 -9.293075717120241E-012
                    10  1.038074140093200E-008
                    11 -4.016923652436480E-004
                    12 -1.247206435508910E-011
                    13 -3.564390634432850E-008
                    14 -1.498945172598670E-003
                    15  2.507014227335184E-004
                    16 -1.423023672003100E-013
                    17 -7.967853920634300E-011
                    18  5.415132778344140E-005
                    19  3.446669257455130E-013
                    20  9.706641599103973E-005
                    21  6.249448008417050E-012
                    22 -2.312537336962970E-008
                    23  3.899178087255360E-004
                    24  2.166968817691720E-012
                    25 -1.080987787539341E-004
                    26  1.475651974447642E-012
                    27 -8.081789847549753E-009
                    28  1.175316813370504E-005
                    29  6.474304724306020E-013
                    30 -3.751084068693060E-013
                    31 -4.389722995036804E-010
                    32 -2.909282301886330E-004
                    33  1.682058648557110E-003
                    34  1.938215715119260E-004
                    35 -2.444139482906590E-004
                    36  4.172397271537800E-012
                    37  2.388237331762000E-008
                    38 -4.831493155429430E-003
                    39 -3.022228311831510E-012
                    40 -1.008405949102070E-007
                    41  7.932029029021250E-005
                    42 -4.962065834863980E-012
                    43 -1.628282538528900E-007
                    44  5.124184099348610E-003
                    45  2.409843425018983E-004
                    46 -2.171851675773040E-013
                    47  4.487894723230380E-009
                    48  1.026742722993358E-004
                    49  2.393749466891830E-014
                    50  1.742459654917969E-004
                    51  1.146582105671180E-011
                    52 -1.490799054654400E-007
                    53 -2.702609482856040E-004
                    54 -5.661203404491240E-012
                    55 -1.017071049911037E-004
                    56 -1.299396207928480E-012
                    57  7.844522492195812E-009
                    58  4.344812341909340E-005
                    59 -1.768261201080290E-012
                    60  2.348779304562529E-012
                    61  4.989954764516525E-009
                    62 -2.826128153873520E-004
                    63 -1.509273977510820E-003
                    64  5.282734966242590E-005
                    65  8.011203665380750E-004
                    66  2.736776737447450E-012
                    67 -6.018153455016490E-004
                    68  5.475063972172060E-004
                    69 -1.108948202512510E-011
                    70  4.257125723225300E-006
                    71  5.412921371841720E-004
                    72 -2.838371841190490E-012
                    73 -1.013252291697970E-003
                    74 -2.850921558580710E-004
                    75  7.194337128949337E-005
                    76 -2.027206786792930E-014
                    77 -5.118524925799140E-006
                    78  1.812878846731282E-005
                    79 -1.417728931822810E-013
                    80  2.977392880969620E-005
                    81 -1.483330609318900E-013
                    82  5.892239287628490E-005
                    83  2.964100776466400E-006
                    84 -3.714629259066800E-012
                    85 -9.547738617346263E-005
                    86  1.918469381203992E-013
                    87 -2.345273502561848E-005
                    88  2.386075698058880E-005
                    89 -1.656662099886020E-012
                    90 -3.177327486075027E-012
                    91  1.034241924068021E-005
                    92 -2.826071162517300E-004
                    93 -1.509236737694360E-003
                    94  5.294645149786430E-005
                    95  8.007342488436570E-004
                    96 -3.225183224044990E-012
                    97  6.018484063983930E-004
                    98  5.476015523178570E-004
                    99  8.120076558978660E-013
                   100 -4.433465742294200E-006
                   101  5.407035366440340E-004
                   102  7.088103684272550E-012
                   103  1.012811998521360E-003
                   104 -2.853343852821830E-004
                   105  7.191810159287077E-005
                   106 -4.704564207904399E-013
                   107  5.128974828630100E-006
                   108  1.813168129206838E-005
                   109  1.911912113122300E-012
                   110  2.941236730564017E-005
                   111 -6.587793860047460E-013
                   112 -5.894848743219350E-005
                   113  2.858969639561280E-006
                   114 -3.029742903364990E-013
                   115 -9.543091678789935E-005
                   116  2.703138568760956E-012
                   117  2.343313110124395E-005
                   118  2.386452582446480E-005
                   119 -1.505721279204060E-012
                   120 -3.673688740020455E-013
                   121 -1.034177425936259E-005
                   122 -2.093604857334650E-004
                   123 -3.742766828526250E-004
                   124  1.066757205252150E-004
                   125  3.354237840814660E-004
                   126  4.556070515188950E-013
                   127  9.606517099503420E-006
                   128 -4.983734551214490E-004
                   129  4.281625801155330E-012
                   130  9.899252411720560E-005
                   131  3.294984643244650E-004
                   132 -3.487677970425480E-013
                   133 -1.863511144976650E-004
                   134  8.207023172404080E-004
                   135 -1.983849495679880E-005
                   136  1.685852456929580E-012
                   137 -2.499538874166210E-006
                   138 -5.045892890542940E-006
                   139  6.985481858093440E-013
                   140 -2.127699958317056E-004
                   141 -3.189359620585920E-012
                   142  1.329270870658810E-004
                   143  2.265142783573960E-005
                   144  1.124328572761880E-012
                   145 -4.170832936823813E-005
                   146  1.714447404921908E-012
                   147  5.470613373579675E-006
                   148 -9.892730105733479E-006
                   149 -1.541694559671240E-012
                   150 -5.823848616828235E-013
                   151 -5.491732344958232E-006
                   152 -2.096470532315870E-004
                   153 -3.752848889037330E-004
                   154  1.064358050934150E-004
                   155  3.370521138433480E-004
                   156  1.199519647496510E-011
                   157 -9.681346488032270E-006
                   158 -4.982902091028740E-004
                   159 -2.623881825212210E-012
                   160 -9.879956574125580E-005
                   161  3.289674158052810E-004
                   162 -9.822357232701519E-012
                   163  1.868531561777700E-004
                   164  8.204609725573280E-004
                   165 -1.980304419378755E-005
                   166  3.200010754766190E-013
                   167  2.510411302317290E-006
                   168 -5.061336733681380E-006
                   169  5.751436803302820E-013
                   170 -2.125519179297254E-004
                   171 -1.220739844151250E-012
                   172 -1.329415615761740E-004
                   173  2.271067645741940E-005
                   174  4.563514681692890E-012
                   175 -4.165359853963656E-005
                   176  1.400800233355193E-012
                   177 -5.440845040700997E-006
                   178 -9.905829175479360E-006
                   179  2.706837288568810E-013
                   180 -1.207846246130565E-012
                   181  5.480187752300207E-006
                   182 -1.542295588297190E-004
                   183 -4.321498194397000E-004
                   184  4.950810728680880E-005
                   185  2.158951074483280E-004
                   186 -6.370551463006620E-012
                   187 -2.782471402954820E-008
                   188 -5.203034384648810E-005
                   189  8.065063859779790E-012
                   190  6.341048876080340E-008
                   191  5.086710792495950E-005
                   192  3.105398227632480E-012
                   193  1.956771511709600E-007
                   194 -8.696653040850360E-005
                   195  1.433265702614389E-005
                   196  1.493181558145410E-013
                   197  6.506627428790120E-010
                   198  5.843404167114360E-006
                   199 -7.912875052585700E-013
                   200  5.212136135153830E-005
                   201 -2.002091589089600E-012
                   202 -2.050158922118270E-008
                   203  6.492923945833680E-005
                   204  2.972687385769650E-012
                   205 -6.288085034930343E-006
                   206  2.886861642473657E-012
                   207 -6.915953615132232E-009
                   208 -3.536732924496200E-006
                   209 -1.710202368791900E-012
                   210  9.646178362324119E-014
                   211 -3.524332598860577E-009
                   212  3.880216501061160E-004
                   213 -4.639473531464360E-004
                   214 -1.563538456369250E-012
                   215  2.747421455348340E-004
                   216  2.082242948048550E-004
                   217  3.880183759742460E-004
                   218 -4.639398839672660E-004
                   219 -1.130753776762210E-012
                   220 -2.747465264186800E-004
                   221  2.082254059014940E-004
                   222 -3.382547108156380E-004
                   223 -5.020239165229710E-004
                   224  2.504141173266500E-012
                   225  1.510744276695540E-007
                   226 -3.812747125141590E-005
                   227 -3.383159670664990E-004
                   228 -5.018445293600110E-004
                   229 -2.088743577227830E-012
                   230 -1.699279098059110E-007
                   231 -3.815191237322090E-005
                   232 -1.186316056035710E-004
                   233 -4.616871639904440E-004
                   234 -1.060655678462030E-012
                   235  1.749143737002250E-007
                   236 -5.886505774613900E-007
                   237 -1.187489936519340E-004
                   238 -4.617153020556220E-004
                   239 -5.899418237189560E-013
                   240 -1.195473335010700E-007
                   241 -5.676263716317050E-007
                   242  2.611536954758080E-005
                   243 -7.384267529566479E-005
                   244 -1.078021838450950E-012
                   245  1.919553629819500E-009
                   246  1.782868302079090E-005
 Sym= __2_a__
 Ene=  0.000000000000000E+000
 Spin= Alpha
 Occup=    2.00000000000000     
                     1 -6.064121576392510E-005
                     2 -3.226169751998470E-004
                     3  2.945671126371450E-003
                     4  1.517376107213660E-004
                     5  1.285010633665340E-003
                     6 -9.033430730515899E-012
                     7  4.169249047922410E-009
                     8  3.088752827797700E-003
                     9  6.118274612756930E-012
                    10 -3.010396397924470E-009
                    11 -1.001116940303680E-004
                    12  3.514101505423930E-012
                    13  2.890126431954670E-009
                    14 -4.379532158834970E-004
                    15  3.829571128267707E-005
                    16  2.084412438345730E-013
                    17  6.959105548571860E-010
                    18  6.197009401142640E-005
                    19  6.335672758239140E-013
                    20 -9.919656690796547E-005
                    21 -1.775249285963550E-012
                    22 -1.410189800898320E-009
                    23 -2.067924495973760E-004
                    24 -2.654840964694850E-012
                    25  1.780943594637112E-004
                    26 -1.650253724923463E-012
                    27 -1.675660744920670E-010
                    28 -1.472279993626548E-005
                    29  1.306928113379810E-012
                    30  1.122545335556735E-012
                    31  8.444313074231555E-010
                    32   1.00102192781984     
                    33  9.370207151791120E-003
                    34  2.714840999935590E-003
                    35 -8.000478937138030E-003
                    36  5.900457824165900E-012
                    37 -4.949110610369930E-009
                    38 -4.085747086290130E-003
                    39 -1.094025436787230E-011
                    40 -1.073420237527800E-010
                    41  8.190013607742850E-004
                    42  1.414878929848160E-011
                    43 -6.366776939281710E-008
                    44  4.385718736125520E-003
                    45  4.762719100627950E-004
                    46  2.038933762249410E-013
                    47 -2.440713401342450E-009
                    48 -4.097891108209500E-004
                    49  8.889617421523300E-013
                    50  5.024994181683132E-004
                    51 -1.532141093476780E-012
                    52  3.500774083524110E-009
                    53  9.099174773611780E-004
                    54  5.752283946580040E-012
                    55  3.801000277570315E-004
                    56 -6.524851568826360E-013
                    57 -8.888870300728210E-010
                    58 -1.868393684029770E-004
                    59 -2.984708326450240E-013
                    60 -3.220813198301955E-012
                    61  1.373023912615921E-009
                    62  8.300025648004970E-003
                    63 -2.098989137351170E-003
                    64 -2.772899467980380E-004
                    65  3.026755852110140E-003
                    66 -6.151340751323230E-012
                    67  1.032814772720720E-005
                    68  7.756755462835701E-005
                    69  9.955428246306270E-012
                    70  6.453116752854260E-004
                    71  3.564991553236330E-005
                    72 -1.249300699087350E-011
                    73 -2.072386730910790E-003
                    74  9.443665090994240E-005
                    75 -1.100937853463066E-005
                    76 -2.358726135052140E-012
                    77  9.244948099491401E-006
                    78  3.006828571149200E-005
                    79 -1.210803909037120E-012
                    80  7.399001894500231E-004
                    81 -4.746662463304170E-012
                    82 -3.805074537752750E-004
                    83 -3.536328186267760E-005
                    84  8.010619559590510E-012
                    85  7.435408695134360E-005
                    86 -4.575357246301460E-014
                    87  4.398875046042086E-005
                    88 -1.304747785756998E-004
                    89 -2.634395773685790E-012
                    90 -2.059748169036721E-013
                    91  4.723474070408087E-005
                    92  8.299998874019200E-003
                    93 -2.099069706376020E-003
                    94 -2.773262006014000E-004
                    95  3.026938976673670E-003
                    96  3.080376821288350E-012
                    97 -1.032858656705880E-005
                    98  7.754895226529090E-005
                    99 -3.210335023511360E-012
                   100 -6.453158515221110E-004
                   101  3.575648608884180E-005
                   102 -1.827187796879850E-011
                   103  2.072488826881420E-003
                   104  9.429019429053119E-005
                   105 -1.099582408752200E-005
                   106 -2.221139628379700E-013
                   107 -9.250570824246030E-006
                   108  3.006689020438880E-005
                   109 -3.647129164597130E-012
                   110  7.399414211541693E-004
                   111 -9.623713480453109E-012
                   112  3.805516441896160E-004
                   113 -3.534802906823920E-005
                   114  1.454361404265220E-012
                   115  7.434358559786560E-005
                   116  1.148410549841519E-013
                   117 -4.398571845246970E-005
                   118 -1.304725018241370E-004
                   119  1.185361992056650E-012
                   120  6.322367476653585E-013
                   121 -4.723323118512646E-005
                   122 -1.965286315517950E-004
                   123 -7.070216100309950E-004
                   124  2.272375627926740E-004
                   125 -1.155366807667920E-004
                   126  4.581320062586560E-012
                   127 -6.597427847195120E-006
                   128 -3.210924355143730E-004
                   129 -5.857395041510010E-012
                   130 -4.016106352286570E-005
                   131  5.444913485148700E-004
                   132  2.080157301596300E-011
                   133  3.248051155405280E-004
                   134  7.583531473648450E-004
                   135 -1.316032961636355E-005
                   136 -2.171594916351130E-012
                   137  5.314402599701360E-005
                   138  1.481517288178700E-005
                   139  2.841758329494340E-013
                   140 -2.861568909380171E-004
                   141  8.957362365390640E-013
                   142 -1.968617104306250E-004
                   143 -1.033531524659986E-005
                   144 -4.284460790053760E-012
                   145  1.568224041260983E-006
                   146  8.162061265498260E-013
                   147 -4.471281571212430E-005
                   148 -4.190534747886320E-005
                   149 -1.274856573775410E-012
                   150  1.891131912233510E-012
                   151 -5.186902556512577E-006
                   152 -1.962628310603730E-004
                   153 -7.061439721480360E-004
                   154  2.272807092044070E-004
                   155 -1.164073685129210E-004
                   156 -6.708257307647490E-012
                   157  6.591803631839710E-006
                   158 -3.210954157661510E-004
                   159  1.287944997545890E-011
                   160  4.018299641226290E-005