[Molden Format]
[Atoms] AU
  N     1    7     0.0000000000    0.0000000000   -4.2907334100        
  C     2    6     0.0000000000    0.0000000000   -1.7772236300        
  C     3    6     0.0000000000   -2.3389203600   -0.4111016300        
  C     4    6     0.0000000000    2.3389203600   -0.4111016300        
  C     5    6     0.0000000000   -2.2998668500    2.1639215300        
  C     6    6     0.0000000000    2.2998668500    2.1639215300        
  C     7    6     0.0000000000    0.0000000000    3.4755251800        
  H     8    1     0.0000000000   -1.1258104200   -4.9852639500        
  H     9    1     0.0000000000    1.2866404800   -5.0844826000        
  H    10    1     0.0000000000   -4.0745407300   -1.4447408500        
  H    11    1     0.0000000000    4.0745407300   -1.4447408500        
  H    12    1     0.0000000000   -4.0420632100    3.1963889500        
  H    13    1     0.0000000000    4.0420632100    3.1963889500        
  H    14    1     0.0000000000    0.0000000000    5.5020335600        
[5D]
[7F]
[GTO]
  1  0
   s    12 1.00
  0.114200D+05  0.172695D-04
  0.171200D+04  0.134411D-03
  0.389300D+03  0.694561D-03
  0.110000D+03  0.278531D-02
  0.355700D+02  0.863457D-02
  0.125400D+02  0.199805D-01
  0.464400D+01  0.262908D-01
  0.129300D+01 -0.243845D-01
  0.511800D+00 -0.924934D-01
  0.178700D+00 -0.339683D+00
  0.246240D-01  0.345111D+00
  0.112530D-01  0.752750D+00
   s    10 1.00
  0.114200D+05  0.523000D-03
  0.171200D+04  0.404500D-02
  0.389300D+03  0.207750D-01
  0.110000D+03  0.807269D-01
  0.355700D+02  0.233074D+00
  0.125400D+02  0.433501D+00
  0.464400D+01  0.347472D+00
  0.129300D+01  0.412620D-01
  0.511800D+00 -0.850799D-02
  0.178700D+00  0.238400D-02
   s    10 1.00
  0.114200D+05 -0.115000D-03
  0.171200D+04 -0.895000D-03
  0.389300D+03 -0.462400D-02
  0.110000D+03 -0.185280D-01
  0.355700D+02 -0.573390D-01
  0.125400D+02 -0.132076D+00
  0.464400D+01 -0.172510D+00
  0.129300D+01  0.151814D+00
  0.511800D+00  0.599944D+00
  0.178700D+00  0.387462D+00
   s     1 1.00
  0.129300D+01  0.100000D+01
   s     1 1.00
  0.178700D+00  0.100000D+01
   p     5 1.00
  0.266300D+02  0.146700D-01
  0.594800D+01  0.917640D-01
  0.174200D+01  0.298683D+00
  0.555000D+00  0.498487D+00
  0.172500D+00  0.337023D+00
   p     1 1.00
  0.174200D+01  0.100000D+01
   p     1 1.00
  0.555000D+00  0.100000D+01
   d     1 1.00
  0.165400D+01  0.100000D+01
   d     1 1.00
  0.469000D+00  0.100000D+01
   f     1 1.00
  0.109300D+01  0.100000D+01
  
  2  0
   s    10 1.00
  0.823600D+04  0.531000D-03
  0.123500D+04  0.410800D-02
  0.280800D+03  0.210870D-01
  0.792700D+02  0.818530D-01
  0.255900D+02  0.234817D+00
  0.899700D+01  0.434401D+00
  0.331900D+01  0.346129D+00
  0.905900D+00  0.393780D-01
  0.364300D+00 -0.898300D-02
  0.128500D+00  0.238500D-02
   s    10 1.00
  0.823600D+04 -0.113000D-03
  0.123500D+04 -0.878000D-03
  0.280800D+03 -0.454000D-02
  0.792700D+02 -0.181330D-01
  0.255900D+02 -0.557600D-01
  0.899700D+01 -0.126895D+00
  0.331900D+01 -0.170352D+00
  0.905900D+00  0.140382D+00
  0.364300D+00  0.598684D+00
  0.128500D+00  0.395389D+00
   s     1 1.00
  0.905900D+00  0.100000D+01
   s     1 1.00
  0.364300D+00  0.100000D+01
   p     5 1.00
  0.187100D+02  0.140310D-01
  0.413300D+01  0.868660D-01
  0.120000D+01  0.290216D+00
  0.382700D+00  0.501008D+00
  0.120900D+00  0.343406D+00
   p     1 1.00
  0.382700D+00  0.100000D+01
   p     1 1.00
  0.120900D+00  0.100000D+01
   d     1 1.00
  0.109700D+01  0.100000D+01
   d     1 1.00
  0.318000D+00  0.100000D+01
   f     1 1.00
  0.761000D+00  0.100000D+01
  
  3  0
   s    10 1.00
  0.823600D+04  0.531000D-03
  0.123500D+04  0.410800D-02
  0.280800D+03  0.210870D-01
  0.792700D+02  0.818530D-01
  0.255900D+02  0.234817D+00
  0.899700D+01  0.434401D+00
  0.331900D+01  0.346129D+00
  0.905900D+00  0.393780D-01
  0.364300D+00 -0.898300D-02
  0.128500D+00  0.238500D-02
   s    10 1.00
  0.823600D+04 -0.113000D-03
  0.123500D+04 -0.878000D-03
  0.280800D+03 -0.454000D-02
  0.792700D+02 -0.181330D-01
  0.255900D+02 -0.557600D-01
  0.899700D+01 -0.126895D+00
  0.331900D+01 -0.170352D+00
  0.905900D+00  0.140382D+00
  0.364300D+00  0.598684D+00
  0.128500D+00  0.395389D+00
   s     1 1.00
  0.905900D+00  0.100000D+01
   s     1 1.00
  0.364300D+00  0.100000D+01
   p     5 1.00
  0.187100D+02  0.140310D-01
  0.413300D+01  0.868660D-01
  0.120000D+01  0.290216D+00
  0.382700D+00  0.501008D+00
  0.120900D+00  0.343406D+00
   p     1 1.00
  0.382700D+00  0.100000D+01
   p     1 1.00
  0.120900D+00  0.100000D+01
   d     1 1.00
  0.109700D+01  0.100000D+01
   d     1 1.00
  0.318000D+00  0.100000D+01
   f     1 1.00
  0.761000D+00  0.100000D+01
  
  4  0
   s    10 1.00
  0.823600D+04  0.531000D-03
  0.123500D+04  0.410800D-02
  0.280800D+03  0.210870D-01
  0.792700D+02  0.818530D-01
  0.255900D+02  0.234817D+00
  0.899700D+01  0.434401D+00
  0.331900D+01  0.346129D+00
  0.905900D+00  0.393780D-01
  0.364300D+00 -0.898300D-02
  0.128500D+00  0.238500D-02
   s    10 1.00
  0.823600D+04 -0.113000D-03
  0.123500D+04 -0.878000D-03
  0.280800D+03 -0.454000D-02
  0.792700D+02 -0.181330D-01
  0.255900D+02 -0.557600D-01
  0.899700D+01 -0.126895D+00
  0.331900D+01 -0.170352D+00
  0.905900D+00  0.140382D+00
  0.364300D+00  0.598684D+00
  0.128500D+00  0.395389D+00
   s     1 1.00
  0.905900D+00  0.100000D+01
   s     1 1.00
  0.364300D+00  0.100000D+01
   p     5 1.00
  0.187100D+02  0.140310D-01
  0.413300D+01  0.868660D-01
  0.120000D+01  0.290216D+00
  0.382700D+00  0.501008D+00
  0.120900D+00  0.343406D+00
   p     1 1.00
  0.382700D+00  0.100000D+01
   p     1 1.00
  0.120900D+00  0.100000D+01
   d     1 1.00
  0.109700D+01  0.100000D+01
   d     1 1.00
  0.318000D+00  0.100000D+01
   f     1 1.00
  0.761000D+00  0.100000D+01
  
  5  0
   s    10 1.00
  0.823600D+04  0.531000D-03
  0.123500D+04  0.410800D-02
  0.280800D+03  0.210870D-01
  0.792700D+02  0.818530D-01
  0.255900D+02  0.234817D+00
  0.899700D+01  0.434401D+00
  0.331900D+01  0.346129D+00
  0.905900D+00  0.393780D-01
  0.364300D+00 -0.898300D-02
  0.128500D+00  0.238500D-02
   s    10 1.00
  0.823600D+04 -0.113000D-03
  0.123500D+04 -0.878000D-03
  0.280800D+03 -0.454000D-02
  0.792700D+02 -0.181330D-01
  0.255900D+02 -0.557600D-01
  0.899700D+01 -0.126895D+00
  0.331900D+01 -0.170352D+00
  0.905900D+00  0.140382D+00
  0.364300D+00  0.598684D+00
  0.128500D+00  0.395389D+00
   s     1 1.00
  0.905900D+00  0.100000D+01
   s     1 1.00
  0.364300D+00  0.100000D+01
   p     5 1.00
  0.187100D+02  0.140310D-01
  0.413300D+01  0.868660D-01
  0.120000D+01  0.290216D+00
  0.382700D+00  0.501008D+00
  0.120900D+00  0.343406D+00
   p     1 1.00
  0.382700D+00  0.100000D+01
   p     1 1.00
  0.120900D+00  0.100000D+01
   d     1 1.00
  0.109700D+01  0.100000D+01
   d     1 1.00
  0.318000D+00  0.100000D+01
   f     1 1.00
  0.761000D+00  0.100000D+01
  
  6  0
   s    10 1.00
  0.823600D+04  0.531000D-03
  0.123500D+04  0.410800D-02
  0.280800D+03  0.210870D-01
  0.792700D+02  0.818530D-01
  0.255900D+02  0.234817D+00
  0.899700D+01  0.434401D+00
  0.331900D+01  0.346129D+00
  0.905900D+00  0.393780D-01
  0.364300D+00 -0.898300D-02
  0.128500D+00  0.238500D-02
   s    10 1.00
  0.823600D+04 -0.113000D-03
  0.123500D+04 -0.878000D-03
  0.280800D+03 -0.454000D-02
  0.792700D+02 -0.181330D-01
  0.255900D+02 -0.557600D-01
  0.899700D+01 -0.126895D+00
  0.331900D+01 -0.170352D+00
  0.905900D+00  0.140382D+00
  0.364300D+00  0.598684D+00
  0.128500D+00  0.395389D+00
   s     1 1.00
  0.905900D+00  0.100000D+01
   s     1 1.00
  0.364300D+00  0.100000D+01
   p     5 1.00
  0.187100D+02  0.140310D-01
  0.413300D+01  0.868660D-01
  0.120000D+01  0.290216D+00
  0.382700D+00  0.501008D+00
  0.120900D+00  0.343406D+00
   p     1 1.00
  0.382700D+00  0.100000D+01
   p     1 1.00
  0.120900D+00  0.100000D+01
   d     1 1.00
  0.109700D+01  0.100000D+01
   d     1 1.00
  0.318000D+00  0.100000D+01
   f     1 1.00
  0.761000D+00  0.100000D+01
  
  7  0
   s    10 1.00
  0.823600D+04  0.531000D-03
  0.123500D+04  0.410800D-02
  0.280800D+03  0.210870D-01
  0.792700D+02  0.818530D-01
  0.255900D+02  0.234817D+00
  0.899700D+01  0.434401D+00
  0.331900D+01  0.346129D+00
  0.905900D+00  0.393780D-01
  0.364300D+00 -0.898300D-02
  0.128500D+00  0.238500D-02
   s    10 1.00
  0.823600D+04 -0.113000D-03
  0.123500D+04 -0.878000D-03
  0.280800D+03 -0.454000D-02
  0.792700D+02 -0.181330D-01
  0.255900D+02 -0.557600D-01
  0.899700D+01 -0.126895D+00
  0.331900D+01 -0.170352D+00
  0.905900D+00  0.140382D+00
  0.364300D+00  0.598684D+00
  0.128500D+00  0.395389D+00
   s     1 1.00
  0.905900D+00  0.100000D+01
   s     1 1.00
  0.364300D+00  0.100000D+01
   p     5 1.00
  0.187100D+02  0.140310D-01
  0.413300D+01  0.868660D-01
  0.120000D+01  0.290216D+00
  0.382700D+00  0.501008D+00
  0.120900D+00  0.343406D+00
   p     1 1.00
  0.382700D+00  0.100000D+01
   p     1 1.00
  0.120900D+00  0.100000D+01
   d     1 1.00
  0.109700D+01  0.100000D+01
   d     1 1.00
  0.318000D+00  0.100000D+01
   f     1 1.00
  0.761000D+00  0.100000D+01
  
  8  0
   s     4 1.00
  0.130100D+02  0.196850D-01
  0.196200D+01  0.137977D+00
  0.444600D+00  0.478148D+00
  0.122000D+00  0.501240D+00
   s     1 1.00
  0.122000D+00  0.100000D+01
   p     1 1.00
  0.727000D+00  0.100000D+01
  
  9  0
   s     4 1.00
  0.130100D+02  0.196850D-01
  0.196200D+01  0.137977D+00
  0.444600D+00  0.478148D+00
  0.122000D+00  0.501240D+00
   s     1 1.00
  0.122000D+00  0.100000D+01
   p     1 1.00
  0.727000D+00  0.100000D+01
  
 10  0
   s     4 1.00
  0.130100D+02  0.196850D-01
  0.196200D+01  0.137977D+00
  0.444600D+00  0.478148D+00
  0.122000D+00  0.501240D+00
   s     1 1.00
  0.122000D+00  0.100000D+01
   p     1 1.00
  0.727000D+00  0.100000D+01
  
 11  0
   s     4 1.00
  0.130100D+02  0.196850D-01
  0.196200D+01  0.137977D+00
  0.444600D+00  0.478148D+00
  0.122000D+00  0.501240D+00
   s     1 1.00
  0.122000D+00  0.100000D+01
   p     1 1.00
  0.727000D+00  0.100000D+01
  
 12  0
   s     4 1.00
  0.130100D+02  0.196850D-01
  0.196200D+01  0.137977D+00
  0.444600D+00  0.478148D+00
  0.122000D+00  0.501240D+00
   s     1 1.00
  0.122000D+00  0.100000D+01
   p     1 1.00
  0.727000D+00  0.100000D+01
  
 13  0
   s     4 1.00
  0.130100D+02  0.196850D-01
  0.196200D+01  0.137977D+00
  0.444600D+00  0.478148D+00
  0.122000D+00  0.501240D+00
   s     1 1.00
  0.122000D+00  0.100000D+01
   p     1 1.00
  0.727000D+00  0.100000D+01
  
 14  0
   s     4 1.00
  0.130100D+02  0.196850D-01
  0.196200D+01  0.137977D+00
  0.444600D+00  0.478148D+00
  0.122000D+00  0.501240D+00
   s     1 1.00
  0.122000D+00  0.100000D+01
   p     1 1.00
  0.727000D+00  0.100000D+01
  
[MO]
 Sym= __1_A__
 Ene=   1.00000000000000     
 Spin= Alpha
 Occup=    1.00000000000000     
                     1  4.828251544442358E-005
                     2  0.996996101310962     
                     3  1.685552850563003E-002
                     4  3.303475044603669E-003
                     5 -2.937654476416198E-003
                     6 -1.260478093912091E-011
                     7 -6.961233471178443E-004
                     8  3.180178551333567E-003
                     9  6.641364503750905E-012
                    10 -2.878286402452838E-004
                    11 -6.739243468408163E-004
                    12  3.706794528261188E-014
                    13  4.694790368176300E-004
                    14  2.012136531734958E-004
                    15  1.769646913483566E-004
                    16  1.684235608707054E-012
                    17  3.698121834846720E-004
                    18 -1.068631290503916E-003
                    19 -1.660438163261495E-012
                    20  2.596243673285300E-004
                    21 -1.037827467929390E-011
                    22 -4.016552194103025E-004
                    23  4.199305460483706E-004
                    24  6.243730748805272E-012
                    25 -6.242117217711964E-004
                    26 -2.608642440460605E-012
                    27 -2.052437378306358E-005
                    28  7.478086830235778E-004
                    29 -1.617142210384307E-012
                    30  3.107686631188698E-013
                    31  6.230290921393906E-005
                    32 -3.843465595911333E-004
                    33  3.377920234311102E-003
                    34  1.986575740377227E-004
                    35 -3.967015515743549E-004
                    36  9.063959754887914E-013
                    37  2.250773155211214E-004
                    38 -8.604057896605070E-003
                    39  2.619974719512618E-012
                    40 -7.496549827644327E-005
                    41  4.389059553668942E-004
                    42 -6.119216235834842E-012
                    43  1.725027989404268E-004
                    44  2.280163152123930E-003
                    45  3.617101610734869E-004
                    46 -2.465484071742731E-012
                    47  1.842703479285467E-005
                    48  1.792541924113964E-004
                    49  2.741589784485960E-012
                    50 -2.432564422061206E-004
                    51 -8.662823883294670E-012
                    52 -5.457416224479902E-004
                    53 -6.524122535308294E-004
                    54 -1.451400544994763E-011
                    55 -2.257952866793490E-004
                    56  5.789854936520445E-012
                    57  1.635652512013862E-005
                    58  2.096772594113542E-004
                    59 -3.506953728543695E-012
                    60 -2.914502293668000E-012
                    61 -2.746175185264894E-006
                    62 -1.223816860065830E-004
                    63 -1.738530631529200E-003
                    64  8.703365220793407E-005
                    65  9.017979524101622E-005
                    66 -8.303971103196658E-012
                    67 -1.068605850657714E-003
                    68  1.428318014143095E-003
                    69  4.203312576058849E-012
                    70 -2.086444718255607E-004
                    71  5.928593426770013E-004
                    72  1.693631499014428E-011
                    73  2.742728894225503E-004
                    74  1.953374274988735E-004
                    75  1.084580057230713E-004
                    76 -2.074029831510891E-012
                    77 -2.174934599539538E-005
                    78  4.522217034778250E-005
                    79 -1.274281769778209E-012
                    80 -1.130857981831321E-004
                    81  1.488338299345612E-011
                    82  3.566225809740641E-004
                    83 -5.994990367885322E-005
                    84 -6.847004494759592E-013
                    85 -1.054727054236790E-004
                    86  4.488405886097530E-012
                    87 -5.095623662664126E-005
                    88  2.905595892278782E-005
                    89  3.550281506210069E-012
                    90  2.731525172243413E-012
                    91 -7.287411683559079E-007
                    92 -1.439309426005062E-004
                    93 -1.682398173475802E-003
                    94 -8.161879487029054E-006
                    95  7.404414537613835E-004
                    96 -1.557286976876366E-011
                    97  9.402190418397988E-004
                    98  1.229453315368454E-003
                    99  1.334086950590747E-011
                   100 -2.092899177634227E-004
                   101  6.771902939504399E-004
                   102  1.243480424409786E-011
                   103 -2.824677915060391E-004
                   104  4.714255134864665E-004
                   105  1.203709823805973E-004
                   106  7.078695888952013E-013
                   107  5.007088207186583E-005
                   108  3.252492882932370E-005
                   109  2.929083587858958E-012
                   110 -3.188850074278821E-004
                   111 -7.020691124508330E-012
                   112 -3.942799336219468E-004
                   113 -2.166501478446922E-004
                   114 -1.135476066671447E-011
                   115 -1.415913487195561E-004
                   116 -1.257088019763423E-013
                   117  7.302177304299434E-005
                   118  3.954860587052636E-005
                   119  1.738937914329535E-012
                   120  4.995355668673876E-012
                   121 -5.346781513572963E-007
                   122 -1.083281790599147E-004
                   123  2.895517189059663E-004
                   124  1.133350808944574E-004
                   125 -2.687023939354176E-005
                   126  1.304283481074270E-011
                   127  7.378626420294015E-005
                   128 -1.018505430777300E-003
                   129 -1.285420781828012E-011
                   130 -6.382125035833215E-005
                   131  3.029983588293192E-004
                   132 -2.246022122478421E-011
                   133 -1.035997246090972E-004
                   134  2.291895511597323E-004
                   135 -1.745713225013540E-005
                   136 -1.932707565495341E-012
                   137  1.533106716572646E-006
                   138  6.746112079818314E-006
                   139 -4.907059277991939E-013
                   140 -9.917018312815985E-005
                   141  1.189411315607836E-011
                   142  1.743088877181439E-004
                   143  1.403499956561422E-005
                   144 -2.359915105306174E-012
                   145 -3.402041683621321E-005
                   146 -4.861626235080273E-012
                   147  9.171904657828660E-006
                   148 -3.900185241365702E-006
                   149  6.914235116571575E-013
                   150  4.424568880362204E-013
                   151 -3.813079042463149E-007
                   152 -1.086843928819066E-004
                   153  2.566815206952205E-004
                   154  1.368361173177883E-004
                   155 -1.016536419024466E-006
                   156  1.494965140816517E-012
                   157 -6.256436370395404E-005
                   158 -9.851240924494181E-004
                   159 -1.870591048093033E-012
                   160  8.326187578266014E-005
                   161  3.580191808760717E-004
                   162 -1.081695650830121E-011
                   163  5.103801749260734E-005
                   164  4.797659729054676E-004
                   165 -3.211607937712825E-005
                   166 -6.011347156329455E-013
                   167  2.837277326436179E-006
                   168  5.874628034463878E-006
                   169 -5.917535563389641E-013
                   170 -1.497445403280305E-004
                   171 -2.350317289164355E-012
                   172 -2.398778538402457E-004
                   173  1.804658389953259E-005
                   174  1.017292149716454E-011
                   175 -5.416946758432238E-005
                   176 -9.284170115344602E-013
                   177 -5.945676362138127E-006
                   178 -7.613081149643846E-006
                   179  2.514718345434038E-012
                   180 -3.568957464033253E-012
                   181  2.535688184183654E-006
                   182 -8.977216103949957E-005
                   183 -2.134350533280778E-004
                   184  1.389569158375162E-005
                   185  1.033833410235204E-004
                   186 -9.603715106967551E-012
                   187 -5.818307878727926E-006
                   188 -3.546289010724704E-005
                   189  8.047444453685024E-012
                   190 -2.390634400563567E-005
                   191 -4.874076204701076E-005
                   192  1.429821919701187E-011
                   193 -1.407100904352660E-004
                   194  3.517149999321100E-004
                   195  2.580982819849759E-005
                   196  2.561351694225121E-012
                   197 -1.642306988810511E-006
                   198  1.101494845446109E-005
                   199 -8.040515824628268E-013
                   200  5.328828253669428E-005
                   201 -8.110536883897094E-012
                   202  1.527796690176886E-005
                   203  2.889591153632944E-005
                   204  7.271745927116002E-012
                   205 -1.825349468530442E-005
                   206 -2.978227051413797E-012
                   207  1.713375077742255E-006
                   208  1.387366610040503E-005
                   209 -3.611426724632078E-013
                   210  1.985395852109515E-012
                   211  5.671398882815371E-007
                   212  7.438300200223157E-003
                   213 -4.568888518624637E-003
                   214  3.924583222403713E-012
                   215  1.495264877534014E-004
                   216  1.554837915299516E-004
                   217  6.463822872959418E-003
                   218 -3.569139819980666E-003
                   219 -2.536869229218283E-012
                   220 -1.331127554047139E-004
                   221  3.102910629598327E-004
                   222 -8.982242429654496E-004
                   223  4.999221768017545E-004
                   224  2.964115523561586E-014
                   225 -4.363543565246554E-005
                   226 -5.511193979117070E-005
                   227 -9.932228019221684E-004
                   228  5.539907075471053E-004
                   229 -4.624170553651866E-013
                   230  2.576085039185401E-005
                   231 -8.356745662124375E-005
                   232 -3.194451957492856E-004
                   233 -1.937545359576111E-004
                   234  9.575945198423428E-013
                   235 -7.570633530598251E-006
                   236  1.043372819115905E-005
                   237 -2.557764572571878E-004
                   238 -2.422547863030248E-004
                   239  2.242936087644604E-013
                   240  2.651126473817591E-006
                   241  1.474569044539573E-005
                   242  9.854091982460636E-005
                   243 -2.269264793968373E-004
                   244  1.089807023287015E-012
                   245  3.985550171527335E-007
                   246  3.231030493073954E-006
 Sym= __2_A__
 Ene=   2.00000000000000     
 Spin= Alpha
 Occup=    1.00000000000000     
                     1 -2.652013121819968E-005
                     2 -2.265012645717214E-004
                     3  1.272838503025298E-003
                     4  9.200537835098761E-005
                     5  1.817249119030930E-003
                     6 -6.568658325421538E-012
                     7  3.055900008337259E-005
                     8  2.888284147824769E-003
                     9 -2.827212842862421E-012
                    10  1.944438585349847E-005
                    11 -4.626496866709693E-005
                    12  1.665807985034394E-012
                    13 -1.216746387824749E-005
                    14 -2.352585730274407E-004
                    15  1.364350314535609E-005
                    16  3.996021274272795E-013
                    17 -1.057668835942063E-005
                    18  6.349913055407554E-005
                    19 -9.638367219950049E-013
                    20 -4.543904850008615E-004
                    21  2.583335100377012E-013
                    22 -1.552042613962574E-005
                    23 -4.364112942283526E-004
                    24 -2.704652787761100E-012
                    25  1.630726165942933E-004
                    26  5.662520588307336E-014
                    27  1.818067440664207E-005
                    28 -1.856228239837226E-005
                    29  2.196417730391951E-012
                    30 -1.282053538848470E-012
                    31  7.703572882040181E-006
                    32   1.00105187298031     
                    33  9.116747376558232E-003
                    34  2.690437461489945E-003
                    35 -7.771615160372908E-003
                    36  6.028378489091477E-012
                    37 -3.586650512417363E-006
                    38 -3.842774396167121E-003
                    39 -1.059213587726628E-011
                    40  6.521242521947853E-006
                    41  1.103673160768862E-003
                    42 -1.051961593204680E-011
                    43 -2.056973345755586E-005
                    44  4.685275420695906E-003
                    45  4.450805579406196E-004
                    46 -3.675573826655782E-014
                    47  1.997872209628245E-006
                    48 -4.345003652966956E-004
                    49  3.709191396815657E-012
                    50  5.228455610568709E-004
                    51 -8.488831312366442E-012
                    52  1.771298072434232E-006
                    53  9.572003218730626E-004
                    54 -1.824264193146581E-012
                    55  3.612681486826192E-004
                    56  3.080099326399185E-012
                    57 -4.611454689094056E-006
                    58 -2.184873526329950E-004
                    59  2.276335503238347E-012
                    60 -2.415537068880654E-012
                    61 -5.976752012948443E-007
                    62  7.267197327730237E-003
                    63 -2.055740757526886E-003
                    64 -2.809468068128275E-004
                    65  3.106711005362033E-003
                    66 -6.085297639315552E-012
                    67  1.550105202580009E-004
                    68 -9.437895922093063E-005
                    69  8.621777705718752E-012
                    70  5.986672208547891E-004
                    71  3.765256635117892E-005
                    72 -4.256390434202266E-012
                    73 -2.210637969203248E-003
                    74  6.815407134034503E-005
                    75 -1.787956151939004E-005
                    76  1.612720123266815E-012
                    77  1.303143911452805E-005
                    78  2.538951481263942E-005
                    79 -1.968834016332820E-012
                    80  7.787044052696310E-004
                    81 -3.199745292248964E-012
                    82 -4.350280042447184E-004
                    83 -8.324584511619013E-006
                    84  8.418444254725903E-012
                    85  7.230232460859289E-005
                    86 -1.979327240964294E-012
                    87  4.996731802907450E-005
                    88 -1.243562668667753E-004
                    89 -2.816791764483489E-012
                    90 -1.126350712574838E-012
                    91  5.129105115349529E-005
                    92  7.268149564448542E-003
                    93 -2.051476214164174E-003
                    94 -2.816025740120466E-004
                    95  3.103078045690464E-003
                    96  1.426480198316302E-011
                    97 -1.543477870441849E-004
                    98 -9.617493230758033E-005
                    99 -2.039345527219976E-011
                   100 -5.970027697895986E-004
                   101  4.876423851128897E-005
                   102  3.825714969430026E-012
                   103  2.205593353984305E-003
                   104  3.198819104933941E-005
                   105 -1.916481259512791E-005
                   106  3.392557127528855E-012
                   107 -1.380101641647669E-005
                   108  2.508804337003420E-005
                   109  1.436052246155529E-012
                   110  7.841354130881284E-004
                   111 -9.902979559893859E-012
                   112  4.356960758906336E-004
                   113 -6.676019959555776E-006
                   114 -7.936909812865022E-012
                   115  7.241585366514915E-005
                   116 -3.471206012573454E-012
                   117 -4.667886184250154E-005
                   118 -1.252537519606731E-004
                   119  2.769814361143878E-012
                   120  1.302468267510853E-012
                   121 -5.021982399155338E-005
                   122 -2.507198828606448E-004
                   123 -8.200489492035016E-004
                   124  2.257082424280834E-004
                   125 -9.002300608544232E-005
                   126  5.619182668140843E-013
                   127 -2.588203128236029E-005
                   128 -2.006114608123685E-004
                   129  4.063692297350784E-014
                   130  2.365455513861333E-007
                   131  5.415580643913339E-004
                   132  1.660607089649755E-011
                   133  3.321417851361606E-004
                   134  8.098404448073097E-004
                   135 -1.474508379302553E-005
                   136  4.948502219789652E-013
                   137  5.095861921773639E-005
                   138  1.373222618809507E-005
                   139 -3.480825964650182E-012
                   140 -3.060291095184349E-004
                   141 -2.940161422478243E-012
                   142 -2.242637636930906E-004
                   143 -1.466678302646707E-005
                   144  9.935272688841322E-012
                   145 -1.523111707771630E-006
                   146  3.486864203994238E-012
                   147 -4.098055489232296E-005
                   148 -3.861581368744612E-005
                   149  4.717909620268848E-012
                   150  1.450842310892050E-012
                   151 -6.034680873786515E-006
                   152 -2.494738500313739E-004
                   153 -8.137670248911897E-004
                   154  2.278334519814237E-004
                   155 -1.051283539846628E-004
                   156 -4.834665227714728E-012
                   157  2.555662221406236E-005
                   158 -2.022713246557773E-004
                   159  1.589284893728067E-011
                   160  6.766435205311855E-007