[Molden Format]
[Atoms] AU
  N     1    7     0.0000000000    0.0000000000   -4.3668474600        
  C     2    6     0.0000000000    0.0000000000   -1.7740464400        
  C     3    6     0.0000000000   -2.3573011600   -0.4721992900        
  C     4    6     0.0000000000    2.3573011600   -0.4721992900        
  C     5    6     0.0000000000   -2.3296821800    2.2151673000        
  C     6    6     0.0000000000    2.3296821800    2.2151673000        
  C     7    6     0.0000000000    0.0000000000    3.5024729200        
  H     8    1     0.0000000000   -1.6426100600   -5.3349761600        
  H     9    1     0.0000000000    1.6426100600   -5.3349761600        
  H    10    1     0.0000000000   -4.0927870300   -1.5120461700        
  H    11    1     0.0000000000    4.0927870300   -1.5120461700        
  H    12    1     0.0000000000   -4.0641945300    3.2578227800        
  H    13    1     0.0000000000    4.0641945300    3.2578227800        
  H    14    1     0.0000000000    0.0000000000    5.5323986300        
[5D]
[7F]
[GTO]
  1  0
   s    12 1.00
  0.114200D+05  0.172695D-04
  0.171200D+04  0.134411D-03
  0.389300D+03  0.694561D-03
  0.110000D+03  0.278531D-02
  0.355700D+02  0.863457D-02
  0.125400D+02  0.199805D-01
  0.464400D+01  0.262908D-01
  0.129300D+01 -0.243845D-01
  0.511800D+00 -0.924934D-01
  0.178700D+00 -0.339683D+00
  0.246240D-01  0.345111D+00
  0.112530D-01  0.752750D+00
   s    10 1.00
  0.114200D+05  0.523000D-03
  0.171200D+04  0.404500D-02
  0.389300D+03  0.207750D-01
  0.110000D+03  0.807269D-01
  0.355700D+02  0.233074D+00
  0.125400D+02  0.433501D+00
  0.464400D+01  0.347472D+00
  0.129300D+01  0.412620D-01
  0.511800D+00 -0.850799D-02
  0.178700D+00  0.238400D-02
   s    10 1.00
  0.114200D+05 -0.115000D-03
  0.171200D+04 -0.895000D-03
  0.389300D+03 -0.462400D-02
  0.110000D+03 -0.185280D-01
  0.355700D+02 -0.573390D-01
  0.125400D+02 -0.132076D+00
  0.464400D+01 -0.172510D+00
  0.129300D+01  0.151814D+00
  0.511800D+00  0.599944D+00
  0.178700D+00  0.387462D+00
   s     1 1.00
  0.129300D+01  0.100000D+01
   s     1 1.00
  0.178700D+00  0.100000D+01
   p     5 1.00
  0.266300D+02  0.146700D-01
  0.594800D+01  0.917640D-01
  0.174200D+01  0.298683D+00
  0.555000D+00  0.498487D+00
  0.172500D+00  0.337023D+00
   p     1 1.00
  0.174200D+01  0.100000D+01
   p     1 1.00
  0.555000D+00  0.100000D+01
   d     1 1.00
  0.165400D+01  0.100000D+01
   d     1 1.00
  0.469000D+00  0.100000D+01
   f     1 1.00
  0.109300D+01  0.100000D+01
  
  2  0
   s    10 1.00
  0.823600D+04  0.531000D-03
  0.123500D+04  0.410800D-02
  0.280800D+03  0.210870D-01
  0.792700D+02  0.818530D-01
  0.255900D+02  0.234817D+00
  0.899700D+01  0.434401D+00
  0.331900D+01  0.346129D+00
  0.905900D+00  0.393780D-01
  0.364300D+00 -0.898300D-02
  0.128500D+00  0.238500D-02
   s    10 1.00
  0.823600D+04 -0.113000D-03
  0.123500D+04 -0.878000D-03
  0.280800D+03 -0.454000D-02
  0.792700D+02 -0.181330D-01
  0.255900D+02 -0.557600D-01
  0.899700D+01 -0.126895D+00
  0.331900D+01 -0.170352D+00
  0.905900D+00  0.140382D+00
  0.364300D+00  0.598684D+00
  0.128500D+00  0.395389D+00
   s     1 1.00
  0.905900D+00  0.100000D+01
   s     1 1.00
  0.364300D+00  0.100000D+01
   p     5 1.00
  0.187100D+02  0.140310D-01
  0.413300D+01  0.868660D-01
  0.120000D+01  0.290216D+00
  0.382700D+00  0.501008D+00
  0.120900D+00  0.343406D+00
   p     1 1.00
  0.382700D+00  0.100000D+01
   p     1 1.00
  0.120900D+00  0.100000D+01
   d     1 1.00
  0.109700D+01  0.100000D+01
   d     1 1.00
  0.318000D+00  0.100000D+01
   f     1 1.00
  0.761000D+00  0.100000D+01
  
  3  0
   s    10 1.00
  0.823600D+04  0.531000D-03
  0.123500D+04  0.410800D-02
  0.280800D+03  0.210870D-01
  0.792700D+02  0.818530D-01
  0.255900D+02  0.234817D+00
  0.899700D+01  0.434401D+00
  0.331900D+01  0.346129D+00
  0.905900D+00  0.393780D-01
  0.364300D+00 -0.898300D-02
  0.128500D+00  0.238500D-02
   s    10 1.00
  0.823600D+04 -0.113000D-03
  0.123500D+04 -0.878000D-03
  0.280800D+03 -0.454000D-02
  0.792700D+02 -0.181330D-01
  0.255900D+02 -0.557600D-01
  0.899700D+01 -0.126895D+00
  0.331900D+01 -0.170352D+00
  0.905900D+00  0.140382D+00
  0.364300D+00  0.598684D+00
  0.128500D+00  0.395389D+00
   s     1 1.00
  0.905900D+00  0.100000D+01
   s     1 1.00
  0.364300D+00  0.100000D+01
   p     5 1.00
  0.187100D+02  0.140310D-01
  0.413300D+01  0.868660D-01
  0.120000D+01  0.290216D+00
  0.382700D+00  0.501008D+00
  0.120900D+00  0.343406D+00
   p     1 1.00
  0.382700D+00  0.100000D+01
   p     1 1.00
  0.120900D+00  0.100000D+01
   d     1 1.00
  0.109700D+01  0.100000D+01
   d     1 1.00
  0.318000D+00  0.100000D+01
   f     1 1.00
  0.761000D+00  0.100000D+01
  
  4  0
   s    10 1.00
  0.823600D+04  0.531000D-03
  0.123500D+04  0.410800D-02
  0.280800D+03  0.210870D-01
  0.792700D+02  0.818530D-01
  0.255900D+02  0.234817D+00
  0.899700D+01  0.434401D+00
  0.331900D+01  0.346129D+00
  0.905900D+00  0.393780D-01
  0.364300D+00 -0.898300D-02
  0.128500D+00  0.238500D-02
   s    10 1.00
  0.823600D+04 -0.113000D-03
  0.123500D+04 -0.878000D-03
  0.280800D+03 -0.454000D-02
  0.792700D+02 -0.181330D-01
  0.255900D+02 -0.557600D-01
  0.899700D+01 -0.126895D+00
  0.331900D+01 -0.170352D+00
  0.905900D+00  0.140382D+00
  0.364300D+00  0.598684D+00
  0.128500D+00  0.395389D+00
   s     1 1.00
  0.905900D+00  0.100000D+01
   s     1 1.00
  0.364300D+00  0.100000D+01
   p     5 1.00
  0.187100D+02  0.140310D-01
  0.413300D+01  0.868660D-01
  0.120000D+01  0.290216D+00
  0.382700D+00  0.501008D+00
  0.120900D+00  0.343406D+00
   p     1 1.00
  0.382700D+00  0.100000D+01
   p     1 1.00
  0.120900D+00  0.100000D+01
   d     1 1.00
  0.109700D+01  0.100000D+01
   d     1 1.00
  0.318000D+00  0.100000D+01
   f     1 1.00
  0.761000D+00  0.100000D+01
  
  5  0
   s    10 1.00
  0.823600D+04  0.531000D-03
  0.123500D+04  0.410800D-02
  0.280800D+03  0.210870D-01
  0.792700D+02  0.818530D-01
  0.255900D+02  0.234817D+00
  0.899700D+01  0.434401D+00
  0.331900D+01  0.346129D+00
  0.905900D+00  0.393780D-01
  0.364300D+00 -0.898300D-02
  0.128500D+00  0.238500D-02
   s    10 1.00
  0.823600D+04 -0.113000D-03
  0.123500D+04 -0.878000D-03
  0.280800D+03 -0.454000D-02
  0.792700D+02 -0.181330D-01
  0.255900D+02 -0.557600D-01
  0.899700D+01 -0.126895D+00
  0.331900D+01 -0.170352D+00
  0.905900D+00  0.140382D+00
  0.364300D+00  0.598684D+00
  0.128500D+00  0.395389D+00
   s     1 1.00
  0.905900D+00  0.100000D+01
   s     1 1.00
  0.364300D+00  0.100000D+01
   p     5 1.00
  0.187100D+02  0.140310D-01
  0.413300D+01  0.868660D-01
  0.120000D+01  0.290216D+00
  0.382700D+00  0.501008D+00
  0.120900D+00  0.343406D+00
   p     1 1.00
  0.382700D+00  0.100000D+01
   p     1 1.00
  0.120900D+00  0.100000D+01
   d     1 1.00
  0.109700D+01  0.100000D+01
   d     1 1.00
  0.318000D+00  0.100000D+01
   f     1 1.00
  0.761000D+00  0.100000D+01
  
  6  0
   s    10 1.00
  0.823600D+04  0.531000D-03
  0.123500D+04  0.410800D-02
  0.280800D+03  0.210870D-01
  0.792700D+02  0.818530D-01
  0.255900D+02  0.234817D+00
  0.899700D+01  0.434401D+00
  0.331900D+01  0.346129D+00
  0.905900D+00  0.393780D-01
  0.364300D+00 -0.898300D-02
  0.128500D+00  0.238500D-02
   s    10 1.00
  0.823600D+04 -0.113000D-03
  0.123500D+04 -0.878000D-03
  0.280800D+03 -0.454000D-02
  0.792700D+02 -0.181330D-01
  0.255900D+02 -0.557600D-01
  0.899700D+01 -0.126895D+00
  0.331900D+01 -0.170352D+00
  0.905900D+00  0.140382D+00
  0.364300D+00  0.598684D+00
  0.128500D+00  0.395389D+00
   s     1 1.00
  0.905900D+00  0.100000D+01
   s     1 1.00
  0.364300D+00  0.100000D+01
   p     5 1.00
  0.187100D+02  0.140310D-01
  0.413300D+01  0.868660D-01
  0.120000D+01  0.290216D+00
  0.382700D+00  0.501008D+00
  0.120900D+00  0.343406D+00
   p     1 1.00
  0.382700D+00  0.100000D+01
   p     1 1.00
  0.120900D+00  0.100000D+01
   d     1 1.00
  0.109700D+01  0.100000D+01
   d     1 1.00
  0.318000D+00  0.100000D+01
   f     1 1.00
  0.761000D+00  0.100000D+01
  
  7  0
   s    10 1.00
  0.823600D+04  0.531000D-03
  0.123500D+04  0.410800D-02
  0.280800D+03  0.210870D-01
  0.792700D+02  0.818530D-01
  0.255900D+02  0.234817D+00
  0.899700D+01  0.434401D+00
  0.331900D+01  0.346129D+00
  0.905900D+00  0.393780D-01
  0.364300D+00 -0.898300D-02
  0.128500D+00  0.238500D-02
   s    10 1.00
  0.823600D+04 -0.113000D-03
  0.123500D+04 -0.878000D-03
  0.280800D+03 -0.454000D-02
  0.792700D+02 -0.181330D-01
  0.255900D+02 -0.557600D-01
  0.899700D+01 -0.126895D+00
  0.331900D+01 -0.170352D+00
  0.905900D+00  0.140382D+00
  0.364300D+00  0.598684D+00
  0.128500D+00  0.395389D+00
   s     1 1.00
  0.905900D+00  0.100000D+01
   s     1 1.00
  0.364300D+00  0.100000D+01
   p     5 1.00
  0.187100D+02  0.140310D-01
  0.413300D+01  0.868660D-01
  0.120000D+01  0.290216D+00
  0.382700D+00  0.501008D+00
  0.120900D+00  0.343406D+00
   p     1 1.00
  0.382700D+00  0.100000D+01
   p     1 1.00
  0.120900D+00  0.100000D+01
   d     1 1.00
  0.109700D+01  0.100000D+01
   d     1 1.00
  0.318000D+00  0.100000D+01
   f     1 1.00
  0.761000D+00  0.100000D+01
  
  8  0
   s     4 1.00
  0.130100D+02  0.196850D-01
  0.196200D+01  0.137977D+00
  0.444600D+00  0.478148D+00
  0.122000D+00  0.501240D+00
   s     1 1.00
  0.122000D+00  0.100000D+01
   p     1 1.00
  0.727000D+00  0.100000D+01
  
  9  0
   s     4 1.00
  0.130100D+02  0.196850D-01
  0.196200D+01  0.137977D+00
  0.444600D+00  0.478148D+00
  0.122000D+00  0.501240D+00
   s     1 1.00
  0.122000D+00  0.100000D+01
   p     1 1.00
  0.727000D+00  0.100000D+01
  
 10  0
   s     4 1.00
  0.130100D+02  0.196850D-01
  0.196200D+01  0.137977D+00
  0.444600D+00  0.478148D+00
  0.122000D+00  0.501240D+00
   s     1 1.00
  0.122000D+00  0.100000D+01
   p     1 1.00
  0.727000D+00  0.100000D+01
  
 11  0
   s     4 1.00
  0.130100D+02  0.196850D-01
  0.196200D+01  0.137977D+00
  0.444600D+00  0.478148D+00
  0.122000D+00  0.501240D+00
   s     1 1.00
  0.122000D+00  0.100000D+01
   p     1 1.00
  0.727000D+00  0.100000D+01
  
 12  0
   s     4 1.00
  0.130100D+02  0.196850D-01
  0.196200D+01  0.137977D+00
  0.444600D+00  0.478148D+00
  0.122000D+00  0.501240D+00
   s     1 1.00
  0.122000D+00  0.100000D+01
   p     1 1.00
  0.727000D+00  0.100000D+01
  
 13  0
   s     4 1.00
  0.130100D+02  0.196850D-01
  0.196200D+01  0.137977D+00
  0.444600D+00  0.478148D+00
  0.122000D+00  0.501240D+00
   s     1 1.00
  0.122000D+00  0.100000D+01
   p     1 1.00
  0.727000D+00  0.100000D+01
  
 14  0
   s     4 1.00
  0.130100D+02  0.196850D-01
  0.196200D+01  0.137977D+00
  0.444600D+00  0.478148D+00
  0.122000D+00  0.501240D+00
   s     1 1.00
  0.122000D+00  0.100000D+01
   p     1 1.00
  0.727000D+00  0.100000D+01
  
[MO]
 Sym= __1_A1_
 Ene=   1.00000000000000     
 Spin= Alpha
 Occup=    1.00000000000000     
                     1  4.199281707264861E-005
                     2  0.998056417899971     
                     3  7.482238617669290E-003
                     4  2.107635908947707E-003
                     5  1.797960045572123E-003
                     6  0.000000000000000E+000
                     7  0.000000000000000E+000
                     8  3.869838635679020E-003
                     9  0.000000000000000E+000
                    10  0.000000000000000E+000
                    11 -1.776636024550724E-004
                    12  0.000000000000000E+000
                    13  0.000000000000000E+000
                    14 -2.942772387563357E-004
                    15  1.755036775340139E-004
                    16  0.000000000000000E+000
                    17  0.000000000000000E+000
                    18 -1.279369693374593E-004
                    19  0.000000000000000E+000
                    20  5.543371767189877E-005
                    21  0.000000000000000E+000
                    22  0.000000000000000E+000
                    23  5.323790442785350E-004
                    24  0.000000000000000E+000
                    25 -1.536106081493972E-004
                    26  0.000000000000000E+000
                    27  0.000000000000000E+000
                    28  1.007776998508168E-004
                    29  0.000000000000000E+000
                    30  0.000000000000000E+000
                    31  0.000000000000000E+000
                    32 -2.698943696549987E-004
                    33  2.102671112562491E-003
                    34  1.972096337101379E-005
                    35  1.166078320384690E-005
                    36  0.000000000000000E+000
                    37  0.000000000000000E+000
                    38 -5.826400714120798E-003
                    39  0.000000000000000E+000
                    40  0.000000000000000E+000
                    41 -1.212407105267042E-004
                    42  0.000000000000000E+000
                    43  0.000000000000000E+000
                    44  3.836491214838363E-003
                    45  3.434973554316795E-004
                    46  0.000000000000000E+000
                    47  0.000000000000000E+000
                    48  1.251442990720404E-004
                    49  0.000000000000000E+000
                    50  1.958047894003329E-004
                    51  0.000000000000000E+000
                    52  0.000000000000000E+000
                    53 -3.726450154748162E-004
                    54  0.000000000000000E+000
                    55 -7.135994524757869E-005
                    56  0.000000000000000E+000
                    57  0.000000000000000E+000
                    58  8.195046084507830E-005
                    59  0.000000000000000E+000
                    60  0.000000000000000E+000
                    61  0.000000000000000E+000
                    62 -1.927204649561048E-004
                    63 -1.509452678524247E-003
                    64  4.891302841375384E-005
                    65  4.916134683935215E-004
                    66  0.000000000000000E+000
                    67 -7.388620282573642E-004
                    68  8.411797263437864E-004
                    69  0.000000000000000E+000
                    70 -2.015399916889748E-005
                    71  5.042615871116240E-004
                    72  0.000000000000000E+000
                    73 -4.242340586957236E-004
                    74 -2.014616898029824E-004
                    75  7.306359819155270E-005
                    76  0.000000000000000E+000
                    77 -8.530137120618934E-006
                    78  3.373609487100990E-005
                    79  0.000000000000000E+000
                    80 -2.653177106769777E-005
                    81  0.000000000000000E+000
                    82  1.376387200005548E-004
                    83 -3.196011207258932E-005
                    84  0.000000000000000E+000
                    85 -8.344264938338626E-005
                    86  0.000000000000000E+000
                    87 -3.683292338926556E-005
                    88  1.827326226768998E-005
                    89  0.000000000000000E+000
                    90  0.000000000000000E+000
                    91  5.631059342994730E-006
                    92 -1.927204649561048E-004
                    93 -1.509452678524247E-003
                    94  4.891302841375384E-005
                    95  4.916134683935215E-004
                    96  0.000000000000000E+000
                    97  7.388620282573642E-004
                    98  8.411797263437864E-004
                    99  0.000000000000000E+000
                   100  2.015399916889748E-005
                   101  5.042615871116240E-004
                   102  0.000000000000000E+000
                   103  4.242340586957236E-004
                   104 -2.014616898029824E-004
                   105  7.306359819155270E-005
                   106  0.000000000000000E+000
                   107  8.530137120618934E-006
                   108  3.373609487100990E-005
                   109  0.000000000000000E+000
                   110 -2.653177106769777E-005
                   111  0.000000000000000E+000
                   112 -1.376387200005548E-004
                   113 -3.196011207258932E-005
                   114  0.000000000000000E+000
                   115 -8.344264938338626E-005
                   116  0.000000000000000E+000
                   117  3.683292338926556E-005
                   118  1.827326226768998E-005
                   119  0.000000000000000E+000
                   120  0.000000000000000E+000
                   121 -5.631059342994730E-006
                   122 -1.112941524510416E-004
                   123  6.196973684311552E-005
                   124  8.127083800566224E-005
                   125  1.743999085320292E-004
                   126  0.000000000000000E+000
                   127  2.467231205377189E-005
                   128 -7.247171720739540E-004
                   129  0.000000000000000E+000
                   130  4.895085770565468E-005
                   131  2.622482788897498E-004
                   132  0.000000000000000E+000
                   133 -2.209163361076320E-004
                   134  5.959403876594747E-004
                   135 -8.198024165244790E-006
                   136  0.000000000000000E+000
                   137 -6.694916250511354E-007
                   138 -1.230126180932256E-006
                   139  0.000000000000000E+000
                   140 -1.627516110790252E-004
                   141  0.000000000000000E+000
                   142  1.502321858243753E-004
                   143  2.197002240146298E-005
                   144  0.000000000000000E+000
                   145 -3.699456025405878E-005
                   146  0.000000000000000E+000
                   147  3.090762989725899E-006
                   148 -9.948485923822546E-006
                   149  0.000000000000000E+000
                   150  0.000000000000000E+000
                   151 -3.747659434420233E-006
                   152 -1.112941524510416E-004
                   153  6.196973684311552E-005
                   154  8.127083800566224E-005
                   155  1.743999085320292E-004
                   156  0.000000000000000E+000
                   157 -2.467231205377189E-005
                   158 -7.247171720739540E-004
                   159  0.000000000000000E+000
                   160 -4.895085770565468E-005
                   161  2.622482788897498E-004
                   162  0.000000000000000E+000
                   163  2.209163361076320E-004
                   164  5.959403876594747E-004
                   165 -8.198024165244790E-006
                   166  0.000000000000000E+000
                   167  6.694916250511354E-007
                   168 -1.230126180932256E-006
                   169  0.000000000000000E+000
                   170 -1.627516110790252E-004
                   171  0.000000000000000E+000
                   172 -1.502321858243753E-004
                   173  2.197002240146298E-005
                   174  0.000000000000000E+000
                   175 -3.699456025405878E-005
                   176  0.000000000000000E+000
                   177 -3.090762989725899E-006
                   178 -9.948485923822546E-006
                   179  0.000000000000000E+000
                   180  0.000000000000000E+000
                   181  3.747659434420233E-006
                   182 -7.905834078461095E-005
                   183 -2.148475273398529E-004
                   184  2.879387487373271E-005
                   185  7.808319791880011E-005
                   186  0.000000000000000E+000
                   187  0.000000000000000E+000
                   188 -1.686857664367084E-005
                   189  0.000000000000000E+000
                   190  0.000000000000000E+000
                   191  1.617819961287837E-005
                   192  0.000000000000000E+000
                   193  0.000000000000000E+000
                   194  3.043707507420804E-005
                   195  2.068398042009814E-005
                   196  0.000000000000000E+000
                   197  0.000000000000000E+000
                   198  8.382453541834038E-006
                   199  0.000000000000000E+000
                   200  3.850186562184124E-005
                   201  0.000000000000000E+000
                   202  0.000000000000000E+000
                   203  5.999883773948598E-005
                   204  0.000000000000000E+000
                   205 -5.782922812934506E-006
                   206  0.000000000000000E+000
                   207  0.000000000000000E+000
                   208 -2.802205412756364E-006
                   209  0.000000000000000E+000
                   210  0.000000000000000E+000
                   211  0.000000000000000E+000
                   212  3.664499357140308E-003
                   213 -2.294443830166207E-003
                   214  0.000000000000000E+000
                   215  4.291679679502890E-004
                   216  3.335220870954209E-004
                   217  3.664499357140308E-003
                   218 -2.294443830166207E-003
                   219  0.000000000000000E+000
                   220 -4.291679679502890E-004
                   221  3.335220870954209E-004
                   222 -5.790214359832561E-004
                   223 -8.626297165533343E-005
                   224  0.000000000000000E+000
                   225 -1.264262880124745E-005
                   226 -3.870274099648028E-005
                   227 -5.790214359832561E-004
                   228 -8.626297165533343E-005
                   229  0.000000000000000E+000
                   230  1.264262880124745E-005
                   231 -3.870274099648028E-005
                   232 -1.884561642246785E-004
                   233 -3.682286097897778E-004
                   234  0.000000000000000E+000
                   235 -1.132864366453108E-006
                   236  2.953188520995301E-006
                   237 -1.884561642246785E-004
                   238 -3.682286097897778E-004
                   239  0.000000000000000E+000
                   240  1.132864366453108E-006
                   241  2.953188520995301E-006
                   242  1.016239719354392E-004
                   243 -9.888410549793123E-005
                   244  0.000000000000000E+000
                   245  0.000000000000000E+000
                   246  8.144898005883142E-006
 Sym= __2_A1_
 Ene=   2.00000000000000     
 Spin= Alpha
 Occup=    1.00000000000000     
                     1 -4.503683434261274E-005
                     2 -1.587322628503637E-004
                     3  1.955875890044343E-003
                     4  4.759770398539937E-005
                     5  1.136836483636102E-003
                     6  0.000000000000000E+000
                     7  0.000000000000000E+000
                     8  2.626922331075227E-003
                     9  0.000000000000000E+000
                    10  0.000000000000000E+000
                    11 -4.172739358141312E-005
                    12  0.000000000000000E+000
                    13  0.000000000000000E+000
                    14 -3.773862197563327E-004
                    15  5.813431491716646E-005
                    16  0.000000000000000E+000
                    17  0.000000000000000E+000
                    18  6.327556196045578E-005
                    19  0.000000000000000E+000
                    20 -2.305750654287576E-004
                    21  0.000000000000000E+000
                    22  0.000000000000000E+000
                    23 -3.403250653211790E-004
                    24  0.000000000000000E+000
                    25  1.801494313293063E-004
                    26  0.000000000000000E+000
                    27  0.000000000000000E+000
                    28 -1.078188762615176E-005
                    29  0.000000000000000E+000
                    30  0.000000000000000E+000
                    31  0.000000000000000E+000
                    32   1.00108418013589     
                    33  9.025714886329606E-003
                    34  2.588919065506605E-003
                    35 -7.921870780523666E-003
                    36  0.000000000000000E+000
                    37  0.000000000000000E+000
                    38 -3.604004475240123E-003
                    39  0.000000000000000E+000
                    40  0.000000000000000E+000
                    41  1.031777013370484E-003
                    42  0.000000000000000E+000
                    43  0.000000000000000E+000
                    44  4.026562067567258E-003
                    45  3.245719870630547E-004
                    46  0.000000000000000E+000
                    47  0.000000000000000E+000
                    48 -4.515755103276050E-004
                    49  0.000000000000000E+000
                    50  7.994262316305119E-004
                    51  0.000000000000000E+000
                    52  0.000000000000000E+000
                    53  1.144292469186384E-003
                    54  0.000000000000000E+000
                    55  3.236899533955407E-004
                    56  0.000000000000000E+000
                    57  0.000000000000000E+000
                    58 -1.969095927883101E-004
                    59  0.000000000000000E+000
                    60  0.000000000000000E+000
                    61  0.000000000000000E+000
                    62  8.947559292274785E-003
                    63 -1.989288950967943E-003
                    64 -2.902513279309008E-004
                    65  3.122537295914385E-003
                    66  0.000000000000000E+000
                    67  1.612698469694452E-004
                    68 -1.893903985817692E-005
                    69  0.000000000000000E+000
                    70  6.178292037040020E-004
                    71 -1.845323064610365E-004
                    72  0.000000000000000E+000
                    73 -2.072544008320623E-003
                    74  1.099557738187634E-005
                    75 -2.418814147581862E-005
                    76  0.000000000000000E+000
                    77  1.553344348091075E-005
                    78  1.886575594734960E-005
                    79  0.000000000000000E+000
                    80  8.240198559726617E-004
                    81  0.000000000000000E+000
                    82 -5.900638558735133E-004
                    83  3.161702633424070E-005
                    84  0.000000000000000E+000
                    85  5.706869361347046E-005
                    86  0.000000000000000E+000
                    87  6.444905400061938E-005
                    88 -1.063054329793739E-004
                    89  0.000000000000000E+000
                    90  0.000000000000000E+000
                    91  6.465457227441240E-005
                    92  8.947559292274785E-003
                    93 -1.989288950967943E-003
                    94 -2.902513279309008E-004
                    95  3.122537295914385E-003
                    96  0.000000000000000E+000
                    97 -1.612698469694452E-004
                    98 -1.893903985817692E-005
                    99  0.000000000000000E+000
                   100 -6.178292037040020E-004
                   101 -1.845323064610365E-004
                   102  0.000000000000000E+000
                   103  2.072544008320623E-003
                   104  1.099557738187634E-005
                   105 -2.418814147581862E-005
                   106  0.000000000000000E+000
                   107 -1.553344348091075E-005
                   108  1.886575594734960E-005
                   109  0.000000000000000E+000
                   110  8.240198559726617E-004
                   111  0.000000000000000E+000
                   112  5.900638558735133E-004
                   113  3.161702633424070E-005
                   114  0.000000000000000E+000
                   115  5.706869361347046E-005
                   116  0.000000000000000E+000
                   117 -6.444905400061938E-005
                   118 -1.063054329793739E-004
                   119  0.000000000000000E+000
                   120  0.000000000000000E+000
                   121 -6.465457227441240E-005
                   122 -2.185692436798379E-004
                   123 -7.064880110641735E-004
                   124  2.218740055066418E-004
                   125 -9.363562363093443E-005
                   126  0.000000000000000E+000
                   127 -2.834999521749448E-005
                   128 -2.304343841568101E-004
                   129  0.000000000000000E+000
                   130  2.625710383231152E-005
                   131  4.719593340480573E-004
                   132  0.000000000000000E+000
                   133  3.449423943496872E-004
                   134  6.708293156078354E-004
                   135 -1.335372406731758E-005
                   136  0.000000000000000E+000
                   137  4.776234537240981E-005
                   138  1.204126852435870E-005
                   139  0.000000000000000E+000
                   140 -3.007200760417771E-004
                   141  0.000000000000000E+000
                   142 -2.853781091014827E-004
                   143 -1.601255907933923E-005
                   144  0.000000000000000E+000
                   145 -8.772720759297193E-006
                   146  0.000000000000000E+000
                   147 -3.601186304863128E-005
                   148 -2.881998349983942E-005
                   149  0.000000000000000E+000
                   150  0.000000000000000E+000
                   151 -4.420118035737879E-006
                   152 -2.185692436798379E-004
                   153 -7.064880110641735E-004
                   154  2.218740055066418E-004
                   155 -9.363562363093443E-005
                   156  0.000000000000000E+000
                   157  2.834999521749448E-005
                   158 -2.304343841568101E-004
                   159  0.000000000000000E+000
                   160 -2.625710383231152E-005