[Molden Format]
[Atoms] AU
  N     1    7     0.0000000000    0.0000000000   -4.3668474600        
  C     2    6     0.0000000000    0.0000000000   -1.7740464400        
  C     3    6     0.0000000000   -2.3573011600   -0.4721992900        
  C     4    6     0.0000000000    2.3573011600   -0.4721992900        
  C     5    6     0.0000000000   -2.3296821800    2.2151673000        
  C     6    6     0.0000000000    2.3296821800    2.2151673000        
  C     7    6     0.0000000000    0.0000000000    3.5024729200        
  H     8    1     0.0000000000   -1.6426100600   -5.3349761600        
  H     9    1     0.0000000000    1.6426100600   -5.3349761600        
  H    10    1     0.0000000000   -4.0927870300   -1.5120461700        
  H    11    1     0.0000000000    4.0927870300   -1.5120461700        
  H    12    1     0.0000000000   -4.0641945300    3.2578227800        
  H    13    1     0.0000000000    4.0641945300    3.2578227800        
  H    14    1     0.0000000000    0.0000000000    5.5323986300        
[5D]
[7F]
[GTO]
  1  0
   s    12 1.00
  0.114200D+05  0.172695D-04
  0.171200D+04  0.134411D-03
  0.389300D+03  0.694561D-03
  0.110000D+03  0.278531D-02
  0.355700D+02  0.863457D-02
  0.125400D+02  0.199805D-01
  0.464400D+01  0.262908D-01
  0.129300D+01 -0.243845D-01
  0.511800D+00 -0.924934D-01
  0.178700D+00 -0.339683D+00
  0.246240D-01  0.345111D+00
  0.112530D-01  0.752750D+00
   s    10 1.00
  0.114200D+05  0.523000D-03
  0.171200D+04  0.404500D-02
  0.389300D+03  0.207750D-01
  0.110000D+03  0.807269D-01
  0.355700D+02  0.233074D+00
  0.125400D+02  0.433501D+00
  0.464400D+01  0.347472D+00
  0.129300D+01  0.412620D-01
  0.511800D+00 -0.850799D-02
  0.178700D+00  0.238400D-02
   s    10 1.00
  0.114200D+05 -0.115000D-03
  0.171200D+04 -0.895000D-03
  0.389300D+03 -0.462400D-02
  0.110000D+03 -0.185280D-01
  0.355700D+02 -0.573390D-01
  0.125400D+02 -0.132076D+00
  0.464400D+01 -0.172510D+00
  0.129300D+01  0.151814D+00
  0.511800D+00  0.599944D+00
  0.178700D+00  0.387462D+00
   s     1 1.00
  0.129300D+01  0.100000D+01
   s     1 1.00
  0.178700D+00  0.100000D+01
   p     5 1.00
  0.266300D+02  0.146700D-01
  0.594800D+01  0.917640D-01
  0.174200D+01  0.298683D+00
  0.555000D+00  0.498487D+00
  0.172500D+00  0.337023D+00
   p     1 1.00
  0.174200D+01  0.100000D+01
   p     1 1.00
  0.555000D+00  0.100000D+01
   d     1 1.00
  0.165400D+01  0.100000D+01
   d     1 1.00
  0.469000D+00  0.100000D+01
   f     1 1.00
  0.109300D+01  0.100000D+01
  
  2  0
   s    10 1.00
  0.823600D+04  0.531000D-03
  0.123500D+04  0.410800D-02
  0.280800D+03  0.210870D-01
  0.792700D+02  0.818530D-01
  0.255900D+02  0.234817D+00
  0.899700D+01  0.434401D+00
  0.331900D+01  0.346129D+00
  0.905900D+00  0.393780D-01
  0.364300D+00 -0.898300D-02
  0.128500D+00  0.238500D-02
   s    10 1.00
  0.823600D+04 -0.113000D-03
  0.123500D+04 -0.878000D-03
  0.280800D+03 -0.454000D-02
  0.792700D+02 -0.181330D-01
  0.255900D+02 -0.557600D-01
  0.899700D+01 -0.126895D+00
  0.331900D+01 -0.170352D+00
  0.905900D+00  0.140382D+00
  0.364300D+00  0.598684D+00
  0.128500D+00  0.395389D+00
   s     1 1.00
  0.905900D+00  0.100000D+01
   s     1 1.00
  0.364300D+00  0.100000D+01
   p     5 1.00
  0.187100D+02  0.140310D-01
  0.413300D+01  0.868660D-01
  0.120000D+01  0.290216D+00
  0.382700D+00  0.501008D+00
  0.120900D+00  0.343406D+00
   p     1 1.00
  0.382700D+00  0.100000D+01
   p     1 1.00
  0.120900D+00  0.100000D+01
   d     1 1.00
  0.109700D+01  0.100000D+01
   d     1 1.00
  0.318000D+00  0.100000D+01
   f     1 1.00
  0.761000D+00  0.100000D+01
  
  3  0
   s    10 1.00
  0.823600D+04  0.531000D-03
  0.123500D+04  0.410800D-02
  0.280800D+03  0.210870D-01
  0.792700D+02  0.818530D-01
  0.255900D+02  0.234817D+00
  0.899700D+01  0.434401D+00
  0.331900D+01  0.346129D+00
  0.905900D+00  0.393780D-01
  0.364300D+00 -0.898300D-02
  0.128500D+00  0.238500D-02
   s    10 1.00
  0.823600D+04 -0.113000D-03
  0.123500D+04 -0.878000D-03
  0.280800D+03 -0.454000D-02
  0.792700D+02 -0.181330D-01
  0.255900D+02 -0.557600D-01
  0.899700D+01 -0.126895D+00
  0.331900D+01 -0.170352D+00
  0.905900D+00  0.140382D+00
  0.364300D+00  0.598684D+00
  0.128500D+00  0.395389D+00
   s     1 1.00
  0.905900D+00  0.100000D+01
   s     1 1.00
  0.364300D+00  0.100000D+01
   p     5 1.00
  0.187100D+02  0.140310D-01
  0.413300D+01  0.868660D-01
  0.120000D+01  0.290216D+00
  0.382700D+00  0.501008D+00
  0.120900D+00  0.343406D+00
   p     1 1.00
  0.382700D+00  0.100000D+01
   p     1 1.00
  0.120900D+00  0.100000D+01
   d     1 1.00
  0.109700D+01  0.100000D+01
   d     1 1.00
  0.318000D+00  0.100000D+01
   f     1 1.00
  0.761000D+00  0.100000D+01
  
  4  0
   s    10 1.00
  0.823600D+04  0.531000D-03
  0.123500D+04  0.410800D-02
  0.280800D+03  0.210870D-01
  0.792700D+02  0.818530D-01
  0.255900D+02  0.234817D+00
  0.899700D+01  0.434401D+00
  0.331900D+01  0.346129D+00
  0.905900D+00  0.393780D-01
  0.364300D+00 -0.898300D-02
  0.128500D+00  0.238500D-02
   s    10 1.00
  0.823600D+04 -0.113000D-03
  0.123500D+04 -0.878000D-03
  0.280800D+03 -0.454000D-02
  0.792700D+02 -0.181330D-01
  0.255900D+02 -0.557600D-01
  0.899700D+01 -0.126895D+00
  0.331900D+01 -0.170352D+00
  0.905900D+00  0.140382D+00
  0.364300D+00  0.598684D+00
  0.128500D+00  0.395389D+00
   s     1 1.00
  0.905900D+00  0.100000D+01
   s     1 1.00
  0.364300D+00  0.100000D+01
   p     5 1.00
  0.187100D+02  0.140310D-01
  0.413300D+01  0.868660D-01
  0.120000D+01  0.290216D+00
  0.382700D+00  0.501008D+00
  0.120900D+00  0.343406D+00
   p     1 1.00
  0.382700D+00  0.100000D+01
   p     1 1.00
  0.120900D+00  0.100000D+01
   d     1 1.00
  0.109700D+01  0.100000D+01
   d     1 1.00
  0.318000D+00  0.100000D+01
   f     1 1.00
  0.761000D+00  0.100000D+01
  
  5  0
   s    10 1.00
  0.823600D+04  0.531000D-03
  0.123500D+04  0.410800D-02
  0.280800D+03  0.210870D-01
  0.792700D+02  0.818530D-01
  0.255900D+02  0.234817D+00
  0.899700D+01  0.434401D+00
  0.331900D+01  0.346129D+00
  0.905900D+00  0.393780D-01
  0.364300D+00 -0.898300D-02
  0.128500D+00  0.238500D-02
   s    10 1.00
  0.823600D+04 -0.113000D-03
  0.123500D+04 -0.878000D-03
  0.280800D+03 -0.454000D-02
  0.792700D+02 -0.181330D-01
  0.255900D+02 -0.557600D-01
  0.899700D+01 -0.126895D+00
  0.331900D+01 -0.170352D+00
  0.905900D+00  0.140382D+00
  0.364300D+00  0.598684D+00
  0.128500D+00  0.395389D+00
   s     1 1.00
  0.905900D+00  0.100000D+01
   s     1 1.00
  0.364300D+00  0.100000D+01
   p     5 1.00
  0.187100D+02  0.140310D-01
  0.413300D+01  0.868660D-01
  0.120000D+01  0.290216D+00
  0.382700D+00  0.501008D+00
  0.120900D+00  0.343406D+00
   p     1 1.00
  0.382700D+00  0.100000D+01
   p     1 1.00
  0.120900D+00  0.100000D+01
   d     1 1.00
  0.109700D+01  0.100000D+01
   d     1 1.00
  0.318000D+00  0.100000D+01
   f     1 1.00
  0.761000D+00  0.100000D+01
  
  6  0
   s    10 1.00
  0.823600D+04  0.531000D-03
  0.123500D+04  0.410800D-02
  0.280800D+03  0.210870D-01
  0.792700D+02  0.818530D-01
  0.255900D+02  0.234817D+00
  0.899700D+01  0.434401D+00
  0.331900D+01  0.346129D+00
  0.905900D+00  0.393780D-01
  0.364300D+00 -0.898300D-02
  0.128500D+00  0.238500D-02
   s    10 1.00
  0.823600D+04 -0.113000D-03
  0.123500D+04 -0.878000D-03
  0.280800D+03 -0.454000D-02
  0.792700D+02 -0.181330D-01
  0.255900D+02 -0.557600D-01
  0.899700D+01 -0.126895D+00
  0.331900D+01 -0.170352D+00
  0.905900D+00  0.140382D+00
  0.364300D+00  0.598684D+00
  0.128500D+00  0.395389D+00
   s     1 1.00
  0.905900D+00  0.100000D+01
   s     1 1.00
  0.364300D+00  0.100000D+01
   p     5 1.00
  0.187100D+02  0.140310D-01
  0.413300D+01  0.868660D-01
  0.120000D+01  0.290216D+00
  0.382700D+00  0.501008D+00
  0.120900D+00  0.343406D+00
   p     1 1.00
  0.382700D+00  0.100000D+01
   p     1 1.00
  0.120900D+00  0.100000D+01
   d     1 1.00
  0.109700D+01  0.100000D+01
   d     1 1.00
  0.318000D+00  0.100000D+01
   f     1 1.00
  0.761000D+00  0.100000D+01
  
  7  0
   s    10 1.00
  0.823600D+04  0.531000D-03
  0.123500D+04  0.410800D-02
  0.280800D+03  0.210870D-01
  0.792700D+02  0.818530D-01
  0.255900D+02  0.234817D+00
  0.899700D+01  0.434401D+00
  0.331900D+01  0.346129D+00
  0.905900D+00  0.393780D-01
  0.364300D+00 -0.898300D-02
  0.128500D+00  0.238500D-02
   s    10 1.00
  0.823600D+04 -0.113000D-03
  0.123500D+04 -0.878000D-03
  0.280800D+03 -0.454000D-02
  0.792700D+02 -0.181330D-01
  0.255900D+02 -0.557600D-01
  0.899700D+01 -0.126895D+00
  0.331900D+01 -0.170352D+00
  0.905900D+00  0.140382D+00
  0.364300D+00  0.598684D+00
  0.128500D+00  0.395389D+00
   s     1 1.00
  0.905900D+00  0.100000D+01
   s     1 1.00
  0.364300D+00  0.100000D+01
   p     5 1.00
  0.187100D+02  0.140310D-01
  0.413300D+01  0.868660D-01
  0.120000D+01  0.290216D+00
  0.382700D+00  0.501008D+00
  0.120900D+00  0.343406D+00
   p     1 1.00
  0.382700D+00  0.100000D+01
   p     1 1.00
  0.120900D+00  0.100000D+01
   d     1 1.00
  0.109700D+01  0.100000D+01
   d     1 1.00
  0.318000D+00  0.100000D+01
   f     1 1.00
  0.761000D+00  0.100000D+01
  
  8  0
   s     4 1.00
  0.130100D+02  0.196850D-01
  0.196200D+01  0.137977D+00
  0.444600D+00  0.478148D+00
  0.122000D+00  0.501240D+00
   s     1 1.00
  0.122000D+00  0.100000D+01
   p     1 1.00
  0.727000D+00  0.100000D+01
  
  9  0
   s     4 1.00
  0.130100D+02  0.196850D-01
  0.196200D+01  0.137977D+00
  0.444600D+00  0.478148D+00
  0.122000D+00  0.501240D+00
   s     1 1.00
  0.122000D+00  0.100000D+01
   p     1 1.00
  0.727000D+00  0.100000D+01
  
 10  0
   s     4 1.00
  0.130100D+02  0.196850D-01
  0.196200D+01  0.137977D+00
  0.444600D+00  0.478148D+00
  0.122000D+00  0.501240D+00
   s     1 1.00
  0.122000D+00  0.100000D+01
   p     1 1.00
  0.727000D+00  0.100000D+01
  
 11  0
   s     4 1.00
  0.130100D+02  0.196850D-01
  0.196200D+01  0.137977D+00
  0.444600D+00  0.478148D+00
  0.122000D+00  0.501240D+00
   s     1 1.00
  0.122000D+00  0.100000D+01
   p     1 1.00
  0.727000D+00  0.100000D+01
  
 12  0
   s     4 1.00
  0.130100D+02  0.196850D-01
  0.196200D+01  0.137977D+00
  0.444600D+00  0.478148D+00
  0.122000D+00  0.501240D+00
   s     1 1.00
  0.122000D+00  0.100000D+01
   p     1 1.00
  0.727000D+00  0.100000D+01
  
 13  0
   s     4 1.00
  0.130100D+02  0.196850D-01
  0.196200D+01  0.137977D+00
  0.444600D+00  0.478148D+00
  0.122000D+00  0.501240D+00
   s     1 1.00
  0.122000D+00  0.100000D+01
   p     1 1.00
  0.727000D+00  0.100000D+01
  
 14  0
   s     4 1.00
  0.130100D+02  0.196850D-01
  0.196200D+01  0.137977D+00
  0.444600D+00  0.478148D+00
  0.122000D+00  0.501240D+00
   s     1 1.00
  0.122000D+00  0.100000D+01
   p     1 1.00
  0.727000D+00  0.100000D+01
  
[MO]
 Sym= __1_A1_
 Ene=  0.000000000000000E+000
 Spin= Alpha
 Occup=    2.00000000000000     
                     1  4.199282000023515E-005
                     2  0.998056417919843     
                     3  7.482238080677013E-003
                     4  2.107635921016449E-003
                     5  1.797960763263627E-003
                     6  0.000000000000000E+000
                     7  0.000000000000000E+000
                     8  3.869838475089610E-003
                     9  0.000000000000000E+000
                    10  0.000000000000000E+000
                    11 -1.776636810880806E-004
                    12  0.000000000000000E+000
                    13  0.000000000000000E+000
                    14 -2.942772769998825E-004
                    15  1.755036630357583E-004
                    16  0.000000000000000E+000
                    17  0.000000000000000E+000
                    18 -1.279369619142255E-004
                    19  0.000000000000000E+000
                    20  5.543363928731961E-005
                    21  0.000000000000000E+000
                    22  0.000000000000000E+000
                    23  5.323789459064858E-004
                    24  0.000000000000000E+000
                    25 -1.536106128101013E-004
                    26  0.000000000000000E+000
                    27  0.000000000000000E+000
                    28  1.007777127748029E-004
                    29  0.000000000000000E+000
                    30  0.000000000000000E+000
                    31  0.000000000000000E+000
                    32 -2.698894621103889E-004
                    33  2.102660464595021E-003
                    34  1.972114964852997E-005
                    35  1.166069194854099E-005
                    36  0.000000000000000E+000
                    37  0.000000000000000E+000
                    38 -5.826405509309360E-003
                    39  0.000000000000000E+000
                    40  0.000000000000000E+000
                    41 -1.212404763341213E-004
                    42  0.000000000000000E+000
                    43  0.000000000000000E+000
                    44  3.836491739107815E-003
                    45  3.434973397173675E-004
                    46  0.000000000000000E+000
                    47  0.000000000000000E+000
                    48  1.251444985808362E-004
                    49  0.000000000000000E+000
                    50  1.958049172867470E-004
                    51  0.000000000000000E+000
                    52  0.000000000000000E+000
                    53 -3.726445691944080E-004
                    54  0.000000000000000E+000
                    55 -7.136008358019021E-005
                    56  0.000000000000000E+000
                    57  0.000000000000000E+000
                    58  8.195062023465298E-005
                    59  0.000000000000000E+000
                    60  0.000000000000000E+000
                    61  0.000000000000000E+000
                    62 -1.927202979098211E-004
                    63 -1.509454244772061E-003
                    64  4.891302816717031E-005
                    65  4.916133819893168E-004
                    66  0.000000000000000E+000
                    67 -7.388687571868343E-004
                    68  8.411796893825650E-004
                    69  0.000000000000000E+000
                    70 -2.015335913013776E-005
                    71  5.042613402477099E-004
                    72  0.000000000000000E+000
                    73 -4.242318475574578E-004
                    74 -2.014622500652109E-004
                    75  7.306363169968705E-005
                    76  0.000000000000000E+000
                    77 -8.529952332010647E-006
                    78  3.373617440907224E-005
                    79  0.000000000000000E+000
                    80 -2.653168762810777E-005
                    81  0.000000000000000E+000
                    82  1.376385696185825E-004
                    83 -3.195989073665698E-005
                    84  0.000000000000000E+000
                    85 -8.344259859338019E-005
                    86  0.000000000000000E+000
                    87 -3.683290740071878E-005
                    88  1.827322489166933E-005
                    89  0.000000000000000E+000
                    90  0.000000000000000E+000
                    91  5.631112312061837E-006
                    92 -1.927202979098211E-004
                    93 -1.509454244772061E-003
                    94  4.891302816717031E-005
                    95  4.916133819893168E-004
                    96  0.000000000000000E+000
                    97  7.388687571868343E-004
                    98  8.411796893825650E-004
                    99  0.000000000000000E+000
                   100  2.015335913013776E-005
                   101  5.042613402477099E-004
                   102  0.000000000000000E+000
                   103  4.242318475574578E-004
                   104 -2.014622500652109E-004
                   105  7.306363169968705E-005
                   106  0.000000000000000E+000
                   107  8.529952332010647E-006
                   108  3.373617440907224E-005
                   109  0.000000000000000E+000
                   110 -2.653168762810777E-005
                   111  0.000000000000000E+000
                   112 -1.376385696185825E-004
                   113 -3.195989073665698E-005
                   114  0.000000000000000E+000
                   115 -8.344259859338019E-005
                   116  0.000000000000000E+000
                   117  3.683290740071878E-005
                   118  1.827322489166933E-005
                   119  0.000000000000000E+000
                   120  0.000000000000000E+000
                   121 -5.631112312061837E-006
                   122 -1.112940443915802E-004
                   123  6.197061113830021E-005
                   124  8.127078987699782E-005
                   125  1.743995419796301E-004
                   126  0.000000000000000E+000
                   127  2.467210723203275E-005
                   128 -7.247163408152551E-004
                   129  0.000000000000000E+000
                   130  4.895085842297170E-005
                   131  2.622481231144489E-004
                   132  0.000000000000000E+000
                   133 -2.209160246696645E-004
                   134  5.959393330183128E-004
                   135 -8.198055857718523E-006
                   136  0.000000000000000E+000
                   137 -6.694086400764797E-007
                   138 -1.230140698893979E-006
                   139  0.000000000000000E+000
                   140 -1.627515720123048E-004
                   141  0.000000000000000E+000
                   142  1.502322490819492E-004
                   143  2.197001909534826E-005
                   144  0.000000000000000E+000
                   145 -3.699455549993617E-005
                   146  0.000000000000000E+000
                   147  3.090726928824190E-006
                   148 -9.948478706673699E-006
                   149  0.000000000000000E+000
                   150  0.000000000000000E+000
                   151 -3.747662400677448E-006
                   152 -1.112940443915802E-004
                   153  6.197061113830021E-005
                   154  8.127078987699782E-005
                   155  1.743995419796301E-004
                   156  0.000000000000000E+000
                   157 -2.467210723203275E-005
                   158 -7.247163408152551E-004
                   159  0.000000000000000E+000
                   160 -4.895085842297170E-005
                   161  2.622481231144489E-004
                   162  0.000000000000000E+000
                   163  2.209160246696645E-004
                   164  5.959393330183128E-004
                   165 -8.198055857718523E-006
                   166  0.000000000000000E+000
                   167  6.694086400764797E-007
                   168 -1.230140698893979E-006
                   169  0.000000000000000E+000
                   170 -1.627515720123048E-004
                   171  0.000000000000000E+000
                   172 -1.502322490819492E-004
                   173  2.197001909534826E-005
                   174  0.000000000000000E+000
                   175 -3.699455549993617E-005
                   176  0.000000000000000E+000
                   177 -3.090726928824190E-006
                   178 -9.948478706673699E-006
                   179  0.000000000000000E+000
                   180  0.000000000000000E+000
                   181  3.747662400677448E-006
                   182 -7.905816561707339E-005
                   183 -2.148459903353437E-004
                   184  2.879383150776003E-005
                   185  7.808284169118676E-005
                   186  0.000000000000000E+000
                   187  0.000000000000000E+000
                   188 -1.686917187171248E-005
                   189  0.000000000000000E+000
                   190  0.000000000000000E+000
                   191  1.617828538717009E-005
                   192  0.000000000000000E+000
                   193  0.000000000000000E+000
                   194  3.043693331759772E-005
                   195  2.068394020392126E-005
                   196  0.000000000000000E+000
                   197  0.000000000000000E+000
                   198  8.382425479476516E-006
                   199  0.000000000000000E+000
                   200  3.850173236654294E-005
                   201  0.000000000000000E+000
                   202  0.000000000000000E+000
                   203  5.999875145924482E-005
                   204  0.000000000000000E+000
                   205 -5.782935250032410E-006
                   206  0.000000000000000E+000
                   207  0.000000000000000E+000
                   208 -2.802198857134690E-006
                   209  0.000000000000000E+000
                   210  0.000000000000000E+000
                   211  0.000000000000000E+000
                   212  3.664499233735739E-003
                   213 -2.294443985341198E-003
                   214  0.000000000000000E+000
                   215  4.291679393105881E-004
                   216  3.335220781512597E-004
                   217  3.664499233735739E-003
                   218 -2.294443985341198E-003
                   219  0.000000000000000E+000
                   220 -4.291679393105881E-004
                   221  3.335220781512597E-004
                   222 -5.790168179636294E-004
                   223 -8.626388336290982E-005
                   224  0.000000000000000E+000
                   225 -1.264242201252716E-005
                   226 -3.870257668823600E-005
                   227 -5.790168179636294E-004
                   228 -8.626388336290982E-005
                   229  0.000000000000000E+000
                   230  1.264242201252716E-005
                   231 -3.870257668823600E-005
                   232 -1.884558956836648E-004
                   233 -3.682282667475348E-004
                   234  0.000000000000000E+000
                   235 -1.132824744473406E-006
                   236  2.953160736236658E-006
                   237 -1.884558956836648E-004
                   238 -3.682282667475348E-004
                   239  0.000000000000000E+000
                   240  1.132824744473406E-006
                   241  2.953160736236658E-006
                   242  1.016236339218201E-004
                   243 -9.888376821711684E-005
                   244  0.000000000000000E+000
                   245  0.000000000000000E+000
                   246  8.144890427448717E-006
 Sym= __2_A1_
 Ene=  0.000000000000000E+000
 Spin= Alpha
 Occup=    2.00000000000000     
                     1 -4.503681747261912E-005
                     2 -1.587368723072821E-004
                     3  1.955875947246410E-003
                     4  4.759768729502057E-005
                     5  1.136836313636386E-003
                     6  0.000000000000000E+000
                     7  0.000000000000000E+000
                     8  2.626922284299379E-003
                     9  0.000000000000000E+000
                    10  0.000000000000000E+000
                    11 -4.172738459351077E-005
                    12  0.000000000000000E+000
                    13  0.000000000000000E+000
                    14 -3.773862467865453E-004
                    15  5.813431898310169E-005
                    16  0.000000000000000E+000
                    17  0.000000000000000E+000
                    18  6.327555801260938E-005
                    19  0.000000000000000E+000
                    20 -2.305750372102614E-004
                    21  0.000000000000000E+000
                    22  0.000000000000000E+000
                    23 -3.403250787676776E-004
                    24  0.000000000000000E+000
                    25  1.801494254671289E-004
                    26  0.000000000000000E+000
                    27  0.000000000000000E+000
                    28 -1.078189115624160E-005
                    29  0.000000000000000E+000
                    30  0.000000000000000E+000
                    31  0.000000000000000E+000
                    32   1.00108418028370     
                    33  9.025717106102510E-003
                    34  2.588919069332319E-003
                    35 -7.921871074715061E-003
                    36  0.000000000000000E+000
                    37  0.000000000000000E+000
                    38 -3.604004013410524E-003
                    39  0.000000000000000E+000
                    40  0.000000000000000E+000
                    41  1.031777020278355E-003
                    42  0.000000000000000E+000
                    43  0.000000000000000E+000
                    44  4.026562363297161E-003
                    45  3.245719202140381E-004
                    46  0.000000000000000E+000
                    47  0.000000000000000E+000
                    48 -4.515755811328100E-004
                    49  0.000000000000000E+000
                    50  7.994262819084487E-004
                    51  0.000000000000000E+000
                    52  0.000000000000000E+000
                    53  1.144292422869555E-003
                    54  0.000000000000000E+000
                    55  3.236899773475512E-004
                    56  0.000000000000000E+000
                    57  0.000000000000000E+000
                    58 -1.969096147147905E-004
                    59  0.000000000000000E+000
                    60  0.000000000000000E+000
                    61  0.000000000000000E+000
                    62  8.947549994554179E-003
                    63 -1.989288255214118E-003
                    64 -2.902513501255008E-004
                    65  3.122537324710217E-003
                    66  0.000000000000000E+000
                    67  1.612693758329855E-004
                    68 -1.894191293001882E-005
                    69  0.000000000000000E+000
                    70  6.178293393338926E-004
                    71 -1.845320444373672E-004
                    72  0.000000000000000E+000
                    73 -2.072544206858585E-003
                    74  1.099612973396736E-005
                    75 -2.418821204787716E-005
                    76  0.000000000000000E+000
                    77  1.553345013993019E-005
                    78  1.886570657088294E-005
                    79  0.000000000000000E+000
                    80  8.240198993949334E-004
                    81  0.000000000000000E+000
                    82 -5.900640170972666E-004
                    83  3.161704754869958E-005
                    84  0.000000000000000E+000
                    85  5.706870307190861E-005
                    86  0.000000000000000E+000
                    87  6.444905933244290E-005
                    88 -1.063054159719330E-004
                    89  0.000000000000000E+000
                    90  0.000000000000000E+000
                    91  6.465457017409507E-005
                    92  8.947549994554179E-003
                    93 -1.989288255214118E-003
                    94 -2.902513501255008E-004
                    95  3.122537324710217E-003
                    96  0.000000000000000E+000
                    97 -1.612693758329855E-004
                    98 -1.894191293001882E-005
                    99  0.000000000000000E+000
                   100 -6.178293393338926E-004
                   101 -1.845320444373672E-004
                   102  0.000000000000000E+000
                   103  2.072544206858585E-003
                   104  1.099612973396736E-005
                   105 -2.418821204787716E-005
                   106  0.000000000000000E+000
                   107 -1.553345013993019E-005
                   108  1.886570657088294E-005
                   109  0.000000000000000E+000
                   110  8.240198993949334E-004
                   111  0.000000000000000E+000
                   112  5.900640170972666E-004
                   113  3.161704754869958E-005
                   114  0.000000000000000E+000
                   115  5.706870307190861E-005
                   116  0.000000000000000E+000
                   117 -6.444905933244290E-005
                   118 -1.063054159719330E-004
                   119  0.000000000000000E+000
                   120  0.000000000000000E+000
                   121 -6.465457017409507E-005
                   122 -2.185692655473471E-004
                   123 -7.064889105911190E-004
                   124  2.218740516040071E-004
                   125 -9.363570475029825E-005
                   126  0.000000000000000E+000
                   127 -2.835025344266490E-005
                   128 -2.304322922880360E-004
                   129  0.000000000000000E+000
                   130  2.625718476895761E-005
                   131  4.719592745568108E-004
                   132  0.000000000000000E+000
                   133  3.449424956021055E-004
                   134  6.708291439188294E-004
                   135 -1.335378731581432E-005
                   136  0.000000000000000E+000
                   137  4.776234237745682E-005
                   138  1.204125350101414E-005
                   139  0.000000000000000E+000
                   140 -3.007201785695807E-004
                   141  0.000000000000000E+000
                   142 -2.853781195278723E-004
                   143 -1.601257159414030E-005
                   144  0.000000000000000E+000
                   145 -8.772747426479746E-006
                   146  0.000000000000000E+000
                   147 -3.601186296885532E-005
                   148 -2.881998312156124E-005
                   149  0.000000000000000E+000
                   150  0.000000000000000E+000
                   151 -4.420116559493971E-006
                   152 -2.185692655473471E-004
                   153 -7.064889105911190E-004
                   154  2.218740516040071E-004
                   155 -9.363570475029825E-005
                   156  0.000000000000000E+000
                   157  2.835025344266490E-005
                   158 -2.304322922880360E-004
                   159  0.000000000000000E+000
                   160 -2.625718476895761E-005