[Molden Format]
[Atoms] AU
  N     1    7     0.0000000000   -4.2907334100    0.0000000000        
  C     2    6     0.0000000000   -1.7772236300    0.0000000000        
  C     3    6    -2.3389203600   -0.4111016300    0.0000000000        
  C     4    6     2.3389203600   -0.4111016300    0.0000000000        
  C     5    6    -2.2998668500    2.1639215300    0.0000000000        
  C     6    6     2.2998668500    2.1639215300    0.0000000000        
  C     7    6     0.0000000000    3.4755251800    0.0000000000        
  H     8    1    -2.5732809600   -5.8782317900    0.0000000000        
  H     9    1     2.0907907800   -5.5805758500    0.0000000000        
  H    10    1    -4.0745407300   -1.4447408500    0.0000000000        
  H    11    1     4.0745407300   -1.4447408500    0.0000000000        
  H    12    1    -4.0420632100    3.1963889500    0.0000000000        
  H    13    1     4.0420632100    3.1963889500    0.0000000000        
  H    14    1     0.0000000000    5.5020335600    0.0000000000        
[5D]
[7F]
[GTO]
  1  0
   s    12 1.00
  0.114200D+05  0.172695D-04
  0.171200D+04  0.134411D-03
  0.389300D+03  0.694561D-03
  0.110000D+03  0.278531D-02
  0.355700D+02  0.863457D-02
  0.125400D+02  0.199805D-01
  0.464400D+01  0.262908D-01
  0.129300D+01 -0.243845D-01
  0.511800D+00 -0.924934D-01
  0.178700D+00 -0.339683D+00
  0.246240D-01  0.345111D+00
  0.112530D-01  0.752750D+00
   s    10 1.00
  0.114200D+05  0.523000D-03
  0.171200D+04  0.404500D-02
  0.389300D+03  0.207750D-01
  0.110000D+03  0.807269D-01
  0.355700D+02  0.233074D+00
  0.125400D+02  0.433501D+00
  0.464400D+01  0.347472D+00
  0.129300D+01  0.412620D-01
  0.511800D+00 -0.850799D-02
  0.178700D+00  0.238400D-02
   s    10 1.00
  0.114200D+05 -0.115000D-03
  0.171200D+04 -0.895000D-03
  0.389300D+03 -0.462400D-02
  0.110000D+03 -0.185280D-01
  0.355700D+02 -0.573390D-01
  0.125400D+02 -0.132076D+00
  0.464400D+01 -0.172510D+00
  0.129300D+01  0.151814D+00
  0.511800D+00  0.599944D+00
  0.178700D+00  0.387462D+00
   s     1 1.00
  0.129300D+01  0.100000D+01
   s     1 1.00
  0.178700D+00  0.100000D+01
   p     5 1.00
  0.266300D+02  0.146700D-01
  0.594800D+01  0.917640D-01
  0.174200D+01  0.298683D+00
  0.555000D+00  0.498487D+00
  0.172500D+00  0.337023D+00
   p     1 1.00
  0.174200D+01  0.100000D+01
   p     1 1.00
  0.555000D+00  0.100000D+01
   d     1 1.00
  0.165400D+01  0.100000D+01
   d     1 1.00
  0.469000D+00  0.100000D+01
   f     1 1.00
  0.109300D+01  0.100000D+01
  
  2  0
   s    10 1.00
  0.823600D+04  0.531000D-03
  0.123500D+04  0.410800D-02
  0.280800D+03  0.210870D-01
  0.792700D+02  0.818530D-01
  0.255900D+02  0.234817D+00
  0.899700D+01  0.434401D+00
  0.331900D+01  0.346129D+00
  0.905900D+00  0.393780D-01
  0.364300D+00 -0.898300D-02
  0.128500D+00  0.238500D-02
   s    10 1.00
  0.823600D+04 -0.113000D-03
  0.123500D+04 -0.878000D-03
  0.280800D+03 -0.454000D-02
  0.792700D+02 -0.181330D-01
  0.255900D+02 -0.557600D-01
  0.899700D+01 -0.126895D+00
  0.331900D+01 -0.170352D+00
  0.905900D+00  0.140382D+00
  0.364300D+00  0.598684D+00
  0.128500D+00  0.395389D+00
   s     1 1.00
  0.905900D+00  0.100000D+01
   s     1 1.00
  0.364300D+00  0.100000D+01
   p     5 1.00
  0.187100D+02  0.140310D-01
  0.413300D+01  0.868660D-01
  0.120000D+01  0.290216D+00
  0.382700D+00  0.501008D+00
  0.120900D+00  0.343406D+00
   p     1 1.00
  0.382700D+00  0.100000D+01
   p     1 1.00
  0.120900D+00  0.100000D+01
   d     1 1.00
  0.109700D+01  0.100000D+01
   d     1 1.00
  0.318000D+00  0.100000D+01
   f     1 1.00
  0.761000D+00  0.100000D+01
  
  3  0
   s    10 1.00
  0.823600D+04  0.531000D-03
  0.123500D+04  0.410800D-02
  0.280800D+03  0.210870D-01
  0.792700D+02  0.818530D-01
  0.255900D+02  0.234817D+00
  0.899700D+01  0.434401D+00
  0.331900D+01  0.346129D+00
  0.905900D+00  0.393780D-01
  0.364300D+00 -0.898300D-02
  0.128500D+00  0.238500D-02
   s    10 1.00
  0.823600D+04 -0.113000D-03
  0.123500D+04 -0.878000D-03
  0.280800D+03 -0.454000D-02
  0.792700D+02 -0.181330D-01
  0.255900D+02 -0.557600D-01
  0.899700D+01 -0.126895D+00
  0.331900D+01 -0.170352D+00
  0.905900D+00  0.140382D+00
  0.364300D+00  0.598684D+00
  0.128500D+00  0.395389D+00
   s     1 1.00
  0.905900D+00  0.100000D+01
   s     1 1.00
  0.364300D+00  0.100000D+01
   p     5 1.00
  0.187100D+02  0.140310D-01
  0.413300D+01  0.868660D-01
  0.120000D+01  0.290216D+00
  0.382700D+00  0.501008D+00
  0.120900D+00  0.343406D+00
   p     1 1.00
  0.382700D+00  0.100000D+01
   p     1 1.00
  0.120900D+00  0.100000D+01
   d     1 1.00
  0.109700D+01  0.100000D+01
   d     1 1.00
  0.318000D+00  0.100000D+01
   f     1 1.00
  0.761000D+00  0.100000D+01
  
  4  0
   s    10 1.00
  0.823600D+04  0.531000D-03
  0.123500D+04  0.410800D-02
  0.280800D+03  0.210870D-01
  0.792700D+02  0.818530D-01
  0.255900D+02  0.234817D+00
  0.899700D+01  0.434401D+00
  0.331900D+01  0.346129D+00
  0.905900D+00  0.393780D-01
  0.364300D+00 -0.898300D-02
  0.128500D+00  0.238500D-02
   s    10 1.00
  0.823600D+04 -0.113000D-03
  0.123500D+04 -0.878000D-03
  0.280800D+03 -0.454000D-02
  0.792700D+02 -0.181330D-01
  0.255900D+02 -0.557600D-01
  0.899700D+01 -0.126895D+00
  0.331900D+01 -0.170352D+00
  0.905900D+00  0.140382D+00
  0.364300D+00  0.598684D+00
  0.128500D+00  0.395389D+00
   s     1 1.00
  0.905900D+00  0.100000D+01
   s     1 1.00
  0.364300D+00  0.100000D+01
   p     5 1.00
  0.187100D+02  0.140310D-01
  0.413300D+01  0.868660D-01
  0.120000D+01  0.290216D+00
  0.382700D+00  0.501008D+00
  0.120900D+00  0.343406D+00
   p     1 1.00
  0.382700D+00  0.100000D+01
   p     1 1.00
  0.120900D+00  0.100000D+01
   d     1 1.00
  0.109700D+01  0.100000D+01
   d     1 1.00
  0.318000D+00  0.100000D+01
   f     1 1.00
  0.761000D+00  0.100000D+01
  
  5  0
   s    10 1.00
  0.823600D+04  0.531000D-03
  0.123500D+04  0.410800D-02
  0.280800D+03  0.210870D-01
  0.792700D+02  0.818530D-01
  0.255900D+02  0.234817D+00
  0.899700D+01  0.434401D+00
  0.331900D+01  0.346129D+00
  0.905900D+00  0.393780D-01
  0.364300D+00 -0.898300D-02
  0.128500D+00  0.238500D-02
   s    10 1.00
  0.823600D+04 -0.113000D-03
  0.123500D+04 -0.878000D-03
  0.280800D+03 -0.454000D-02
  0.792700D+02 -0.181330D-01
  0.255900D+02 -0.557600D-01
  0.899700D+01 -0.126895D+00
  0.331900D+01 -0.170352D+00
  0.905900D+00  0.140382D+00
  0.364300D+00  0.598684D+00
  0.128500D+00  0.395389D+00
   s     1 1.00
  0.905900D+00  0.100000D+01
   s     1 1.00
  0.364300D+00  0.100000D+01
   p     5 1.00
  0.187100D+02  0.140310D-01
  0.413300D+01  0.868660D-01
  0.120000D+01  0.290216D+00
  0.382700D+00  0.501008D+00
  0.120900D+00  0.343406D+00
   p     1 1.00
  0.382700D+00  0.100000D+01
   p     1 1.00
  0.120900D+00  0.100000D+01
   d     1 1.00
  0.109700D+01  0.100000D+01
   d     1 1.00
  0.318000D+00  0.100000D+01
   f     1 1.00
  0.761000D+00  0.100000D+01
  
  6  0
   s    10 1.00
  0.823600D+04  0.531000D-03
  0.123500D+04  0.410800D-02
  0.280800D+03  0.210870D-01
  0.792700D+02  0.818530D-01
  0.255900D+02  0.234817D+00
  0.899700D+01  0.434401D+00
  0.331900D+01  0.346129D+00
  0.905900D+00  0.393780D-01
  0.364300D+00 -0.898300D-02
  0.128500D+00  0.238500D-02
   s    10 1.00
  0.823600D+04 -0.113000D-03
  0.123500D+04 -0.878000D-03
  0.280800D+03 -0.454000D-02
  0.792700D+02 -0.181330D-01
  0.255900D+02 -0.557600D-01
  0.899700D+01 -0.126895D+00
  0.331900D+01 -0.170352D+00
  0.905900D+00  0.140382D+00
  0.364300D+00  0.598684D+00
  0.128500D+00  0.395389D+00
   s     1 1.00
  0.905900D+00  0.100000D+01
   s     1 1.00
  0.364300D+00  0.100000D+01
   p     5 1.00
  0.187100D+02  0.140310D-01
  0.413300D+01  0.868660D-01
  0.120000D+01  0.290216D+00
  0.382700D+00  0.501008D+00
  0.120900D+00  0.343406D+00
   p     1 1.00
  0.382700D+00  0.100000D+01
   p     1 1.00
  0.120900D+00  0.100000D+01
   d     1 1.00
  0.109700D+01  0.100000D+01
   d     1 1.00
  0.318000D+00  0.100000D+01
   f     1 1.00
  0.761000D+00  0.100000D+01
  
  7  0
   s    10 1.00
  0.823600D+04  0.531000D-03
  0.123500D+04  0.410800D-02
  0.280800D+03  0.210870D-01
  0.792700D+02  0.818530D-01
  0.255900D+02  0.234817D+00
  0.899700D+01  0.434401D+00
  0.331900D+01  0.346129D+00
  0.905900D+00  0.393780D-01
  0.364300D+00 -0.898300D-02
  0.128500D+00  0.238500D-02
   s    10 1.00
  0.823600D+04 -0.113000D-03
  0.123500D+04 -0.878000D-03
  0.280800D+03 -0.454000D-02
  0.792700D+02 -0.181330D-01
  0.255900D+02 -0.557600D-01
  0.899700D+01 -0.126895D+00
  0.331900D+01 -0.170352D+00
  0.905900D+00  0.140382D+00
  0.364300D+00  0.598684D+00
  0.128500D+00  0.395389D+00
   s     1 1.00
  0.905900D+00  0.100000D+01
   s     1 1.00
  0.364300D+00  0.100000D+01
   p     5 1.00
  0.187100D+02  0.140310D-01
  0.413300D+01  0.868660D-01
  0.120000D+01  0.290216D+00
  0.382700D+00  0.501008D+00
  0.120900D+00  0.343406D+00
   p     1 1.00
  0.382700D+00  0.100000D+01
   p     1 1.00
  0.120900D+00  0.100000D+01
   d     1 1.00
  0.109700D+01  0.100000D+01
   d     1 1.00
  0.318000D+00  0.100000D+01
   f     1 1.00
  0.761000D+00  0.100000D+01
  
  8  0
   s     4 1.00
  0.130100D+02  0.196850D-01
  0.196200D+01  0.137977D+00
  0.444600D+00  0.478148D+00
  0.122000D+00  0.501240D+00
   s     1 1.00
  0.122000D+00  0.100000D+01
   p     1 1.00
  0.727000D+00  0.100000D+01
  
  9  0
   s     4 1.00
  0.130100D+02  0.196850D-01
  0.196200D+01  0.137977D+00
  0.444600D+00  0.478148D+00
  0.122000D+00  0.501240D+00
   s     1 1.00
  0.122000D+00  0.100000D+01
   p     1 1.00
  0.727000D+00  0.100000D+01
  
 10  0
   s     4 1.00
  0.130100D+02  0.196850D-01
  0.196200D+01  0.137977D+00
  0.444600D+00  0.478148D+00
  0.122000D+00  0.501240D+00
   s     1 1.00
  0.122000D+00  0.100000D+01
   p     1 1.00
  0.727000D+00  0.100000D+01
  
 11  0
   s     4 1.00
  0.130100D+02  0.196850D-01
  0.196200D+01  0.137977D+00
  0.444600D+00  0.478148D+00
  0.122000D+00  0.501240D+00
   s     1 1.00
  0.122000D+00  0.100000D+01
   p     1 1.00
  0.727000D+00  0.100000D+01
  
 12  0
   s     4 1.00
  0.130100D+02  0.196850D-01
  0.196200D+01  0.137977D+00
  0.444600D+00  0.478148D+00
  0.122000D+00  0.501240D+00
   s     1 1.00
  0.122000D+00  0.100000D+01
   p     1 1.00
  0.727000D+00  0.100000D+01
  
 13  0
   s     4 1.00
  0.130100D+02  0.196850D-01
  0.196200D+01  0.137977D+00
  0.444600D+00  0.478148D+00
  0.122000D+00  0.501240D+00
   s     1 1.00
  0.122000D+00  0.100000D+01
   p     1 1.00
  0.727000D+00  0.100000D+01
  
 14  0
   s     4 1.00
  0.130100D+02  0.196850D-01
  0.196200D+01  0.137977D+00
  0.444600D+00  0.478148D+00
  0.122000D+00  0.501240D+00
   s     1 1.00
  0.122000D+00  0.100000D+01
   p     1 1.00
  0.727000D+00  0.100000D+01
  
[MO]
 Sym= __1_A__
 Ene=   1.00000000000000     
 Spin= Alpha
 Occup=    1.00000000000000     
                     1  4.039175685773539E-005
                     2  0.998699504456151     
                     3  1.408890607622594E-003
                     4  1.342950923943715E-003
                     5  4.688559653253255E-003
                     6  3.290333273032817E-003
                     7  6.210079750621460E-003
                     8 -1.170664062063147E-011
                     9 -7.745470706332952E-004
                    10 -4.986948307915040E-004
                    11 -2.692729715916042E-012
                    12 -2.246791267755645E-003
                    13 -1.883456404402855E-003
                    14  1.204075431390301E-011
                    15 -6.098979593428345E-005
                    16 -2.557807484816854E-012
                    17  3.370705080896441E-012
                    18 -2.415398998977086E-004
                    19 -2.080975135388087E-005
                    20  1.808551984020689E-004
                    21 -8.935675949950810E-013
                    22 -6.226506201792643E-013
                    23 -2.055536620570402E-004
                    24  4.238249716649576E-004
                    25 -3.280531424784526E-013
                    26 -1.050912437975184E-006
                    27 -4.927654094582033E-005
                    28 -1.935726759244025E-013
                    29 -1.651660656193224E-012
                    30  2.508832489312231E-005
                    31 -1.040220245785137E-004
                    32 -2.876222124377108E-004
                    33  1.267253262874289E-003
                    34  2.401260530706637E-004
                    35 -2.577303905834555E-004
                    36 -1.633020452632916E-004
                    37 -4.276064620649094E-003
                    38  5.102277005443261E-012
                    39  5.435836978008045E-004
                    40  4.441584466232679E-005
                    41 -5.507897504798607E-012
                    42 -2.305788864307905E-003
                    43  5.308651753267661E-003
                    44  5.866166976939896E-012
                    45 -2.503542640275881E-005
                    46 -2.206452614909039E-012
                    47  3.413737608003830E-013
                    48 -2.262045548850348E-004
                    49 -5.896667316798946E-006
                    50 -2.679264332776172E-004
                    51 -8.584898764676659E-012
                    52 -6.035281180150444E-012
                    53 -7.685056518239233E-005
                    54  7.169256727149828E-004
                    55 -1.907102507228988E-012
                    56 -1.564543712146848E-005
                    57 -3.937378282135996E-005
                    58  5.494396749354964E-013
                    59 -9.108943107141181E-013
                    60 -5.337184240157877E-006
                    61 -1.084120219541894E-004
                    62 -5.107446597856485E-004
                    63 -2.233863367978202E-003
                    64 -9.448273884349139E-005
                    65  2.132727369802248E-003
                    66 -6.254487573359209E-004
                    67  4.140350385622951E-004
                    68 -2.405507874952181E-012
                    69  4.464748525517470E-004
                    70  7.458886117114687E-004
                    71 -5.832887182784670E-013
                    72 -1.745034113174508E-003
                    73  7.393000760294049E-004
                    74 -9.104206227750407E-012
                    75 -4.201888595053803E-005
                    76  5.570618907520113E-012
                    77 -6.326773553117360E-013
                    78 -7.684810103633244E-005
                    79 -2.917570198454187E-005
                    80 -1.550138769636128E-004
                    81 -7.346151021152280E-012
                    82 -1.009067559220537E-012
                    83  5.950703216311896E-005
                    84  3.754075633173321E-005
                    85  8.460245234588172E-013
                    86  5.618043259489178E-006
                    87 -4.410390144500174E-005
                    88 -5.123254291591664E-013
                    89  1.601700228347435E-012
                    90 -1.347000675455789E-005
                    91 -1.534802460431623E-004
                    92 -1.194927475439108E-004
                    93 -8.723513036344235E-004
                    94  1.989591612710476E-004
                    95 -2.814175375066925E-004
                    96  4.840740240605745E-004
                    97  5.445911257485518E-004
                    98  4.275602427852215E-013
                    99  3.927171787151369E-004
                   100  2.468397378044000E-004
                   101 -1.358147619018088E-013
                   102  5.284627710655123E-004
                   103 -1.422372040117877E-003
                   104  3.258880582831140E-013
                   105 -7.167520652667683E-006
                   106  1.823567540797135E-012
                   107  3.092740557190369E-012
                   108 -5.557307788340852E-005
                   109 -1.716313599594444E-005
                   110  1.445799866587547E-004
                   111 -2.740049991761568E-012
                   112 -6.894058085212161E-012
                   113 -1.298860752236786E-004
                   114 -1.479525127612646E-005
                   115 -7.733137606737072E-014
                   116 -2.568705389695522E-005
                   117 -3.269366439258571E-005
                   118  3.168471596795562E-012
                   119 -8.487501422183168E-013
                   120  1.695828382593226E-005
                   121 -2.658594922013302E-005
                   122 -2.789398619614152E-004
                   123 -6.161358863450078E-004
                   124  1.695608455918665E-004
                   125  4.247115421619702E-004
                   126 -1.893198263252202E-005
                   127 -4.884229736189657E-004
                   128  6.617099961955566E-013
                   129  2.238567703559930E-004
                   130  5.958816243461823E-004
                   131  5.045060784746775E-013
                   132  3.397773834113204E-004
                   133  2.010865085262968E-003
                   134  1.020812933355248E-011
                   135  9.752599188971603E-006
                   136  1.859364668905710E-013
                   137 -1.868413759978173E-013
                   138  4.397956610831810E-005
                   139 -5.988135796007689E-007
                   140  2.073039697238394E-004
                   141  3.120132202465020E-012
                   142 -1.697940055083841E-012
                   143  3.495527855964636E-004
                   144  2.393896689991323E-004
                   145 -3.525279084588906E-013
                   146 -9.015968763336289E-006
                   147 -5.984241925035132E-005
                   148 -1.022528169563353E-012
                   149  1.386669987206991E-012
                   150 -1.877641815651363E-005
                   151 -4.719288724851786E-005
                   152 -1.859342728631768E-004
                   153 -3.410467656543400E-004
                   154  3.350528452234657E-005
                   155  4.279530058926740E-004
                   156 -2.511929567990462E-005
                   157 -4.031781271654647E-004
                   158 -3.095265054471161E-012
                   159  6.964470121391961E-006
                   160  2.990018084829164E-005
                   161  9.064659462425817E-012
                   162  6.975392626464973E-004
                   163 -2.940760624093528E-004
                   164 -3.417467383850234E-012
                   165 -3.266395289335057E-006
                   166  1.637943237079806E-012
                   167  4.037524508676211E-012
                   168 -6.183704696106798E-006
                   169  6.562798829701532E-006
                   170  5.404537921072887E-005
                   171  2.110655008918634E-012
                   172 -6.376736231027662E-012
                   173  1.211655688522304E-006
                   174 -1.899731072039015E-005
                   175  3.026043545826659E-012
                   176  5.102791536383787E-006
                   177 -7.341407317465784E-006
                   178 -2.824632776245234E-012
                   179  2.632143973867788E-012
                   180 -2.517478311514483E-005
                   181 -6.996205071254846E-006
                   182 -1.704644212892741E-004
                   183 -4.887294264828006E-004
                   184  5.337442172944346E-005
                   185  2.506275819619438E-004
                   186 -3.840537687340952E-005
                   187 -5.272681273186404E-005
                   188 -4.113126063852088E-012
                   189  2.014904345508229E-004
                   190  6.259787109181010E-005
                   191  6.568045226948532E-013
                   192  1.292568250007126E-003
                   193 -1.525936293534262E-004
                   194  1.368795631245594E-013
                   195 -1.676047595043228E-006
                   196 -2.810824098188555E-012
                   197 -3.375257726126556E-012
                   198 -1.355016572848334E-005
                   199  6.922832750477226E-006
                   200  2.852082370257076E-005
                   201  7.170624281498697E-012
                   202  3.898214775819995E-012
                   203 -8.272112698652441E-005
                   204 -1.829371428014652E-004
                   205 -1.532616352900022E-012
                   206 -5.896354647211782E-006
                   207 -6.636126720244633E-006
                   208 -1.580366456370897E-013
                   209 -3.931632917650347E-013
                   210  1.093224693534820E-005
                   211 -1.353918441470910E-006
                   212  2.606585908663460E-005
                   213  6.261226710233126E-005
                   214  1.350948709531441E-004
                   215  1.329869960651662E-004
                   216  6.099260638068092E-013
                   217 -2.318963652592720E-004
                   218 -5.298935011678901E-004
                   219 -2.909028602991861E-004
                   220  1.473539622887012E-004
                   221 -1.194046956283911E-012
                   222 -3.819117268217231E-004
                   223 -6.550838979556756E-004
                   224  4.059689914891775E-006
                   225 -6.683823556059449E-005
                   226 -1.071164559841284E-012
                   227 -1.842067862229691E-004
                   228 -5.220487913196333E-004
                   229 -5.575969904136851E-006
                   230 -1.482215092722161E-005
                   231 -8.054448886755707E-013
                   232 -4.523872520171491E-005
                   233 -5.728413179967964E-004
                   234  7.520878632708639E-006
                   235 -5.747475106884635E-006
                   236  1.079282499173352E-013
                   237 -1.410130930035889E-004
                   238 -3.760113294502315E-004
                   239  7.362145059838105E-006
                   240  2.910695088026191E-006
                   241 -1.786603415840725E-012
                   242  1.427278351656730E-005
                   243 -3.932537342982116E-005
                   244  1.272210861163972E-007
                   245  2.055402990950505E-005
                   246 -3.261532794658909E-015
 Sym= __2_A__
 Ene=   2.00000000000000     
 Spin= Alpha
 Occup=    1.00000000000000     
                     1 -5.461633457043728E-005
                     2 -3.519923965206055E-004
                     3  2.978438277393998E-003
                     4  1.674623734015116E-004
                     5  1.329242530696602E-003
                     6 -1.487224843767614E-004
                     7  2.907632401126568E-003
                     8 -1.157407643687464E-011
                     9 -3.135359440308956E-005
                    10 -1.228588421479576E-004
                    11  9.883947932491761E-012
                    12  3.464098501316247E-005
                    13 -3.886175171702035E-004
                    14 -8.974734025624514E-012
                    15  3.357786512015872E-005
                    16  2.212803631833069E-012
                    17 -1.073254479552499E-012
                    18 -4.951774762111638E-005
                    19  1.009978352468069E-005
                    20 -1.152365134156430E-004
                    21 -1.908605023936830E-012
                    22 -6.616145362826891E-012
                    23  1.235576069128011E-004
                    24 -4.484268281484190E-006
                    25 -2.854506558257959E-012
                    26 -8.514844687029979E-006
                    27  8.849857965004555E-005
                    28  1.700561444388567E-012
                    29  6.013610584678257E-013
                    30 -5.838017242217846E-006
                    31  1.517154483875076E-004
                    32   1.00101464450652     
                    33  9.290519179336930E-003
                    34  2.740612666891677E-003
                    35 -8.127311805552819E-003
                    36 -1.063879991724904E-004
                    37 -3.647800745074763E-003
                    38 -2.585133650382019E-012
                    39  1.420781996885755E-004
                    40  5.318848972047653E-004
                    41  7.254344580026962E-012
                    42  3.041817538523078E-005
                    43  4.234288269877733E-003
                    44 -1.175220851647988E-012
                    45 -5.712031042162294E-004
                    46  3.201252924585453E-013
                    47 -4.269937282840257E-012
                    48 -2.008481277533804E-004
                    49  4.862302400535176E-007
                    50  5.502700321895978E-004
                    51 -7.565346994629077E-013
                    52 -1.033850023771303E-011
                    53 -8.691186681731266E-004
                    54  4.441223420855161E-005
                    55  1.050839558409635E-012
                    56 -5.634233790886773E-006
                    57  9.239685939383800E-005
                    58 -5.548427583737090E-012
                    59  6.315869664549505E-013
                    60  5.091118823464787E-006
                    61  3.989975564595407E-004
                    62  9.181437231402693E-003
                    63 -2.090133138088449E-003
                    64 -2.955624892411443E-004
                    65  3.068527071064459E-003
                    66 -2.193387173904102E-005
                    67  1.099906134273598E-004
                    68  1.302767937230443E-011
                    69  7.271145820742544E-004
                    70  3.569229491247301E-006
                    71 -1.020189130004605E-011
                    72 -2.047899466084751E-003
                    73  7.698111486692145E-005
                    74 -9.875526070743015E-013
                    75  2.702849471595947E-005
                    76 -2.628422690143555E-012
                    77  1.292626130987923E-012
                    78 -2.509423193057470E-006
                    79  2.715065887477402E-006
                    80 -4.129326250055640E-004
                    81 -8.976473003320912E-013
                    82 -6.269316246649139E-013
                    83 -5.861524324692892E-004
                    84 -3.749533667335601E-004
                    85  3.443745035722061E-012
                    86  3.229898356907905E-005
                    87 -5.860298379874529E-005
                    88 -3.892693089083006E-012
                    89 -3.531237701930739E-012
                    90  5.104584436217130E-005
                    91  1.399671166203120E-004
                    92  9.610067136084045E-003
                    93 -2.060794772635433E-003
                    94 -2.767920574045107E-004
                    95  2.999455964147003E-003
                    96  2.584547383605387E-007
                    97  7.796710631332530E-005
                    98 -1.139953983765573E-011
                    99 -6.530784256555927E-004
                   100  6.228042390068904E-005
                   101  1.438208721634761E-011
                   102  2.041351647169395E-003
                   103  6.997717017577875E-005
                   104 -2.124340484996259E-012
                   105  3.117076438187565E-005
                   106  2.286257433313081E-012
                   107  5.845043229990835E-012
                   108 -5.384220418775338E-006
                   109 -7.473114171297343E-006
                   110 -4.085245408382255E-004
                   111 -5.893673361882715E-012
                   112 -5.882234733131807E-012
                   113 -6.117675166734798E-004
                   114  3.557618025118051E-004
                   115 -3.239870886358187E-012
                   116 -3.297030184846877E-005
                   117 -5.978701329196179E-005
                   118 -2.451163570124398E-013
                   119 -4.761103481282971E-014
                   120 -4.988065264778758E-005
                   121  1.380090391626376E-004
                   122 -1.584227888567014E-004
                   123 -6.761892151151205E-004
                   124  2.265626137628428E-004
                   125 -1.120169601623482E-004
                   126 -1.383710827312617E-006
                   127 -3.389387864697472E-004
                   128 -6.357873806997959E-012
                   129 -6.161829724427244E-005
                   130  5.394556064614906E-004
                   131  1.562838580274914E-012
                   132  3.220464063397003E-004
                   133  7.547435344579981E-004
                   134  1.205146967760603E-011
                   135  1.912310086094071E-005
                   136 -2.785135752774935E-013
                   137 -3.662817261908177E-012
                   138  3.720307009458016E-006
                   139  5.300181963469132E-005
                   140  1.364750445890703E-004
                   141  1.921443424516139E-012
                   142 -1.413192405761081E-012
                   143  2.435040784566884E-004
                   144 -1.845900114864724E-004
                   145 -3.260172842123598E-013
                   146  7.092144799889984E-006
                   147 -3.344220964964599E-005
                   148 -8.875308433800546E-013
                   149 -6.535103108293544E-013
                   150 -4.726905657848986E-005
                   151  2.819335270915980E-005
                   152 -1.476501168151269E-004
                   153 -6.822761277260251E-004
                   154  2.297469843229511E-004
                   155 -1.345712660522309E-004
                   156  2.121258999512133E-006
                   157 -3.321345806934647E-004
                   158  1.972481371188713E-011
                   159  5.078513895602563E-005
                   160  5.625069729274802E-004