[Molden Format]
[Atoms] AU
  N     1    7     0.0000000000   -4.2907334100    0.0000000000        
  C     2    6     0.0000000000   -1.7772236300    0.0000000000        
  C     3    6    -2.3389203600   -0.4111016300    0.0000000000        
  C     4    6     2.3389203600   -0.4111016300    0.0000000000        
  C     5    6    -2.2998668500    2.1639215300    0.0000000000        
  C     6    6     2.2998668500    2.1639215300    0.0000000000        
  C     7    6     0.0000000000    3.4755251800    0.0000000000        
  H     8    1    -2.5732809600   -5.8782317900    0.0000000000        
  H     9    1     2.0907907800   -5.5805758500    0.0000000000        
  H    10    1    -4.0745407300   -1.4447408500    0.0000000000        
  H    11    1     4.0745407300   -1.4447408500    0.0000000000        
  H    12    1    -4.0420632100    3.1963889500    0.0000000000        
  H    13    1     4.0420632100    3.1963889500    0.0000000000        
  H    14    1     0.0000000000    5.5020335600    0.0000000000        
[5D]
[7F]
[GTO]
  1  0
   s    12 1.00
  0.114200D+05  0.172695D-04
  0.171200D+04  0.134411D-03
  0.389300D+03  0.694561D-03
  0.110000D+03  0.278531D-02
  0.355700D+02  0.863457D-02
  0.125400D+02  0.199805D-01
  0.464400D+01  0.262908D-01
  0.129300D+01 -0.243845D-01
  0.511800D+00 -0.924934D-01
  0.178700D+00 -0.339683D+00
  0.246240D-01  0.345111D+00
  0.112530D-01  0.752750D+00
   s    10 1.00
  0.114200D+05  0.523000D-03
  0.171200D+04  0.404500D-02
  0.389300D+03  0.207750D-01
  0.110000D+03  0.807269D-01
  0.355700D+02  0.233074D+00
  0.125400D+02  0.433501D+00
  0.464400D+01  0.347472D+00
  0.129300D+01  0.412620D-01
  0.511800D+00 -0.850799D-02
  0.178700D+00  0.238400D-02
   s    10 1.00
  0.114200D+05 -0.115000D-03
  0.171200D+04 -0.895000D-03
  0.389300D+03 -0.462400D-02
  0.110000D+03 -0.185280D-01
  0.355700D+02 -0.573390D-01
  0.125400D+02 -0.132076D+00
  0.464400D+01 -0.172510D+00
  0.129300D+01  0.151814D+00
  0.511800D+00  0.599944D+00
  0.178700D+00  0.387462D+00
   s     1 1.00
  0.129300D+01  0.100000D+01
   s     1 1.00
  0.178700D+00  0.100000D+01
   p     5 1.00
  0.266300D+02  0.146700D-01
  0.594800D+01  0.917640D-01
  0.174200D+01  0.298683D+00
  0.555000D+00  0.498487D+00
  0.172500D+00  0.337023D+00
   p     1 1.00
  0.174200D+01  0.100000D+01
   p     1 1.00
  0.555000D+00  0.100000D+01
   d     1 1.00
  0.165400D+01  0.100000D+01
   d     1 1.00
  0.469000D+00  0.100000D+01
   f     1 1.00
  0.109300D+01  0.100000D+01
  
  2  0
   s    10 1.00
  0.823600D+04  0.531000D-03
  0.123500D+04  0.410800D-02
  0.280800D+03  0.210870D-01
  0.792700D+02  0.818530D-01
  0.255900D+02  0.234817D+00
  0.899700D+01  0.434401D+00
  0.331900D+01  0.346129D+00
  0.905900D+00  0.393780D-01
  0.364300D+00 -0.898300D-02
  0.128500D+00  0.238500D-02
   s    10 1.00
  0.823600D+04 -0.113000D-03
  0.123500D+04 -0.878000D-03
  0.280800D+03 -0.454000D-02
  0.792700D+02 -0.181330D-01
  0.255900D+02 -0.557600D-01
  0.899700D+01 -0.126895D+00
  0.331900D+01 -0.170352D+00
  0.905900D+00  0.140382D+00
  0.364300D+00  0.598684D+00
  0.128500D+00  0.395389D+00
   s     1 1.00
  0.905900D+00  0.100000D+01
   s     1 1.00
  0.364300D+00  0.100000D+01
   p     5 1.00
  0.187100D+02  0.140310D-01
  0.413300D+01  0.868660D-01
  0.120000D+01  0.290216D+00
  0.382700D+00  0.501008D+00
  0.120900D+00  0.343406D+00
   p     1 1.00
  0.382700D+00  0.100000D+01
   p     1 1.00
  0.120900D+00  0.100000D+01
   d     1 1.00
  0.109700D+01  0.100000D+01
   d     1 1.00
  0.318000D+00  0.100000D+01
   f     1 1.00
  0.761000D+00  0.100000D+01
  
  3  0
   s    10 1.00
  0.823600D+04  0.531000D-03
  0.123500D+04  0.410800D-02
  0.280800D+03  0.210870D-01
  0.792700D+02  0.818530D-01
  0.255900D+02  0.234817D+00
  0.899700D+01  0.434401D+00
  0.331900D+01  0.346129D+00
  0.905900D+00  0.393780D-01
  0.364300D+00 -0.898300D-02
  0.128500D+00  0.238500D-02
   s    10 1.00
  0.823600D+04 -0.113000D-03
  0.123500D+04 -0.878000D-03
  0.280800D+03 -0.454000D-02
  0.792700D+02 -0.181330D-01
  0.255900D+02 -0.557600D-01
  0.899700D+01 -0.126895D+00
  0.331900D+01 -0.170352D+00
  0.905900D+00  0.140382D+00
  0.364300D+00  0.598684D+00
  0.128500D+00  0.395389D+00
   s     1 1.00
  0.905900D+00  0.100000D+01
   s     1 1.00
  0.364300D+00  0.100000D+01
   p     5 1.00
  0.187100D+02  0.140310D-01
  0.413300D+01  0.868660D-01
  0.120000D+01  0.290216D+00
  0.382700D+00  0.501008D+00
  0.120900D+00  0.343406D+00
   p     1 1.00
  0.382700D+00  0.100000D+01
   p     1 1.00
  0.120900D+00  0.100000D+01
   d     1 1.00
  0.109700D+01  0.100000D+01
   d     1 1.00
  0.318000D+00  0.100000D+01
   f     1 1.00
  0.761000D+00  0.100000D+01
  
  4  0
   s    10 1.00
  0.823600D+04  0.531000D-03
  0.123500D+04  0.410800D-02
  0.280800D+03  0.210870D-01
  0.792700D+02  0.818530D-01
  0.255900D+02  0.234817D+00
  0.899700D+01  0.434401D+00
  0.331900D+01  0.346129D+00
  0.905900D+00  0.393780D-01
  0.364300D+00 -0.898300D-02
  0.128500D+00  0.238500D-02
   s    10 1.00
  0.823600D+04 -0.113000D-03
  0.123500D+04 -0.878000D-03
  0.280800D+03 -0.454000D-02
  0.792700D+02 -0.181330D-01
  0.255900D+02 -0.557600D-01
  0.899700D+01 -0.126895D+00
  0.331900D+01 -0.170352D+00
  0.905900D+00  0.140382D+00
  0.364300D+00  0.598684D+00
  0.128500D+00  0.395389D+00
   s     1 1.00
  0.905900D+00  0.100000D+01
   s     1 1.00
  0.364300D+00  0.100000D+01
   p     5 1.00
  0.187100D+02  0.140310D-01
  0.413300D+01  0.868660D-01
  0.120000D+01  0.290216D+00
  0.382700D+00  0.501008D+00
  0.120900D+00  0.343406D+00
   p     1 1.00
  0.382700D+00  0.100000D+01
   p     1 1.00
  0.120900D+00  0.100000D+01
   d     1 1.00
  0.109700D+01  0.100000D+01
   d     1 1.00
  0.318000D+00  0.100000D+01
   f     1 1.00
  0.761000D+00  0.100000D+01
  
  5  0
   s    10 1.00
  0.823600D+04  0.531000D-03
  0.123500D+04  0.410800D-02
  0.280800D+03  0.210870D-01
  0.792700D+02  0.818530D-01
  0.255900D+02  0.234817D+00
  0.899700D+01  0.434401D+00
  0.331900D+01  0.346129D+00
  0.905900D+00  0.393780D-01
  0.364300D+00 -0.898300D-02
  0.128500D+00  0.238500D-02
   s    10 1.00
  0.823600D+04 -0.113000D-03
  0.123500D+04 -0.878000D-03
  0.280800D+03 -0.454000D-02
  0.792700D+02 -0.181330D-01
  0.255900D+02 -0.557600D-01
  0.899700D+01 -0.126895D+00
  0.331900D+01 -0.170352D+00
  0.905900D+00  0.140382D+00
  0.364300D+00  0.598684D+00
  0.128500D+00  0.395389D+00
   s     1 1.00
  0.905900D+00  0.100000D+01
   s     1 1.00
  0.364300D+00  0.100000D+01
   p     5 1.00
  0.187100D+02  0.140310D-01
  0.413300D+01  0.868660D-01
  0.120000D+01  0.290216D+00
  0.382700D+00  0.501008D+00
  0.120900D+00  0.343406D+00
   p     1 1.00
  0.382700D+00  0.100000D+01
   p     1 1.00
  0.120900D+00  0.100000D+01
   d     1 1.00
  0.109700D+01  0.100000D+01
   d     1 1.00
  0.318000D+00  0.100000D+01
   f     1 1.00
  0.761000D+00  0.100000D+01
  
  6  0
   s    10 1.00
  0.823600D+04  0.531000D-03
  0.123500D+04  0.410800D-02
  0.280800D+03  0.210870D-01
  0.792700D+02  0.818530D-01
  0.255900D+02  0.234817D+00
  0.899700D+01  0.434401D+00
  0.331900D+01  0.346129D+00
  0.905900D+00  0.393780D-01
  0.364300D+00 -0.898300D-02
  0.128500D+00  0.238500D-02
   s    10 1.00
  0.823600D+04 -0.113000D-03
  0.123500D+04 -0.878000D-03
  0.280800D+03 -0.454000D-02
  0.792700D+02 -0.181330D-01
  0.255900D+02 -0.557600D-01
  0.899700D+01 -0.126895D+00
  0.331900D+01 -0.170352D+00
  0.905900D+00  0.140382D+00
  0.364300D+00  0.598684D+00
  0.128500D+00  0.395389D+00
   s     1 1.00
  0.905900D+00  0.100000D+01
   s     1 1.00
  0.364300D+00  0.100000D+01
   p     5 1.00
  0.187100D+02  0.140310D-01
  0.413300D+01  0.868660D-01
  0.120000D+01  0.290216D+00
  0.382700D+00  0.501008D+00
  0.120900D+00  0.343406D+00
   p     1 1.00
  0.382700D+00  0.100000D+01
   p     1 1.00
  0.120900D+00  0.100000D+01
   d     1 1.00
  0.109700D+01  0.100000D+01
   d     1 1.00
  0.318000D+00  0.100000D+01
   f     1 1.00
  0.761000D+00  0.100000D+01
  
  7  0
   s    10 1.00
  0.823600D+04  0.531000D-03
  0.123500D+04  0.410800D-02
  0.280800D+03  0.210870D-01
  0.792700D+02  0.818530D-01
  0.255900D+02  0.234817D+00
  0.899700D+01  0.434401D+00
  0.331900D+01  0.346129D+00
  0.905900D+00  0.393780D-01
  0.364300D+00 -0.898300D-02
  0.128500D+00  0.238500D-02
   s    10 1.00
  0.823600D+04 -0.113000D-03
  0.123500D+04 -0.878000D-03
  0.280800D+03 -0.454000D-02
  0.792700D+02 -0.181330D-01
  0.255900D+02 -0.557600D-01
  0.899700D+01 -0.126895D+00
  0.331900D+01 -0.170352D+00
  0.905900D+00  0.140382D+00
  0.364300D+00  0.598684D+00
  0.128500D+00  0.395389D+00
   s     1 1.00
  0.905900D+00  0.100000D+01
   s     1 1.00
  0.364300D+00  0.100000D+01
   p     5 1.00
  0.187100D+02  0.140310D-01
  0.413300D+01  0.868660D-01
  0.120000D+01  0.290216D+00
  0.382700D+00  0.501008D+00
  0.120900D+00  0.343406D+00
   p     1 1.00
  0.382700D+00  0.100000D+01
   p     1 1.00
  0.120900D+00  0.100000D+01
   d     1 1.00
  0.109700D+01  0.100000D+01
   d     1 1.00
  0.318000D+00  0.100000D+01
   f     1 1.00
  0.761000D+00  0.100000D+01
  
  8  0
   s     4 1.00
  0.130100D+02  0.196850D-01
  0.196200D+01  0.137977D+00
  0.444600D+00  0.478148D+00
  0.122000D+00  0.501240D+00
   s     1 1.00
  0.122000D+00  0.100000D+01
   p     1 1.00
  0.727000D+00  0.100000D+01
  
  9  0
   s     4 1.00
  0.130100D+02  0.196850D-01
  0.196200D+01  0.137977D+00
  0.444600D+00  0.478148D+00
  0.122000D+00  0.501240D+00
   s     1 1.00
  0.122000D+00  0.100000D+01
   p     1 1.00
  0.727000D+00  0.100000D+01
  
 10  0
   s     4 1.00
  0.130100D+02  0.196850D-01
  0.196200D+01  0.137977D+00
  0.444600D+00  0.478148D+00
  0.122000D+00  0.501240D+00
   s     1 1.00
  0.122000D+00  0.100000D+01
   p     1 1.00
  0.727000D+00  0.100000D+01
  
 11  0
   s     4 1.00
  0.130100D+02  0.196850D-01
  0.196200D+01  0.137977D+00
  0.444600D+00  0.478148D+00
  0.122000D+00  0.501240D+00
   s     1 1.00
  0.122000D+00  0.100000D+01
   p     1 1.00
  0.727000D+00  0.100000D+01
  
 12  0
   s     4 1.00
  0.130100D+02  0.196850D-01
  0.196200D+01  0.137977D+00
  0.444600D+00  0.478148D+00
  0.122000D+00  0.501240D+00
   s     1 1.00
  0.122000D+00  0.100000D+01
   p     1 1.00
  0.727000D+00  0.100000D+01
  
 13  0
   s     4 1.00
  0.130100D+02  0.196850D-01
  0.196200D+01  0.137977D+00
  0.444600D+00  0.478148D+00
  0.122000D+00  0.501240D+00
   s     1 1.00
  0.122000D+00  0.100000D+01
   p     1 1.00
  0.727000D+00  0.100000D+01
  
 14  0
   s     4 1.00
  0.130100D+02  0.196850D-01
  0.196200D+01  0.137977D+00
  0.444600D+00  0.478148D+00
  0.122000D+00  0.501240D+00
   s     1 1.00
  0.122000D+00  0.100000D+01
   p     1 1.00
  0.727000D+00  0.100000D+01
  
[MO]
 Sym= __1_a__
 Ene=  0.000000000000000E+000
 Spin= Alpha
 Occup=    2.00000000000000     
                     1  4.039175685773540E-005
                     2  0.998699504456151     
                     3  1.408890607622590E-003
                     4  1.342950923943720E-003
                     5  4.688559653253250E-003
                     6  3.290333273032820E-003
                     7  6.210079750621460E-003
                     8 -1.170664062063150E-011
                     9 -7.745470706332950E-004
                    10 -4.986948307915040E-004
                    11 -2.692729715916040E-012
                    12 -2.246791267755650E-003
                    13 -1.883456404402860E-003
                    14  1.204075431390300E-011
                    15 -6.098979593428328E-005
                    16 -2.557807484816850E-012
                    17  3.370705080896440E-012
                    18 -2.415398998977080E-004
                    19 -2.080975135388090E-005
                    20  1.808551984020688E-004
                    21 -8.935675949950810E-013
                    22 -6.226506201792640E-013
                    23 -2.055536620570400E-004
                    24  4.238249716649580E-004
                    25 -3.280531424784537E-013
                    26 -1.050912437975186E-006
                    27 -4.927654094582031E-005
                    28 -1.935726759244024E-013
                    29 -1.651660656193220E-012
                    30  2.508832489312224E-005
                    31 -1.040220245785138E-004
                    32 -2.876222124377110E-004
                    33  1.267253262874290E-003
                    34  2.401260530706640E-004
                    35 -2.577303905834560E-004
                    36 -1.633020452632920E-004
                    37 -4.276064620649090E-003
                    38  5.102277005443260E-012
                    39  5.435836978008041E-004
                    40  4.441584466232680E-005
                    41 -5.507897504798610E-012
                    42 -2.305788864307910E-003
                    43  5.308651753267660E-003
                    44  5.866166976939900E-012
                    45 -2.503542640275880E-005
                    46 -2.206452614909040E-012
                    47  3.413737608003830E-013
                    48 -2.262045548850340E-004
                    49 -5.896667316798950E-006
                    50 -2.679264332776172E-004
                    51 -8.584898764676661E-012
                    52 -6.035281180150440E-012
                    53 -7.685056518239239E-005
                    54  7.169256727149830E-004
                    55 -1.907102507228988E-012
                    56 -1.564543712146846E-005
                    57 -3.937378282135999E-005
                    58  5.494396749354960E-013
                    59 -9.108943107141179E-013
                    60 -5.337184240157882E-006
                    61 -1.084120219541894E-004
                    62 -5.107446597856480E-004
                    63 -2.233863367978200E-003
                    64 -9.448273884349140E-005
                    65  2.132727369802250E-003
                    66 -6.254487573359210E-004
                    67  4.140350385622950E-004
                    68 -2.405507874952180E-012
                    69  4.464748525517470E-004
                    70  7.458886117114690E-004
                    71 -5.832887182784670E-013
                    72 -1.745034113174510E-003
                    73  7.393000760294050E-004
                    74 -9.104206227750410E-012
                    75 -4.201888595053817E-005
                    76  5.570618907520110E-012
                    77 -6.326773553117360E-013
                    78 -7.684810103633240E-005
                    79 -2.917570198454190E-005
                    80 -1.550138769636128E-004
                    81 -7.346151021152280E-012
                    82 -1.009067559220540E-012
                    83  5.950703216311900E-005
                    84  3.754075633173320E-005
                    85  8.460245234588159E-013
                    86  5.618043259489180E-006
                    87 -4.410390144500177E-005
                    88 -5.123254291591660E-013
                    89  1.601700228347440E-012
                    90 -1.347000675455789E-005
                    91 -1.534802460431621E-004
                    92 -1.194927475439110E-004
                    93 -8.723513036344240E-004
                    94  1.989591612710480E-004
                    95 -2.814175375066920E-004
                    96  4.840740240605750E-004
                    97  5.445911257485520E-004
                    98  4.275602427852210E-013
                    99  3.927171787151370E-004
                   100  2.468397378044000E-004
                   101 -1.358147619018090E-013
                   102  5.284627710655119E-004
                   103 -1.422372040117880E-003
                   104  3.258880582831140E-013
                   105 -7.167520652667666E-006
                   106  1.823567540797130E-012
                   107  3.092740557190370E-012
                   108 -5.557307788340860E-005
                   109 -1.716313599594440E-005
                   110  1.445799866587548E-004
                   111 -2.740049991761570E-012
                   112 -6.894058085212160E-012
                   113 -1.298860752236786E-004
                   114 -1.479525127612650E-005
                   115 -7.733137606737083E-014
                   116 -2.568705389695522E-005
                   117 -3.269366439258571E-005
                   118  3.168471596795560E-012
                   119 -8.487501422183170E-013
                   120  1.695828382593220E-005
                   121 -2.658594922013302E-005
                   122 -2.789398619614150E-004
                   123 -6.161358863450080E-004
                   124  1.695608455918660E-004
                   125  4.247115421619700E-004
                   126 -1.893198263252200E-005
                   127 -4.884229736189660E-004
                   128  6.617099961955570E-013
                   129  2.238567703559930E-004
                   130  5.958816243461820E-004
                   131  5.045060784746770E-013
                   132  3.397773834113200E-004
                   133  2.010865085262970E-003
                   134  1.020812933355250E-011
                   135  9.752599188971600E-006
                   136  1.859364668905710E-013
                   137 -1.868413759978170E-013
                   138  4.397956610831820E-005
                   139 -5.988135796007690E-007
                   140  2.073039697238395E-004
                   141  3.120132202465020E-012
                   142 -1.697940055083840E-012
                   143  3.495527855964640E-004
                   144  2.393896689991320E-004
                   145 -3.525279084588916E-013
                   146 -9.015968763336264E-006
                   147 -5.984241925035133E-005
                   148 -1.022528169563354E-012
                   149  1.386669987206990E-012
                   150 -1.877641815651364E-005
                   151 -4.719288724851787E-005
                   152 -1.859342728631770E-004
                   153 -3.410467656543400E-004
                   154  3.350528452234660E-005
                   155  4.279530058926740E-004
                   156 -2.511929567990460E-005
                   157 -4.031781271654650E-004
                   158 -3.095265054471160E-012
                   159  6.964470121391960E-006
                   160  2.990018084829160E-005
                   161  9.064659462425820E-012
                   162  6.975392626464969E-004
                   163 -2.940760624093530E-004
                   164 -3.417467383850230E-012
                   165 -3.266395289335059E-006
                   166  1.637943237079810E-012
                   167  4.037524508676210E-012
                   168 -6.183704696106800E-006
                   169  6.562798829701530E-006
                   170  5.404537921072901E-005
                   171  2.110655008918630E-012
                   172 -6.376736231027660E-012
                   173  1.211655688522304E-006
                   174 -1.899731072039020E-005
                   175  3.026043545826662E-012
                   176  5.102791536383789E-006
                   177 -7.341407317465810E-006
                   178 -2.824632776245240E-012
                   179  2.632143973867790E-012
                   180 -2.517478311514483E-005
                   181 -6.996205071254846E-006
                   182 -1.704644212892740E-004
                   183 -4.887294264828010E-004
                   184  5.337442172944350E-005
                   185  2.506275819619440E-004
                   186 -3.840537687340950E-005
                   187 -5.272681273186400E-005
                   188 -4.113126063852090E-012
                   189  2.014904345508230E-004
                   190  6.259787109181010E-005
                   191  6.568045226948530E-013
                   192  1.292568250007130E-003
                   193 -1.525936293534260E-004
                   194  1.368795631245590E-013
                   195 -1.676047595043227E-006
                   196 -2.810824098188560E-012
                   197 -3.375257726126560E-012
                   198 -1.355016572848334E-005
                   199  6.922832750477230E-006
                   200  2.852082370257078E-005
                   201  7.170624281498700E-012
                   202  3.898214775819990E-012
                   203 -8.272112698652440E-005
                   204 -1.829371428014650E-004
                   205 -1.532616352900023E-012
                   206 -5.896354647211781E-006
                   207 -6.636126720244614E-006
                   208 -1.580366456370896E-013
                   209 -3.931632917650350E-013
                   210  1.093224693534820E-005
                   211 -1.353918441470908E-006
                   212  2.606585908663460E-005
                   213  6.261226710233130E-005
                   214  1.350948709531440E-004
                   215  1.329869960651660E-004
                   216  6.099260638068090E-013
                   217 -2.318963652592720E-004
                   218 -5.298935011678900E-004
                   219 -2.909028602991860E-004
                   220  1.473539622887010E-004
                   221 -1.194046956283910E-012
                   222 -3.819117268217230E-004
                   223 -6.550838979556760E-004
                   224  4.059689914891770E-006
                   225 -6.683823556059449E-005
                   226 -1.071164559841280E-012
                   227 -1.842067862229690E-004
                   228 -5.220487913196330E-004
                   229 -5.575969904136850E-006
                   230 -1.482215092722160E-005
                   231 -8.054448886755710E-013
                   232 -4.523872520171490E-005
                   233 -5.728413179967960E-004
                   234  7.520878632708640E-006
                   235 -5.747475106884640E-006
                   236  1.079282499173350E-013
                   237 -1.410130930035890E-004
                   238 -3.760113294502320E-004
                   239  7.362145059838100E-006
                   240  2.910695088026190E-006
                   241 -1.786603415840730E-012
                   242  1.427278351656730E-005
                   243 -3.932537342982120E-005
                   244  1.272210861163970E-007
                   245  2.055402990950500E-005
                   246 -3.261532794658910E-015
 Sym= __2_a__
 Ene=  0.000000000000000E+000
 Spin= Alpha
 Occup=    2.00000000000000     
                     1 -5.461633457043730E-005
                     2 -3.519923965206050E-004
                     3  2.978438277394000E-003
                     4  1.674623734015120E-004
                     5  1.329242530696600E-003
                     6 -1.487224843767610E-004
                     7  2.907632401126570E-003
                     8 -1.157407643687460E-011
                     9 -3.135359440308960E-005
                    10 -1.228588421479580E-004
                    11  9.883947932491760E-012
                    12  3.464098501316250E-005
                    13 -3.886175171702030E-004
                    14 -8.974734025624509E-012
                    15  3.357786512015870E-005
                    16  2.212803631833070E-012
                    17 -1.073254479552500E-012
                    18 -4.951774762111640E-005
                    19  1.009978352468070E-005
                    20 -1.152365134156430E-004
                    21 -1.908605023936830E-012
                    22 -6.616145362826890E-012
                    23  1.235576069128012E-004
                    24 -4.484268281484190E-006
                    25 -2.854506558257952E-012
                    26 -8.514844687030005E-006
                    27  8.849857965004586E-005
                    28  1.700561444388566E-012
                    29  6.013610584678260E-013
                    30 -5.838017242217850E-006
                    31  1.517154483875075E-004
                    32   1.00101464450652     
                    33  9.290519179336930E-003
                    34  2.740612666891680E-003
                    35 -8.127311805552821E-003
                    36 -1.063879991724900E-004
                    37 -3.647800745074760E-003
                    38 -2.585133650382020E-012
                    39  1.420781996885760E-004
                    40  5.318848972047650E-004
                    41  7.254344580026960E-012
                    42  3.041817538523080E-005
                    43  4.234288269877730E-003
                    44 -1.175220851647990E-012
                    45 -5.712031042162294E-004
                    46  3.201252924585450E-013
                    47 -4.269937282840260E-012
                    48 -2.008481277533800E-004
                    49  4.862302400535180E-007
                    50  5.502700321895971E-004
                    51 -7.565346994629080E-013
                    52 -1.033850023771300E-011
                    53 -8.691186681731260E-004
                    54  4.441223420855160E-005
                    55  1.050839558409634E-012
                    56 -5.634233790886772E-006
                    57  9.239685939383774E-005
                    58 -5.548427583737100E-012
                    59  6.315869664549510E-013
                    60  5.091118823464789E-006
                    61  3.989975564595408E-004
                    62  9.181437231402689E-003
                    63 -2.090133138088450E-003
                    64 -2.955624892411440E-004
                    65  3.068527071064460E-003
                    66 -2.193387173904100E-005
                    67  1.099906134273600E-004
                    68  1.302767937230440E-011
                    69  7.271145820742540E-004
                    70  3.569229491247300E-006
                    71 -1.020189130004600E-011
                    72 -2.047899466084750E-003
                    73  7.698111486692139E-005
                    74 -9.875526070743011E-013
                    75  2.702849471595947E-005
                    76 -2.628422690143560E-012
                    77  1.292626130987920E-012
                    78 -2.509423193057480E-006
                    79  2.715065887477400E-006
                    80 -4.129326250055654E-004
                    81 -8.976473003320910E-013
                    82 -6.269316246649140E-013
                    83 -5.861524324692900E-004
                    84 -3.749533667335600E-004
                    85  3.443745035722059E-012
                    86  3.229898356907904E-005
                    87 -5.860298379874531E-005
                    88 -3.892693089083000E-012
                    89 -3.531237701930740E-012
                    90  5.104584436217134E-005
                    91  1.399671166203122E-004
                    92  9.610067136084040E-003
                    93 -2.060794772635430E-003
                    94 -2.767920574045110E-004
                    95  2.999455964147000E-003
                    96  2.584547383605390E-007
                    97  7.796710631332530E-005
                    98 -1.139953983765570E-011
                    99 -6.530784256555930E-004
                   100  6.228042390068900E-005
                   101  1.438208721634760E-011
                   102  2.041351647169400E-003
                   103  6.997717017577879E-005
                   104 -2.124340484996260E-012
                   105  3.117076438187563E-005
                   106  2.286257433313080E-012
                   107  5.845043229990830E-012
                   108 -5.384220418775340E-006
                   109 -7.473114171297340E-006
                   110 -4.085245408382258E-004
                   111 -5.893673361882710E-012
                   112 -5.882234733131810E-012
                   113 -6.117675166734800E-004
                   114  3.557618025118050E-004
                   115 -3.239870886358182E-012
                   116 -3.297030184846876E-005
                   117 -5.978701329196181E-005
                   118 -2.451163570124400E-013
                   119 -4.761103481282970E-014
                   120 -4.988065264778765E-005
                   121  1.380090391626378E-004
                   122 -1.584227888567010E-004
                   123 -6.761892151151201E-004
                   124  2.265626137628430E-004
                   125 -1.120169601623480E-004
                   126 -1.383710827312620E-006
                   127 -3.389387864697470E-004
                   128 -6.357873806997960E-012
                   129 -6.161829724427240E-005
                   130  5.394556064614910E-004
                   131  1.562838580274910E-012
                   132  3.220464063397000E-004
                   133  7.547435344579980E-004
                   134  1.205146967760600E-011
                   135  1.912310086094070E-005
                   136 -2.785135752774930E-013
                   137 -3.662817261908180E-012
                   138  3.720307009458020E-006
                   139  5.300181963469130E-005
                   140  1.364750445890704E-004
                   141  1.921443424516140E-012
                   142 -1.413192405761080E-012
                   143  2.435040784566880E-004
                   144 -1.845900114864720E-004
                   145 -3.260172842123598E-013
                   146  7.092144799889971E-006
                   147 -3.344220964964601E-005
                   148 -8.875308433800540E-013
                   149 -6.535103108293540E-013
                   150 -4.726905657848978E-005
                   151  2.819335270915982E-005
                   152 -1.476501168151270E-004
                   153 -6.822761277260250E-004
                   154  2.297469843229510E-004
                   155 -1.345712660522310E-004
                   156  2.121258999512130E-006
                   157 -3.321345806934650E-004
                   158  1.972481371188710E-011
                   159  5.078513895602560E-005
                   160  5.625069729274800E-004