[Molden Format]
[Atoms] AU
  N     1    7     0.0000000000    0.0000000000   -4.3813004600        
  C     2    6     0.0000000000    0.0000000000   -1.7855963500        
  C     3    6     0.0000000000   -2.2719783800   -0.4342937800        
  C     4    6     0.0000000000    2.2719783800   -0.4342937800        
  C     5    6     0.0000000000   -2.2622891800    2.1884667600        
  C     6    6     0.0000000000    2.2622891800    2.1884667600        
  C     7    6     0.0000000000    0.0000000000    3.5288214200        
  H     8    1     0.0000000000   -1.6209094600   -5.3464051600        
  H     9    1     0.0000000000    1.6209094600   -5.3464051600        
  H    10    1     0.0000000000   -4.0404809200   -1.4495706800        
  H    11    1     0.0000000000    4.0404809200   -1.4495706800        
  H    12    1     0.0000000000   -4.0384201800    3.1872129000        
  H    13    1     0.0000000000    4.0384201800    3.1872129000        
  H    14    1     0.0000000000    0.0000000000    5.5632925300        
[5D]
[7F]
[GTO]
  1  0
   s    12 1.00
  0.114200D+05  0.172695D-04
  0.171200D+04  0.134411D-03
  0.389300D+03  0.694561D-03
  0.110000D+03  0.278531D-02
  0.355700D+02  0.863457D-02
  0.125400D+02  0.199805D-01
  0.464400D+01  0.262908D-01
  0.129300D+01 -0.243845D-01
  0.511800D+00 -0.924934D-01
  0.178700D+00 -0.339683D+00
  0.246240D-01  0.345111D+00
  0.112530D-01  0.752750D+00
   s    10 1.00
  0.114200D+05  0.523000D-03
  0.171200D+04  0.404500D-02
  0.389300D+03  0.207750D-01
  0.110000D+03  0.807269D-01
  0.355700D+02  0.233074D+00
  0.125400D+02  0.433501D+00
  0.464400D+01  0.347472D+00
  0.129300D+01  0.412620D-01
  0.511800D+00 -0.850799D-02
  0.178700D+00  0.238400D-02
   s    10 1.00
  0.114200D+05 -0.115000D-03
  0.171200D+04 -0.895000D-03
  0.389300D+03 -0.462400D-02
  0.110000D+03 -0.185280D-01
  0.355700D+02 -0.573390D-01
  0.125400D+02 -0.132076D+00
  0.464400D+01 -0.172510D+00
  0.129300D+01  0.151814D+00
  0.511800D+00  0.599944D+00
  0.178700D+00  0.387462D+00
   s     1 1.00
  0.129300D+01  0.100000D+01
   s     1 1.00
  0.178700D+00  0.100000D+01
   p     5 1.00
  0.266300D+02  0.146700D-01
  0.594800D+01  0.917640D-01
  0.174200D+01  0.298683D+00
  0.555000D+00  0.498487D+00
  0.172500D+00  0.337023D+00
   p     1 1.00
  0.174200D+01  0.100000D+01
   p     1 1.00
  0.555000D+00  0.100000D+01
   d     1 1.00
  0.165400D+01  0.100000D+01
   d     1 1.00
  0.469000D+00  0.100000D+01
   f     1 1.00
  0.109300D+01  0.100000D+01
  
  2  0
   s    10 1.00
  0.823600D+04  0.531000D-03
  0.123500D+04  0.410800D-02
  0.280800D+03  0.210870D-01
  0.792700D+02  0.818530D-01
  0.255900D+02  0.234817D+00
  0.899700D+01  0.434401D+00
  0.331900D+01  0.346129D+00
  0.905900D+00  0.393780D-01
  0.364300D+00 -0.898300D-02
  0.128500D+00  0.238500D-02
   s    10 1.00
  0.823600D+04 -0.113000D-03
  0.123500D+04 -0.878000D-03
  0.280800D+03 -0.454000D-02
  0.792700D+02 -0.181330D-01
  0.255900D+02 -0.557600D-01
  0.899700D+01 -0.126895D+00
  0.331900D+01 -0.170352D+00
  0.905900D+00  0.140382D+00
  0.364300D+00  0.598684D+00
  0.128500D+00  0.395389D+00
   s     1 1.00
  0.905900D+00  0.100000D+01
   s     1 1.00
  0.364300D+00  0.100000D+01
   p     5 1.00
  0.187100D+02  0.140310D-01
  0.413300D+01  0.868660D-01
  0.120000D+01  0.290216D+00
  0.382700D+00  0.501008D+00
  0.120900D+00  0.343406D+00
   p     1 1.00
  0.382700D+00  0.100000D+01
   p     1 1.00
  0.120900D+00  0.100000D+01
   d     1 1.00
  0.109700D+01  0.100000D+01
   d     1 1.00
  0.318000D+00  0.100000D+01
   f     1 1.00
  0.761000D+00  0.100000D+01
  
  3  0
   s    10 1.00
  0.823600D+04  0.531000D-03
  0.123500D+04  0.410800D-02
  0.280800D+03  0.210870D-01
  0.792700D+02  0.818530D-01
  0.255900D+02  0.234817D+00
  0.899700D+01  0.434401D+00
  0.331900D+01  0.346129D+00
  0.905900D+00  0.393780D-01
  0.364300D+00 -0.898300D-02
  0.128500D+00  0.238500D-02
   s    10 1.00
  0.823600D+04 -0.113000D-03
  0.123500D+04 -0.878000D-03
  0.280800D+03 -0.454000D-02
  0.792700D+02 -0.181330D-01
  0.255900D+02 -0.557600D-01
  0.899700D+01 -0.126895D+00
  0.331900D+01 -0.170352D+00
  0.905900D+00  0.140382D+00
  0.364300D+00  0.598684D+00
  0.128500D+00  0.395389D+00
   s     1 1.00
  0.905900D+00  0.100000D+01
   s     1 1.00
  0.364300D+00  0.100000D+01
   p     5 1.00
  0.187100D+02  0.140310D-01
  0.413300D+01  0.868660D-01
  0.120000D+01  0.290216D+00
  0.382700D+00  0.501008D+00
  0.120900D+00  0.343406D+00
   p     1 1.00
  0.382700D+00  0.100000D+01
   p     1 1.00
  0.120900D+00  0.100000D+01
   d     1 1.00
  0.109700D+01  0.100000D+01
   d     1 1.00
  0.318000D+00  0.100000D+01
   f     1 1.00
  0.761000D+00  0.100000D+01
  
  4  0
   s    10 1.00
  0.823600D+04  0.531000D-03
  0.123500D+04  0.410800D-02
  0.280800D+03  0.210870D-01
  0.792700D+02  0.818530D-01
  0.255900D+02  0.234817D+00
  0.899700D+01  0.434401D+00
  0.331900D+01  0.346129D+00
  0.905900D+00  0.393780D-01
  0.364300D+00 -0.898300D-02
  0.128500D+00  0.238500D-02
   s    10 1.00
  0.823600D+04 -0.113000D-03
  0.123500D+04 -0.878000D-03
  0.280800D+03 -0.454000D-02
  0.792700D+02 -0.181330D-01
  0.255900D+02 -0.557600D-01
  0.899700D+01 -0.126895D+00
  0.331900D+01 -0.170352D+00
  0.905900D+00  0.140382D+00
  0.364300D+00  0.598684D+00
  0.128500D+00  0.395389D+00
   s     1 1.00
  0.905900D+00  0.100000D+01
   s     1 1.00
  0.364300D+00  0.100000D+01
   p     5 1.00
  0.187100D+02  0.140310D-01
  0.413300D+01  0.868660D-01
  0.120000D+01  0.290216D+00
  0.382700D+00  0.501008D+00
  0.120900D+00  0.343406D+00
   p     1 1.00
  0.382700D+00  0.100000D+01
   p     1 1.00
  0.120900D+00  0.100000D+01
   d     1 1.00
  0.109700D+01  0.100000D+01
   d     1 1.00
  0.318000D+00  0.100000D+01
   f     1 1.00
  0.761000D+00  0.100000D+01
  
  5  0
   s    10 1.00
  0.823600D+04  0.531000D-03
  0.123500D+04  0.410800D-02
  0.280800D+03  0.210870D-01
  0.792700D+02  0.818530D-01
  0.255900D+02  0.234817D+00
  0.899700D+01  0.434401D+00
  0.331900D+01  0.346129D+00
  0.905900D+00  0.393780D-01
  0.364300D+00 -0.898300D-02
  0.128500D+00  0.238500D-02
   s    10 1.00
  0.823600D+04 -0.113000D-03
  0.123500D+04 -0.878000D-03
  0.280800D+03 -0.454000D-02
  0.792700D+02 -0.181330D-01
  0.255900D+02 -0.557600D-01
  0.899700D+01 -0.126895D+00
  0.331900D+01 -0.170352D+00
  0.905900D+00  0.140382D+00
  0.364300D+00  0.598684D+00
  0.128500D+00  0.395389D+00
   s     1 1.00
  0.905900D+00  0.100000D+01
   s     1 1.00
  0.364300D+00  0.100000D+01
   p     5 1.00
  0.187100D+02  0.140310D-01
  0.413300D+01  0.868660D-01
  0.120000D+01  0.290216D+00
  0.382700D+00  0.501008D+00
  0.120900D+00  0.343406D+00
   p     1 1.00
  0.382700D+00  0.100000D+01
   p     1 1.00
  0.120900D+00  0.100000D+01
   d     1 1.00
  0.109700D+01  0.100000D+01
   d     1 1.00
  0.318000D+00  0.100000D+01
   f     1 1.00
  0.761000D+00  0.100000D+01
  
  6  0
   s    10 1.00
  0.823600D+04  0.531000D-03
  0.123500D+04  0.410800D-02
  0.280800D+03  0.210870D-01
  0.792700D+02  0.818530D-01
  0.255900D+02  0.234817D+00
  0.899700D+01  0.434401D+00
  0.331900D+01  0.346129D+00
  0.905900D+00  0.393780D-01
  0.364300D+00 -0.898300D-02
  0.128500D+00  0.238500D-02
   s    10 1.00
  0.823600D+04 -0.113000D-03
  0.123500D+04 -0.878000D-03
  0.280800D+03 -0.454000D-02
  0.792700D+02 -0.181330D-01
  0.255900D+02 -0.557600D-01
  0.899700D+01 -0.126895D+00
  0.331900D+01 -0.170352D+00
  0.905900D+00  0.140382D+00
  0.364300D+00  0.598684D+00
  0.128500D+00  0.395389D+00
   s     1 1.00
  0.905900D+00  0.100000D+01
   s     1 1.00
  0.364300D+00  0.100000D+01
   p     5 1.00
  0.187100D+02  0.140310D-01
  0.413300D+01  0.868660D-01
  0.120000D+01  0.290216D+00
  0.382700D+00  0.501008D+00
  0.120900D+00  0.343406D+00
   p     1 1.00
  0.382700D+00  0.100000D+01
   p     1 1.00
  0.120900D+00  0.100000D+01
   d     1 1.00
  0.109700D+01  0.100000D+01
   d     1 1.00
  0.318000D+00  0.100000D+01
   f     1 1.00
  0.761000D+00  0.100000D+01
  
  7  0
   s    10 1.00
  0.823600D+04  0.531000D-03
  0.123500D+04  0.410800D-02
  0.280800D+03  0.210870D-01
  0.792700D+02  0.818530D-01
  0.255900D+02  0.234817D+00
  0.899700D+01  0.434401D+00
  0.331900D+01  0.346129D+00
  0.905900D+00  0.393780D-01
  0.364300D+00 -0.898300D-02
  0.128500D+00  0.238500D-02
   s    10 1.00
  0.823600D+04 -0.113000D-03
  0.123500D+04 -0.878000D-03
  0.280800D+03 -0.454000D-02
  0.792700D+02 -0.181330D-01
  0.255900D+02 -0.557600D-01
  0.899700D+01 -0.126895D+00
  0.331900D+01 -0.170352D+00
  0.905900D+00  0.140382D+00
  0.364300D+00  0.598684D+00
  0.128500D+00  0.395389D+00
   s     1 1.00
  0.905900D+00  0.100000D+01
   s     1 1.00
  0.364300D+00  0.100000D+01
   p     5 1.00
  0.187100D+02  0.140310D-01
  0.413300D+01  0.868660D-01
  0.120000D+01  0.290216D+00
  0.382700D+00  0.501008D+00
  0.120900D+00  0.343406D+00
   p     1 1.00
  0.382700D+00  0.100000D+01
   p     1 1.00
  0.120900D+00  0.100000D+01
   d     1 1.00
  0.109700D+01  0.100000D+01
   d     1 1.00
  0.318000D+00  0.100000D+01
   f     1 1.00
  0.761000D+00  0.100000D+01
  
  8  0
   s     4 1.00
  0.130100D+02  0.196850D-01
  0.196200D+01  0.137977D+00
  0.444600D+00  0.478148D+00
  0.122000D+00  0.501240D+00
   s     1 1.00
  0.122000D+00  0.100000D+01
   p     1 1.00
  0.727000D+00  0.100000D+01
  
  9  0
   s     4 1.00
  0.130100D+02  0.196850D-01
  0.196200D+01  0.137977D+00
  0.444600D+00  0.478148D+00
  0.122000D+00  0.501240D+00
   s     1 1.00
  0.122000D+00  0.100000D+01
   p     1 1.00
  0.727000D+00  0.100000D+01
  
 10  0
   s     4 1.00
  0.130100D+02  0.196850D-01
  0.196200D+01  0.137977D+00
  0.444600D+00  0.478148D+00
  0.122000D+00  0.501240D+00
   s     1 1.00
  0.122000D+00  0.100000D+01
   p     1 1.00
  0.727000D+00  0.100000D+01
  
 11  0
   s     4 1.00
  0.130100D+02  0.196850D-01
  0.196200D+01  0.137977D+00
  0.444600D+00  0.478148D+00
  0.122000D+00  0.501240D+00
   s     1 1.00
  0.122000D+00  0.100000D+01
   p     1 1.00
  0.727000D+00  0.100000D+01
  
 12  0
   s     4 1.00
  0.130100D+02  0.196850D-01
  0.196200D+01  0.137977D+00
  0.444600D+00  0.478148D+00
  0.122000D+00  0.501240D+00
   s     1 1.00
  0.122000D+00  0.100000D+01
   p     1 1.00
  0.727000D+00  0.100000D+01
  
 13  0
   s     4 1.00
  0.130100D+02  0.196850D-01
  0.196200D+01  0.137977D+00
  0.444600D+00  0.478148D+00
  0.122000D+00  0.501240D+00
   s     1 1.00
  0.122000D+00  0.100000D+01
   p     1 1.00
  0.727000D+00  0.100000D+01
  
 14  0
   s     4 1.00
  0.130100D+02  0.196850D-01
  0.196200D+01  0.137977D+00
  0.444600D+00  0.478148D+00
  0.122000D+00  0.501240D+00
   s     1 1.00
  0.122000D+00  0.100000D+01
   p     1 1.00
  0.727000D+00  0.100000D+01
  
[MO]
 Sym= __1_A__
 Ene=   1.00000000000000     
 Spin= Alpha
 Occup=    1.00000000000000     
                     1  2.215456586959797E-005
                     2  0.998200511474346     
                     3  6.786788860491270E-004
                     4  2.185047882290477E-003
                     5  3.137882005198421E-003
                     6  2.372020385731621E-012
                     7  5.181712447765301E-009
                     8  3.439966026709473E-003
                     9 -2.756104423038186E-012
                    10  6.119676655454765E-009
                    11 -6.249992663019648E-005
                    12  2.778715482115736E-012
                    13 -4.015896183910631E-008
                    14 -4.476163965422616E-004
                    15  1.402382631290311E-004
                    16 -1.912489702599856E-012
                    17 -3.369940877463358E-010
                    18 -7.541709742006403E-005
                    19 -5.913580784824054E-013
                    20 -1.206329234067356E-004
                    21  2.268878236136153E-012
                    22  4.625504704115293E-009
                    23  3.858199548568428E-004
                    24 -2.050388399548124E-012
                    25 -1.086686519481095E-004
                    26  1.673372319109162E-013
                    27 -3.787341705212001E-010
                    28  8.249168033645798E-005
                    29 -4.885209743595695E-013
                    30  8.347090178957027E-013
                    31  7.310607779451546E-010
                    32 -1.547977555152498E-004
                    33  1.440834987479072E-003
                    34  2.252116767954827E-005
                    35  3.763447782450233E-005
                    36  1.291590536893541E-011
                    37  1.662055515573490E-008
                    38 -3.532228139015884E-003
                    39 -1.769519614477069E-011
                    40 -6.799038263673777E-008
                    41 -5.187541868875562E-004
                    42 -1.855130182180649E-012
                    43 -6.317705656927275E-008
                    44  3.486370768830274E-003
                    45  2.303554216935970E-004
                    46 -2.962707230696465E-012
                    47  3.278312275832479E-009
                    48  8.711270112750160E-005
                    49  5.967807239981463E-013
                    50  3.381083515832212E-004
                    51  9.440232151643828E-013
                    52 -8.118310890726273E-008
                    53 -1.847874528962801E-004
                    54 -5.890185189191068E-012
                    55 -8.022321516810224E-005
                    56 -1.129701651684557E-013
                    57  8.709285752246668E-011
                    58  7.139717795064792E-005
                    59  6.191657035990497E-013
                    60 -4.779089041284674E-012
                    61  3.182734379078029E-009
                    62 -1.859602934250274E-004
                    63 -1.037356709986331E-003
                    64 -5.315626472769360E-006
                    65  6.714452703539451E-004
                    66 -4.042955201414495E-012
                    67 -4.133036712902068E-004
                    68  3.208910418533103E-004
                    69  6.002461867011323E-012
                    70  6.161630396238175E-005
                    71  4.278437876872327E-004
                    72 -4.312970235585437E-012
                    73 -5.465205953850960E-004
                    74 -2.942165338424498E-004
                    75  5.531618330689892E-005
                    76 -1.838579005839736E-012
                    77 -1.066108658318827E-005
                    78  7.650949389167897E-006
                    79  5.296062040404175E-013
                    80  8.459651371907983E-006
                    81  5.899041670152633E-012
                    82 -3.284352189562982E-005
                    83 -3.993556551044608E-005
                    84 -7.358922220356884E-013
                    85 -9.773170022014088E-005
                    86  2.066891526038988E-012
                    87 -3.010098589984940E-005
                    88  3.048020026902790E-005
                    89 -3.533458151968404E-012
                    90 -1.198237353749729E-012
                    91  6.530239739895521E-006
                    92 -1.859534715450248E-004
                    93 -1.037322053213029E-003
                    94 -5.240270915968891E-006
                    95  6.712198695946554E-004
                    96 -6.158163384288605E-012
                    97  4.133232253949770E-004
                    98  3.209567904897947E-004
                    99  2.028831232971748E-012
                   100 -6.172486756538076E-005
                   101  4.274807821943018E-004
                   102  3.824136824144505E-012
                   103  5.462534256333229E-004
                   104 -2.943020366901663E-004
                   105  5.530132745865955E-005
                   106  1.036063972651658E-012
                   107  1.066869973016598E-005
                   108  7.652028741025983E-006
                   109  8.253305387124466E-014
                   110  8.231532334542129E-006
                   111 -4.522451812290406E-012
                   112  3.281547666069226E-005
                   113 -3.999837704293228E-005
                   114 -6.663886018268013E-012
                   115 -9.769941297681826E-005
                   116  1.335061771680808E-012
                   117  3.009027082206740E-005
                   118  3.048189938934044E-005
                   119  2.206099360918383E-012
                   120 -7.502222970961001E-013
                   121 -6.529027967120629E-006
                   122 -1.084585595059067E-004
                   123 -1.467122905917580E-004
                   124  8.907425515533286E-005
                   125  1.211237495549093E-004
                   126  1.497740009465356E-012
                   127 -1.089156069508500E-006
                   128 -3.503711968285973E-004
                   129 -3.782545333053301E-012
                   130  1.005607828169691E-004
                   131  2.870013902433426E-004
                   132  3.412239450085947E-012
                   133 -1.909621997101523E-004
                   134  5.385344928182322E-004
                   135 -2.307777786029346E-005
                   136  4.703669423701936E-014
                   137 -5.457882738986102E-006
                   138 -4.577758349005428E-006
                   139 -3.189652518980013E-012
                   140 -1.776441378790673E-004
                   141  5.676057818988676E-012
                   142  9.205429887975693E-005
                   143  2.893973881839530E-005
                   144  1.335708333444811E-012
                   145 -4.463876054320270E-005
                   146 -2.724884246131837E-012
                   147  9.576398017360653E-006
                   148 -6.966617797909058E-006
                   149 -3.124120518747909E-012
                   150 -1.291653416523363E-012
                   151 -3.515320190396822E-006
                   152 -1.086744349541199E-004
                   153 -1.474690414785139E-004
                   154  8.890454552580197E-005
                   155  1.222925750238645E-004
                   156  5.815643888350190E-012
                   157  1.047060661361908E-006
                   158 -3.503207016435377E-004
                   159 -1.024179990451144E-012
                   160 -1.004791124824013E-004
                   161  2.866959933761051E-004
                   162 -3.512949792131449E-012
                   163  1.912669365129452E-004
                   164  5.384352383671993E-004
                   165 -2.305527570943103E-005
                   166 -1.801941552449913E-012
                   167  5.464592944051633E-006
                   168 -4.590907623219252E-006
                   169  2.641116781802347E-012
                   170 -1.775174458491050E-004
                   171 -4.166239222425461E-012
                   172 -9.207771458944252E-005
                   173  2.896747517687258E-005
                   174  6.587085530562225E-012
                   175 -4.459978703580487E-005
                   176 -8.745353243984231E-013
                   177 -9.561290763170509E-006
                   178 -6.979261445396476E-006
                   179  3.091300968739020E-012
                   180 -2.539107697540153E-012
                   181  3.508485691409776E-006
                   182 -6.917528659578465E-005
                   183 -1.914917870470793E-004
                   184  2.503530496368625E-005
                   185  7.503192791432687E-005
                   186 -2.570854047727284E-011
                   187 -1.012318085030505E-008
                   188 -3.268905746293060E-005
                   189  1.683635363520258E-011
                   190  1.428140264769397E-009
                   191  4.459772645664605E-005
                   192  3.783914352858854E-012
                   193  9.165360644028830E-008
                   194 -6.615139717161515E-005
                   195  1.208338779802141E-005
                   196 -1.095905769476151E-012
                   197  2.205724926639252E-009
                   198  5.049294706686084E-006
                   199 -5.361840356229470E-013
                   200  4.499216206896854E-005
                   201 -2.527944118715193E-012
                   202  6.854967786937235E-009
                   203  5.217096131554412E-005
                   204  8.477213445634446E-012
                   205 -2.814133666743717E-006
                   206 -1.439947113352670E-012
                   207 -4.413992378920039E-009
                   208 -4.617337861473854E-006
                   209 -1.881053738308166E-012
                   210  3.444399911690064E-012
                   211 -2.540729717690724E-010
                   212  1.131088886474097E-003
                   213 -1.125079987435176E-003
                   214 -2.099747990955555E-012
                   215  1.970037000276398E-004
                   216  1.742728745078921E-004
                   217  1.131143210935156E-003
                   218 -1.125102569409410E-003
                   219  2.463502825887680E-012
                   220 -1.970259211821531E-004
                   221  1.742822919540727E-004
                   222 -2.617533495394048E-004
                   223 -2.581579524649601E-004
                   224  1.747788912832262E-012
                   225  1.836234375043186E-006
                   226 -3.643873680979338E-005
                   227 -2.617956381328197E-004
                   228 -2.580300242612629E-004
                   229  1.893054641304359E-012
                   230 -1.846035949487597E-006
                   231 -3.645366393671657E-005
                   232 -5.012612126594636E-005
                   233 -3.418838205632465E-004
                   234 -1.216939732000733E-012
                   235  6.398842370964109E-006
                   236 -3.432101999435297E-006
                   237 -5.020293799846475E-005
                   238 -3.419057052173247E-004
                   239 -2.384949100249932E-012
                   240 -6.361700955710159E-006
                   241 -3.415875267872875E-006
                   242  2.101312930027411E-005
                   243 -4.019107399915228E-005
                   244  2.122872342377339E-013
                   245 -5.749647216464794E-010
                   246  1.193053788942370E-005
 Sym= __2_A__
 Ene=   2.00000000000000     
 Spin= Alpha
 Occup=    1.00000000000000     
                     1 -4.642876442271681E-005
                     2 -1.254128527550006E-004
                     3  2.153549359803541E-003
                     4  1.328381752346605E-005
                     5  1.223400937762418E-003
                     6 -1.216316684974025E-011
                     7  7.706245997185995E-009
                     8  2.684840199241517E-003
                     9 -4.517898357259342E-012
                    10 -4.967527616220257E-009
                    11 -1.020513499935084E-004
                    12  7.510983678081616E-012
                    13  5.151916378791488E-009
                    14 -2.621395754901471E-004
                    15  6.664583934381129E-005
                    16  4.642472653652443E-013
                    17  2.628622977335263E-010
                    18  6.263530928420384E-005
                    19 -2.038314172102625E-013
                    20 -2.309779030923134E-004
                    21 -1.885964992249163E-012
                    22  7.839719138916544E-010
                    23 -3.314871654936790E-004
                    24  4.011083652252046E-012
                    25  2.042414217112526E-004
                    26 -5.142297615490666E-012
                    27 -2.445070226182835E-009
                    28 -1.355888673523726E-005
                    29  4.053462811653712E-013
                    30 -3.200895513807725E-012
                    31  6.706567985230348E-010
                    32   1.00098923743962     
                    33  9.112260752179158E-003
                    34  2.787288469941141E-003
                    35 -7.882974580944930E-003
                    36 -1.320217174178336E-011
                    37 -6.700668254081981E-009
                    38 -3.967252335911582E-003
                    39  1.804953232502686E-011
                    40  1.233293464101327E-009
                    41  1.576315382744495E-003
                    42  1.990309691131064E-012
                    43 -8.038232122392218E-008
                    44  4.159423275921627E-003
                    45  3.475243803779625E-004
                    46  5.092554830617055E-012
                    47 -3.478707052085582E-009
                    48 -4.785432508151040E-004
                    49  2.560825575738123E-012
                    50  4.807024521851566E-004
                    51 -2.630775228825948E-012
                    52  1.589323074188053E-008
                    53  9.720565766043658E-004
                    54 -4.344120937289092E-012
                    55  3.330639603998983E-004
                    56 -1.476729883410907E-012
                    57  9.751410905655255E-010
                    58 -2.428325404169006E-004
                    59  4.449754161871696E-013
                    60  3.080442380439864E-012
                    61  1.660782564962541E-009
                    62  8.856829489824605E-003
                    63 -2.084195746589352E-003
                    64 -2.832412567660080E-004
                    65  3.143361377280496E-003
                    66  3.832367955805502E-012
                    67  1.776546848561218E-004
                    68 -9.735434888819090E-005
                    69 -1.813304678593828E-011
                    70  4.716726335292884E-004
                    71  2.956242341690753E-005
                    72 -1.354227182157921E-012
                    73 -1.962305507500922E-003
                    74  1.999643369250027E-004
                    75 -2.121874187881003E-005
                    76 -1.586473286133843E-012
                    77  3.377850104300412E-005
                    78  4.068252445776626E-005
                    79 -2.509087298132039E-012
                    80  8.855094433754926E-004
                    81  2.806719062487011E-012
                    82 -4.353362188275138E-004
                    83  1.647170019925262E-005
                    84  2.292532493140059E-012
                    85  5.881180477998919E-005
                    86 -1.265622022608658E-012
                    87  3.214159130559771E-005
                    88 -1.128592226831161E-004
                    89  2.026988025716870E-012
                    90 -7.505440548731607E-012
                    91  5.240244262825998E-005
                    92  8.856803605556964E-003
                    93 -2.084287354527444E-003
                    94 -2.832914166902276E-004
                    95  3.143575630578274E-003
                    96  3.330849833376720E-012
                    97 -1.776562315342098E-004
                    98 -9.738278433348763E-005
                    99 -9.358433373964997E-012
                   100 -4.716636307405209E-004
                   101  2.970981377079987E-005
                   102 -3.801024278819774E-012
                   103  1.962455485086377E-003
                   104  1.997872443385022E-004
                   105 -2.120450171381782E-005
                   106  4.014103125776535E-012
                   107 -3.378538442178322E-005
                   108  4.068087983012436E-005
                   109 -6.033786789276084E-013
                   110  8.855922039315187E-004
                   111 -7.530681395917075E-012
                   112  4.353938809418699E-004
                   113  1.649422109141048E-005
                   114 -5.122866057508106E-012
                   115  5.879455078256817E-005
                   116 -1.530287960305236E-012
                   117 -3.213998143989636E-005
                   118 -1.128563297489754E-004
                   119 -1.742953489441748E-012
                   120 -3.650058699803409E-012
                   121 -5.240126389758191E-005
                   122 -2.274288929788856E-004
                   123 -7.693059889283437E-004
                   124  2.478885715741846E-004
                   125 -2.421186607297998E-004
                   126  9.100197832263888E-012
                   127 -3.693674358484073E-005
                   128 -2.127609275909425E-004
                   129  4.300150875323094E-012
                   130  2.779111909511593E-005
                   131  5.847599286161548E-004
                   132  6.875630351399992E-012
                   133  3.512820621422714E-004
                   134  6.447156869718451E-004
                   135 -2.410799728520918E-005
                   136  4.090048950144232E-012
                   137  4.414109784389544E-005
                   138  1.626015729120196E-005
                   139  4.549486642248079E-013
                   140 -3.254373840962394E-004
                   141 -2.938177193024547E-012
                   142 -2.472702031207875E-004
                   143 -4.112392991068624E-005
                   144  5.647187716747452E-012
                   145 -5.548238998857812E-006
                   146  8.248962931668842E-014
                   147 -2.782943979351781E-005
                   148 -2.918544745080330E-005
                   149  6.592750161476865E-012
                   150  2.859222769844032E-012
                   151 -5.445031129087442E-006
                   152 -2.271266769312652E-004
                   153 -7.682980587849450E-004
                   154  2.479831609139339E-004
                   155 -2.432666363628059E-004
                   156  1.591836841699308E-011
                   157  3.692381131619187E-005
                   158 -2.127642949427528E-004
                   159 -8.461176943325452E-012
                   160 -2.771712200557032E-005