[Molden Format]
[Atoms] AU
  N     1    7     0.0000000000   -4.2907334100    0.0000000000        
  C     2    6     0.0000000000   -1.7772236300    0.0000000000        
  C     3    6    -2.3389203600   -0.4111016300    0.0000000000        
  C     4    6     2.3389203600   -0.4111016300    0.0000000000        
  C     5    6    -2.2998668500    2.1639215300    0.0000000000        
  C     6    6     2.2998668500    2.1639215300    0.0000000000        
  C     7    6     0.0000000000    3.4755251800    0.0000000000        
  H     8    1    -2.2516208400   -5.6797945000    0.0000000000        
  H     9    1     1.7691306600   -5.3821385500    0.0000000000        
  H    10    1    -4.0745407300   -1.4447408500    0.0000000000        
  H    11    1     4.0745407300   -1.4447408500    0.0000000000        
  H    12    1    -4.0420632100    3.1963889500    0.0000000000        
  H    13    1     4.0420632100    3.1963889500    0.0000000000        
  H    14    1     0.0000000000    5.5020335600    0.0000000000        
[5D]
[7F]
[GTO]
  1  0
   s    12 1.00
  0.114200D+05  0.172695D-04
  0.171200D+04  0.134411D-03
  0.389300D+03  0.694561D-03
  0.110000D+03  0.278531D-02
  0.355700D+02  0.863457D-02
  0.125400D+02  0.199805D-01
  0.464400D+01  0.262908D-01
  0.129300D+01 -0.243845D-01
  0.511800D+00 -0.924934D-01
  0.178700D+00 -0.339683D+00
  0.246240D-01  0.345111D+00
  0.112530D-01  0.752750D+00
   s    10 1.00
  0.114200D+05  0.523000D-03
  0.171200D+04  0.404500D-02
  0.389300D+03  0.207750D-01
  0.110000D+03  0.807269D-01
  0.355700D+02  0.233074D+00
  0.125400D+02  0.433501D+00
  0.464400D+01  0.347472D+00
  0.129300D+01  0.412620D-01
  0.511800D+00 -0.850799D-02
  0.178700D+00  0.238400D-02
   s    10 1.00
  0.114200D+05 -0.115000D-03
  0.171200D+04 -0.895000D-03
  0.389300D+03 -0.462400D-02
  0.110000D+03 -0.185280D-01
  0.355700D+02 -0.573390D-01
  0.125400D+02 -0.132076D+00
  0.464400D+01 -0.172510D+00
  0.129300D+01  0.151814D+00
  0.511800D+00  0.599944D+00
  0.178700D+00  0.387462D+00
   s     1 1.00
  0.129300D+01  0.100000D+01
   s     1 1.00
  0.178700D+00  0.100000D+01
   p     5 1.00
  0.266300D+02  0.146700D-01
  0.594800D+01  0.917640D-01
  0.174200D+01  0.298683D+00
  0.555000D+00  0.498487D+00
  0.172500D+00  0.337023D+00
   p     1 1.00
  0.174200D+01  0.100000D+01
   p     1 1.00
  0.555000D+00  0.100000D+01
   d     1 1.00
  0.165400D+01  0.100000D+01
   d     1 1.00
  0.469000D+00  0.100000D+01
   f     1 1.00
  0.109300D+01  0.100000D+01
  
  2  0
   s    10 1.00
  0.823600D+04  0.531000D-03
  0.123500D+04  0.410800D-02
  0.280800D+03  0.210870D-01
  0.792700D+02  0.818530D-01
  0.255900D+02  0.234817D+00
  0.899700D+01  0.434401D+00
  0.331900D+01  0.346129D+00
  0.905900D+00  0.393780D-01
  0.364300D+00 -0.898300D-02
  0.128500D+00  0.238500D-02
   s    10 1.00
  0.823600D+04 -0.113000D-03
  0.123500D+04 -0.878000D-03
  0.280800D+03 -0.454000D-02
  0.792700D+02 -0.181330D-01
  0.255900D+02 -0.557600D-01
  0.899700D+01 -0.126895D+00
  0.331900D+01 -0.170352D+00
  0.905900D+00  0.140382D+00
  0.364300D+00  0.598684D+00
  0.128500D+00  0.395389D+00
   s     1 1.00
  0.905900D+00  0.100000D+01
   s     1 1.00
  0.364300D+00  0.100000D+01
   p     5 1.00
  0.187100D+02  0.140310D-01
  0.413300D+01  0.868660D-01
  0.120000D+01  0.290216D+00
  0.382700D+00  0.501008D+00
  0.120900D+00  0.343406D+00
   p     1 1.00
  0.382700D+00  0.100000D+01
   p     1 1.00
  0.120900D+00  0.100000D+01
   d     1 1.00
  0.109700D+01  0.100000D+01
   d     1 1.00
  0.318000D+00  0.100000D+01
   f     1 1.00
  0.761000D+00  0.100000D+01
  
  3  0
   s    10 1.00
  0.823600D+04  0.531000D-03
  0.123500D+04  0.410800D-02
  0.280800D+03  0.210870D-01
  0.792700D+02  0.818530D-01
  0.255900D+02  0.234817D+00
  0.899700D+01  0.434401D+00
  0.331900D+01  0.346129D+00
  0.905900D+00  0.393780D-01
  0.364300D+00 -0.898300D-02
  0.128500D+00  0.238500D-02
   s    10 1.00
  0.823600D+04 -0.113000D-03
  0.123500D+04 -0.878000D-03
  0.280800D+03 -0.454000D-02
  0.792700D+02 -0.181330D-01
  0.255900D+02 -0.557600D-01
  0.899700D+01 -0.126895D+00
  0.331900D+01 -0.170352D+00
  0.905900D+00  0.140382D+00
  0.364300D+00  0.598684D+00
  0.128500D+00  0.395389D+00
   s     1 1.00
  0.905900D+00  0.100000D+01
   s     1 1.00
  0.364300D+00  0.100000D+01
   p     5 1.00
  0.187100D+02  0.140310D-01
  0.413300D+01  0.868660D-01
  0.120000D+01  0.290216D+00
  0.382700D+00  0.501008D+00
  0.120900D+00  0.343406D+00
   p     1 1.00
  0.382700D+00  0.100000D+01
   p     1 1.00
  0.120900D+00  0.100000D+01
   d     1 1.00
  0.109700D+01  0.100000D+01
   d     1 1.00
  0.318000D+00  0.100000D+01
   f     1 1.00
  0.761000D+00  0.100000D+01
  
  4  0
   s    10 1.00
  0.823600D+04  0.531000D-03
  0.123500D+04  0.410800D-02
  0.280800D+03  0.210870D-01
  0.792700D+02  0.818530D-01
  0.255900D+02  0.234817D+00
  0.899700D+01  0.434401D+00
  0.331900D+01  0.346129D+00
  0.905900D+00  0.393780D-01
  0.364300D+00 -0.898300D-02
  0.128500D+00  0.238500D-02
   s    10 1.00
  0.823600D+04 -0.113000D-03
  0.123500D+04 -0.878000D-03
  0.280800D+03 -0.454000D-02
  0.792700D+02 -0.181330D-01
  0.255900D+02 -0.557600D-01
  0.899700D+01 -0.126895D+00
  0.331900D+01 -0.170352D+00
  0.905900D+00  0.140382D+00
  0.364300D+00  0.598684D+00
  0.128500D+00  0.395389D+00
   s     1 1.00
  0.905900D+00  0.100000D+01
   s     1 1.00
  0.364300D+00  0.100000D+01
   p     5 1.00
  0.187100D+02  0.140310D-01
  0.413300D+01  0.868660D-01
  0.120000D+01  0.290216D+00
  0.382700D+00  0.501008D+00
  0.120900D+00  0.343406D+00
   p     1 1.00
  0.382700D+00  0.100000D+01
   p     1 1.00
  0.120900D+00  0.100000D+01
   d     1 1.00
  0.109700D+01  0.100000D+01
   d     1 1.00
  0.318000D+00  0.100000D+01
   f     1 1.00
  0.761000D+00  0.100000D+01
  
  5  0
   s    10 1.00
  0.823600D+04  0.531000D-03
  0.123500D+04  0.410800D-02
  0.280800D+03  0.210870D-01
  0.792700D+02  0.818530D-01
  0.255900D+02  0.234817D+00
  0.899700D+01  0.434401D+00
  0.331900D+01  0.346129D+00
  0.905900D+00  0.393780D-01
  0.364300D+00 -0.898300D-02
  0.128500D+00  0.238500D-02
   s    10 1.00
  0.823600D+04 -0.113000D-03
  0.123500D+04 -0.878000D-03
  0.280800D+03 -0.454000D-02
  0.792700D+02 -0.181330D-01
  0.255900D+02 -0.557600D-01
  0.899700D+01 -0.126895D+00
  0.331900D+01 -0.170352D+00
  0.905900D+00  0.140382D+00
  0.364300D+00  0.598684D+00
  0.128500D+00  0.395389D+00
   s     1 1.00
  0.905900D+00  0.100000D+01
   s     1 1.00
  0.364300D+00  0.100000D+01
   p     5 1.00
  0.187100D+02  0.140310D-01
  0.413300D+01  0.868660D-01
  0.120000D+01  0.290216D+00
  0.382700D+00  0.501008D+00
  0.120900D+00  0.343406D+00
   p     1 1.00
  0.382700D+00  0.100000D+01
   p     1 1.00
  0.120900D+00  0.100000D+01
   d     1 1.00
  0.109700D+01  0.100000D+01
   d     1 1.00
  0.318000D+00  0.100000D+01
   f     1 1.00
  0.761000D+00  0.100000D+01
  
  6  0
   s    10 1.00
  0.823600D+04  0.531000D-03
  0.123500D+04  0.410800D-02
  0.280800D+03  0.210870D-01
  0.792700D+02  0.818530D-01
  0.255900D+02  0.234817D+00
  0.899700D+01  0.434401D+00
  0.331900D+01  0.346129D+00
  0.905900D+00  0.393780D-01
  0.364300D+00 -0.898300D-02
  0.128500D+00  0.238500D-02
   s    10 1.00
  0.823600D+04 -0.113000D-03
  0.123500D+04 -0.878000D-03
  0.280800D+03 -0.454000D-02
  0.792700D+02 -0.181330D-01
  0.255900D+02 -0.557600D-01
  0.899700D+01 -0.126895D+00
  0.331900D+01 -0.170352D+00
  0.905900D+00  0.140382D+00
  0.364300D+00  0.598684D+00
  0.128500D+00  0.395389D+00
   s     1 1.00
  0.905900D+00  0.100000D+01
   s     1 1.00
  0.364300D+00  0.100000D+01
   p     5 1.00
  0.187100D+02  0.140310D-01
  0.413300D+01  0.868660D-01
  0.120000D+01  0.290216D+00
  0.382700D+00  0.501008D+00
  0.120900D+00  0.343406D+00
   p     1 1.00
  0.382700D+00  0.100000D+01
   p     1 1.00
  0.120900D+00  0.100000D+01
   d     1 1.00
  0.109700D+01  0.100000D+01
   d     1 1.00
  0.318000D+00  0.100000D+01
   f     1 1.00
  0.761000D+00  0.100000D+01
  
  7  0
   s    10 1.00
  0.823600D+04  0.531000D-03
  0.123500D+04  0.410800D-02
  0.280800D+03  0.210870D-01
  0.792700D+02  0.818530D-01
  0.255900D+02  0.234817D+00
  0.899700D+01  0.434401D+00
  0.331900D+01  0.346129D+00
  0.905900D+00  0.393780D-01
  0.364300D+00 -0.898300D-02
  0.128500D+00  0.238500D-02
   s    10 1.00
  0.823600D+04 -0.113000D-03
  0.123500D+04 -0.878000D-03
  0.280800D+03 -0.454000D-02
  0.792700D+02 -0.181330D-01
  0.255900D+02 -0.557600D-01
  0.899700D+01 -0.126895D+00
  0.331900D+01 -0.170352D+00
  0.905900D+00  0.140382D+00
  0.364300D+00  0.598684D+00
  0.128500D+00  0.395389D+00
   s     1 1.00
  0.905900D+00  0.100000D+01
   s     1 1.00
  0.364300D+00  0.100000D+01
   p     5 1.00
  0.187100D+02  0.140310D-01
  0.413300D+01  0.868660D-01
  0.120000D+01  0.290216D+00
  0.382700D+00  0.501008D+00
  0.120900D+00  0.343406D+00
   p     1 1.00
  0.382700D+00  0.100000D+01
   p     1 1.00
  0.120900D+00  0.100000D+01
   d     1 1.00
  0.109700D+01  0.100000D+01
   d     1 1.00
  0.318000D+00  0.100000D+01
   f     1 1.00
  0.761000D+00  0.100000D+01
  
  8  0
   s     4 1.00
  0.130100D+02  0.196850D-01
  0.196200D+01  0.137977D+00
  0.444600D+00  0.478148D+00
  0.122000D+00  0.501240D+00
   s     1 1.00
  0.122000D+00  0.100000D+01
   p     1 1.00
  0.727000D+00  0.100000D+01
  
  9  0
   s     4 1.00
  0.130100D+02  0.196850D-01
  0.196200D+01  0.137977D+00
  0.444600D+00  0.478148D+00
  0.122000D+00  0.501240D+00
   s     1 1.00
  0.122000D+00  0.100000D+01
   p     1 1.00
  0.727000D+00  0.100000D+01
  
 10  0
   s     4 1.00
  0.130100D+02  0.196850D-01
  0.196200D+01  0.137977D+00
  0.444600D+00  0.478148D+00
  0.122000D+00  0.501240D+00
   s     1 1.00
  0.122000D+00  0.100000D+01
   p     1 1.00
  0.727000D+00  0.100000D+01
  
 11  0
   s     4 1.00
  0.130100D+02  0.196850D-01
  0.196200D+01  0.137977D+00
  0.444600D+00  0.478148D+00
  0.122000D+00  0.501240D+00
   s     1 1.00
  0.122000D+00  0.100000D+01
   p     1 1.00
  0.727000D+00  0.100000D+01
  
 12  0
   s     4 1.00
  0.130100D+02  0.196850D-01
  0.196200D+01  0.137977D+00
  0.444600D+00  0.478148D+00
  0.122000D+00  0.501240D+00
   s     1 1.00
  0.122000D+00  0.100000D+01
   p     1 1.00
  0.727000D+00  0.100000D+01
  
 13  0
   s     4 1.00
  0.130100D+02  0.196850D-01
  0.196200D+01  0.137977D+00
  0.444600D+00  0.478148D+00
  0.122000D+00  0.501240D+00
   s     1 1.00
  0.122000D+00  0.100000D+01
   p     1 1.00
  0.727000D+00  0.100000D+01
  
 14  0
   s     4 1.00
  0.130100D+02  0.196850D-01
  0.196200D+01  0.137977D+00
  0.444600D+00  0.478148D+00
  0.122000D+00  0.501240D+00
   s     1 1.00
  0.122000D+00  0.100000D+01
   p     1 1.00
  0.727000D+00  0.100000D+01
  
[MO]
 Sym= __1_A'_
 Ene=   1.00000000000000     
 Spin= Alpha
 Occup=    1.00000000000000     
                     1  2.348783460492330E-005
                     2  0.998527794919876     
                     3  2.608271482149975E-003
                     4  1.642487659354598E-003
                     5  3.947309917058911E-003
                     6  2.496128096017567E-003
                     7  5.791469323503947E-003
                     8  0.000000000000000E+000
                     9 -4.582403789148065E-004
                    10 -4.204902458809596E-004
                    11  0.000000000000000E+000
                    12 -1.628411919638867E-003
                    13 -1.254300388504990E-003
                    14  0.000000000000000E+000
                    15 -1.123134889178695E-004
                    16  0.000000000000000E+000
                    17  0.000000000000000E+000
                    18 -2.125526895035666E-004
                    19 -4.879390112535651E-005
                    20  2.927999897018455E-004
                    21  0.000000000000000E+000
                    22  0.000000000000000E+000
                    23 -2.899989808458562E-004
                    24  3.511003834073098E-004
                    25  0.000000000000000E+000
                    26 -1.540473139501275E-006
                    27 -5.899988567285720E-005
                    28  0.000000000000000E+000
                    29  0.000000000000000E+000
                    30  1.058245962084334E-005
                    31 -1.020530910606870E-004
                    32 -2.977493798239605E-004
                    33  1.618717166967155E-003
                    34  2.095954778742258E-004
                    35 -2.449834919032131E-004
                    36 -1.548205141697702E-004
                    37 -4.844123957649058E-003
                    38  0.000000000000000E+000
                    39  3.338971622312807E-004
                    40  1.807865661188886E-004
                    41  0.000000000000000E+000
                    42 -1.389078046486830E-003
                    43  4.972896926691082E-003
                    44  0.000000000000000E+000
                    45 -2.475055831872360E-005
                    46  0.000000000000000E+000
                    47  0.000000000000000E+000
                    48 -2.542400848922496E-004
                    49 -1.841346323007135E-005
                    50 -3.079268497102518E-004
                    51  0.000000000000000E+000
                    52  0.000000000000000E+000
                    53  9.073267419282835E-005
                    54  5.047791670056460E-004
                    55  0.000000000000000E+000
                    56 -1.211980457390688E-005
                    57 -3.763096051358844E-005
                    58  0.000000000000000E+000
                    59  0.000000000000000E+000
                    60  4.788470910341189E-006
                    61 -1.223949888206561E-004
                    62 -3.836976449580810E-004
                    63 -1.819354353356271E-003
                    64 -4.618347126970889E-005
                    65  1.526818445793950E-003
                    66 -6.238555524720743E-004
                    67  4.597700421334435E-004
                    68  0.000000000000000E+000
                    69  2.849888478319289E-004
                    70  7.271836621148254E-004
                    71  0.000000000000000E+000
                    72 -1.380703543396215E-003
                    73  4.183473017780944E-004
                    74  0.000000000000000E+000
                    75 -3.257122091990739E-005
                    76  0.000000000000000E+000
                    77  0.000000000000000E+000
                    78 -7.519329864854120E-005
                    79 -2.298516467005735E-005
                    80 -1.002207943160308E-004
                    81  0.000000000000000E+000
                    82  0.000000000000000E+000
                    83  6.053420172071588E-005
                    84  1.019142755272471E-004
                    85  0.000000000000000E+000
                    86  1.116925354532231E-005
                    87 -4.459853688262984E-005
                    88  0.000000000000000E+000
                    89  0.000000000000000E+000
                    90 -2.527632275445051E-005
                    91 -1.300517243821202E-004
                    92 -1.660063731077666E-004
                    93 -1.178581719116563E-003
                    94  1.590562340676195E-004
                    95 -4.895698962774998E-006
                    96  5.895762369047346E-004
                    97  6.521899049651244E-004
                    98  0.000000000000000E+000
                    99  2.944727477433096E-004
                   100  4.279271366836538E-004
                   101  0.000000000000000E+000
                   102  5.410879529393397E-004
                   103 -9.604140543648932E-004
                   104  0.000000000000000E+000
                   105 -6.515782559235577E-006
                   106  0.000000000000000E+000
                   107  0.000000000000000E+000
                   108 -7.161242027252726E-005
                   109 -9.950909414360779E-006
                   110  7.666698643952227E-005
                   111  0.000000000000000E+000
                   112  0.000000000000000E+000
                   113 -7.501437514294530E-005
                   114 -8.180144591007766E-005
                   115  0.000000000000000E+000
                   116 -2.156865052908503E-005
                   117 -3.400954460464882E-005
                   118  0.000000000000000E+000
                   119  0.000000000000000E+000
                   120  1.746396224575502E-005
                   121 -4.989292607019379E-005
                   122 -2.303438434587717E-004
                   123 -4.445842118179262E-004
                   124  1.497868402960422E-004
                   125  3.058265157824566E-004
                   126 -4.383975461551529E-007
                   127 -5.147948712665093E-004
                   128  0.000000000000000E+000
                   129  1.457095007994584E-004
                   130  5.089541269568118E-004
                   131  0.000000000000000E+000
                   132  1.739231532315464E-004
                   133  1.505418725118625E-003
                   134  0.000000000000000E+000
                   135  1.200386227926299E-005
                   136  0.000000000000000E+000
                   137  0.000000000000000E+000
                   138  3.551209108675936E-005
                   139 -1.407191724440833E-006
                   140  1.667734028296682E-004
                   141  0.000000000000000E+000
                   142  0.000000000000000E+000
                   143  2.837913847090498E-004
                   144  2.057624352184029E-004
                   145  0.000000000000000E+000
                   146 -8.030899897894620E-006
                   147 -4.998065220281726E-005
                   148  0.000000000000000E+000
                   149  0.000000000000000E+000
                   150 -8.738897360382338E-006
                   151 -4.044292365262240E-005
                   152 -1.751162192726186E-004
                   153 -2.473351754544776E-004
                   154  6.417221775453446E-005
                   155  3.222441946246950E-004
                   156 -2.258148474786282E-005
                   157 -5.023584568829388E-004
                   158  0.000000000000000E+000
                   159 -1.737322285800139E-005
                   160  1.537369601345050E-004
                   161  0.000000000000000E+000
                   162  5.359381814473012E-004
                   163  1.001390741517209E-004
                   164  0.000000000000000E+000
                   165  1.551053460836757E-006
                   166  0.000000000000000E+000
                   167  0.000000000000000E+000
                   168  3.020018893969636E-006
                   169  3.504084592333499E-006
                   170  8.165338309235440E-005
                   171  0.000000000000000E+000
                   172  0.000000000000000E+000
                   173  6.781020057537843E-005
                   174 -7.135133576653124E-005
                   175  0.000000000000000E+000
                   176  4.992470778192187E-006
                   177 -1.697626935822301E-005
                   178  0.000000000000000E+000
                   179  0.000000000000000E+000
                   180 -1.590171226299326E-005
                   181 -1.622064875789782E-005
                   182 -1.522628289197591E-004
                   183 -4.286745372234394E-004
                   184  4.508298438885797E-005
                   185  2.159299540589152E-004
                   186 -2.504706138156769E-005
                   187 -5.018660861162433E-005
                   188  0.000000000000000E+000
                   189  1.271958154828011E-004
                   190  5.056575530484983E-005
                   191  0.000000000000000E+000
                   192  7.994238080193674E-004
                   193 -8.578080054224517E-005
                   194  0.000000000000000E+000
                   195 -1.780636575711866E-006
                   196  0.000000000000000E+000
                   197  0.000000000000000E+000
                   198 -1.485750471239636E-005
                   199  3.763954160636940E-006
                   200  2.384127502220982E-005
                   201  0.000000000000000E+000
                   202  0.000000000000000E+000
                   203 -7.733911915757932E-005
                   204 -1.104274779096403E-004
                   205  0.000000000000000E+000
                   206 -3.605808779941195E-006
                   207 -5.852851009144845E-006
                   208  0.000000000000000E+000
                   209  0.000000000000000E+000
                   210  5.821674006231725E-006
                   211 -4.749949393974439E-006
                   212  1.689006517699454E-004
                   213 -1.846022425709814E-004
                   214  2.046645305323785E-004
                   215  1.896629485549817E-004
                   216  0.000000000000000E+000
                   217  1.307441685596771E-003
                   218 -1.253878762040279E-003
                   219 -3.979054259634389E-004
                   220  2.530394216565172E-004
                   221  0.000000000000000E+000
                   222 -3.972465848326612E-004
                   223 -5.563445123119253E-004
                   224  1.478572065033632E-006
                   225 -5.507772743111032E-005
                   226  0.000000000000000E+000
                   227 -3.314154352888065E-004
                   228 -3.642535742374665E-004
                   229 -1.474436705930575E-006
                   230 -2.575094808928303E-005
                   231  0.000000000000000E+000
                   232 -9.115949283865672E-005
                   233 -4.923897358350947E-004
                   234  3.780622796503225E-006
                   235  2.612283486223600E-007
                   236  0.000000000000000E+000
                   237 -1.539404337385300E-004
                   238 -4.142331885576778E-004
                   239  3.638374768492010E-006
                   240  2.023530343056706E-006
                   241  0.000000000000000E+000
                   242  2.263299606648955E-005
                   243 -6.845280773128489E-005
                   244 -3.571498822688369E-007
                   245  1.857817167942193E-005
                   246  0.000000000000000E+000
 Sym= __2_A'_
 Ene=   2.00000000000000     
 Spin= Alpha
 Occup=    1.00000000000000     
                     1 -5.358654677425709E-005
                     2 -3.258769319425228E-004
                     3  2.775982682829932E-003
                     4  1.452136903438018E-004
                     5  1.305668476871945E-003
                     6 -2.075475042217782E-004
                     7  3.134632648323684E-003
                     8  0.000000000000000E+000
                     9 -3.915321656181720E-005
                    10 -8.922280860988626E-005
                    11  0.000000000000000E+000
                    12  8.452596107314551E-005
                    13 -4.766816553350246E-004
                    14  0.000000000000000E+000
                    15  3.550037282887947E-005
                    16  0.000000000000000E+000
                    17  0.000000000000000E+000
                    18 -6.265547705268485E-005
                    19  4.250363783241815E-007
                    20 -1.353502409043771E-004
                    21  0.000000000000000E+000
                    22  0.000000000000000E+000
                    23  2.219366083324264E-004
                    24  1.379676059824306E-005
                    25  0.000000000000000E+000
                    26 -1.048817692300413E-005
                    27  9.493805929755161E-005
                    28  0.000000000000000E+000
                    29  0.000000000000000E+000
                    30 -1.280608224534854E-005
                    31  1.428862023496741E-004
                    32   1.00101912678197     
                    33  9.409815027621183E-003
                    34  2.720846933205022E-003
                    35 -8.029116795101508E-003
                    36 -9.257930600135313E-005
                    37 -3.919411794277064E-003
                    38  0.000000000000000E+000
                    39  6.567278408260434E-005
                    40  6.194123516847699E-004
                    41  0.000000000000000E+000
                    42  6.380734080957833E-005
                    43  4.347957700566343E-003
                    44  0.000000000000000E+000
                    45 -5.845955671339998E-004
                    46  0.000000000000000E+000
                    47  0.000000000000000E+000
                    48 -2.058305686408058E-004
                    49 -6.599050901252015E-006
                    50  5.400631946149522E-004
                    51  0.000000000000000E+000
                    52  0.000000000000000E+000
                    53 -9.390129321675670E-004
                    54  5.607713899921668E-005
                    55  0.000000000000000E+000
                    56 -8.132416661602045E-007
                    57  8.982376253964010E-005
                    58  0.000000000000000E+000
                    59  0.000000000000000E+000
                    60 -1.503102308414935E-006
                    61  4.147759757860218E-004
                    62  8.549589841513003E-003
                    63 -2.087591117315001E-003
                    64 -2.862392987410410E-004
                    65  3.073407176330692E-003
                    66  1.155066931060888E-005
                    67  7.283618858825143E-005
                    68  0.000000000000000E+000
                    69  7.000393530382787E-004
                    70 -6.909737400311664E-006
                    71  0.000000000000000E+000
                    72 -2.070475326582443E-003
                    73  7.255750748680088E-005
                    74  0.000000000000000E+000
                    75  2.799247644921302E-005
                    76  0.000000000000000E+000
                    77  0.000000000000000E+000
                    78 -4.652898939051556E-006
                    79  3.975275371838629E-006
                    80 -4.004024631584442E-004
                    81  0.000000000000000E+000
                    82  0.000000000000000E+000
                    83 -5.986559293678942E-004
                    84 -3.865268004802032E-004
                    85  0.000000000000000E+000
                    86  3.507258497263995E-005
                    87 -5.802175494348187E-005
                    88  0.000000000000000E+000
                    89  0.000000000000000E+000
                    90  5.501257995640956E-005
                    91  1.405727951858588E-004
                    92  9.011539667915040E-003
                    93 -2.115139427064031E-003
                    94 -2.793239005669749E-004
                    95  3.037472948435857E-003
                    96  1.319512730853632E-005
                    97  8.501611166669497E-005
                    98  0.000000000000000E+000
                    99 -6.475317403014152E-004
                   100  3.215658833152196E-005
                   101  0.000000000000000E+000
                   102  2.084404107058372E-003
                   103  8.991179305328800E-005
                   104  0.000000000000000E+000
                   105  3.132646713579462E-005
                   106  0.000000000000000E+000
                   107  0.000000000000000E+000
                   108 -5.003344821161476E-006
                   109 -9.481275480316997E-006
                   110 -4.061845633397526E-004
                   111  0.000000000000000E+000
                   112  0.000000000000000E+000
                   113 -6.353591462799014E-004
                   114  3.853368187825700E-004
                   115  0.000000000000000E+000
                   116 -3.326786469735957E-005
                   117 -5.811607987134850E-005
                   118  0.000000000000000E+000
                   119  0.000000000000000E+000
                   120 -5.323924997817866E-005
                   121  1.385081972184276E-004
                   122 -1.976736959508983E-004
                   123 -6.990610493548606E-004
                   124  2.233468842820146E-004
                   125 -9.343361870335760E-005
                   126 -5.321129104905933E-006
                   127 -3.204096524367481E-004
                   128  0.000000000000000E+000
                   129 -5.183221275065429E-005
                   130  5.281631497484410E-004
                   131  0.000000000000000E+000
                   132  3.111074005147511E-004
                   133  7.525748485219598E-004
                   134  0.000000000000000E+000
                   135  1.850456836559502E-005
                   136  0.000000000000000E+000
                   137  0.000000000000000E+000
                   138  3.523481328642346E-006
                   139  5.266603264653199E-005
                   140  1.352491565106565E-004
                   141  0.000000000000000E+000
                   142  0.000000000000000E+000
                   143  2.433024304867700E-004
                   144 -1.880908304922206E-004
                   145  0.000000000000000E+000
                   146  6.868121425483179E-006
                   147 -3.284555374871430E-005
                   148  0.000000000000000E+000
                   149  0.000000000000000E+000
                   150 -4.673049752372156E-005
                   151  2.815135419553783E-005
                   152 -1.680339278177530E-004
                   153 -6.967841804937460E-004
                   154  2.278596687131362E-004
                   155 -1.223469678980954E-004
                   156  4.209417239335242E-006
                   157 -3.248816024340352E-004
                   158  0.000000000000000E+000
                   159  3.532375712643919E-005
                   160  5.571404871549942E-004