[Molden Format]
[Atoms] AU
  N     1    7     0.0000000000    0.0000000000   -4.4467673000        
  C     2    6     0.0000000000    0.0000000000   -1.8311733200        
  C     3    6     0.0000000000   -2.3119429300   -0.4612973900        
  C     4    6     0.0000000000    2.3119429300   -0.4612973900        
  C     5    6     0.0000000000   -2.2938082600    2.2285942600        
  C     6    6     0.0000000000    2.2938082600    2.2285942600        
  C     7    6     0.0000000000    0.0000000000    3.5797306400        
  H     8    1     0.0000000000   -1.6384717600   -5.4142092000        
  H     9    1     0.0000000000    1.6384717600   -5.4142092000        
  H    10    1     0.0000000000   -4.0763748700   -1.4574876700        
  H    11    1     0.0000000000    4.0763748700   -1.4574876700        
  H    12    1     0.0000000000   -4.0617729400    3.2180118800        
  H    13    1     0.0000000000    4.0617729400    3.2180118800        
  H    14    1     0.0000000000    0.0000000000    5.6040547100        
[5D]
[7F]
[GTO]
  1  0
   s    12 1.00
  0.114200D+05  0.172695D-04
  0.171200D+04  0.134411D-03
  0.389300D+03  0.694561D-03
  0.110000D+03  0.278531D-02
  0.355700D+02  0.863457D-02
  0.125400D+02  0.199805D-01
  0.464400D+01  0.262908D-01
  0.129300D+01 -0.243845D-01
  0.511800D+00 -0.924934D-01
  0.178700D+00 -0.339683D+00
  0.246240D-01  0.345111D+00
  0.112530D-01  0.752750D+00
   s    10 1.00
  0.114200D+05  0.523000D-03
  0.171200D+04  0.404500D-02
  0.389300D+03  0.207750D-01
  0.110000D+03  0.807269D-01
  0.355700D+02  0.233074D+00
  0.125400D+02  0.433501D+00
  0.464400D+01  0.347472D+00
  0.129300D+01  0.412620D-01
  0.511800D+00 -0.850799D-02
  0.178700D+00  0.238400D-02
   s    10 1.00
  0.114200D+05 -0.115000D-03
  0.171200D+04 -0.895000D-03
  0.389300D+03 -0.462400D-02
  0.110000D+03 -0.185280D-01
  0.355700D+02 -0.573390D-01
  0.125400D+02 -0.132076D+00
  0.464400D+01 -0.172510D+00
  0.129300D+01  0.151814D+00
  0.511800D+00  0.599944D+00
  0.178700D+00  0.387462D+00
   s     1 1.00
  0.129300D+01  0.100000D+01
   s     1 1.00
  0.178700D+00  0.100000D+01
   p     5 1.00
  0.266300D+02  0.146700D-01
  0.594800D+01  0.917640D-01
  0.174200D+01  0.298683D+00
  0.555000D+00  0.498487D+00
  0.172500D+00  0.337023D+00
   p     1 1.00
  0.174200D+01  0.100000D+01
   p     1 1.00
  0.555000D+00  0.100000D+01
   d     1 1.00
  0.165400D+01  0.100000D+01
   d     1 1.00
  0.469000D+00  0.100000D+01
   f     1 1.00
  0.109300D+01  0.100000D+01
  
  2  0
   s    10 1.00
  0.823600D+04  0.531000D-03
  0.123500D+04  0.410800D-02
  0.280800D+03  0.210870D-01
  0.792700D+02  0.818530D-01
  0.255900D+02  0.234817D+00
  0.899700D+01  0.434401D+00
  0.331900D+01  0.346129D+00
  0.905900D+00  0.393780D-01
  0.364300D+00 -0.898300D-02
  0.128500D+00  0.238500D-02
   s    10 1.00
  0.823600D+04 -0.113000D-03
  0.123500D+04 -0.878000D-03
  0.280800D+03 -0.454000D-02
  0.792700D+02 -0.181330D-01
  0.255900D+02 -0.557600D-01
  0.899700D+01 -0.126895D+00
  0.331900D+01 -0.170352D+00
  0.905900D+00  0.140382D+00
  0.364300D+00  0.598684D+00
  0.128500D+00  0.395389D+00
   s     1 1.00
  0.905900D+00  0.100000D+01
   s     1 1.00
  0.364300D+00  0.100000D+01
   p     5 1.00
  0.187100D+02  0.140310D-01
  0.413300D+01  0.868660D-01
  0.120000D+01  0.290216D+00
  0.382700D+00  0.501008D+00
  0.120900D+00  0.343406D+00
   p     1 1.00
  0.382700D+00  0.100000D+01
   p     1 1.00
  0.120900D+00  0.100000D+01
   d     1 1.00
  0.109700D+01  0.100000D+01
   d     1 1.00
  0.318000D+00  0.100000D+01
   f     1 1.00
  0.761000D+00  0.100000D+01
  
  3  0
   s    10 1.00
  0.823600D+04  0.531000D-03
  0.123500D+04  0.410800D-02
  0.280800D+03  0.210870D-01
  0.792700D+02  0.818530D-01
  0.255900D+02  0.234817D+00
  0.899700D+01  0.434401D+00
  0.331900D+01  0.346129D+00
  0.905900D+00  0.393780D-01
  0.364300D+00 -0.898300D-02
  0.128500D+00  0.238500D-02
   s    10 1.00
  0.823600D+04 -0.113000D-03
  0.123500D+04 -0.878000D-03
  0.280800D+03 -0.454000D-02
  0.792700D+02 -0.181330D-01
  0.255900D+02 -0.557600D-01
  0.899700D+01 -0.126895D+00
  0.331900D+01 -0.170352D+00
  0.905900D+00  0.140382D+00
  0.364300D+00  0.598684D+00
  0.128500D+00  0.395389D+00
   s     1 1.00
  0.905900D+00  0.100000D+01
   s     1 1.00
  0.364300D+00  0.100000D+01
   p     5 1.00
  0.187100D+02  0.140310D-01
  0.413300D+01  0.868660D-01
  0.120000D+01  0.290216D+00
  0.382700D+00  0.501008D+00
  0.120900D+00  0.343406D+00
   p     1 1.00
  0.382700D+00  0.100000D+01
   p     1 1.00
  0.120900D+00  0.100000D+01
   d     1 1.00
  0.109700D+01  0.100000D+01
   d     1 1.00
  0.318000D+00  0.100000D+01
   f     1 1.00
  0.761000D+00  0.100000D+01
  
  4  0
   s    10 1.00
  0.823600D+04  0.531000D-03
  0.123500D+04  0.410800D-02
  0.280800D+03  0.210870D-01
  0.792700D+02  0.818530D-01
  0.255900D+02  0.234817D+00
  0.899700D+01  0.434401D+00
  0.331900D+01  0.346129D+00
  0.905900D+00  0.393780D-01
  0.364300D+00 -0.898300D-02
  0.128500D+00  0.238500D-02
   s    10 1.00
  0.823600D+04 -0.113000D-03
  0.123500D+04 -0.878000D-03
  0.280800D+03 -0.454000D-02
  0.792700D+02 -0.181330D-01
  0.255900D+02 -0.557600D-01
  0.899700D+01 -0.126895D+00
  0.331900D+01 -0.170352D+00
  0.905900D+00  0.140382D+00
  0.364300D+00  0.598684D+00
  0.128500D+00  0.395389D+00
   s     1 1.00
  0.905900D+00  0.100000D+01
   s     1 1.00
  0.364300D+00  0.100000D+01
   p     5 1.00
  0.187100D+02  0.140310D-01
  0.413300D+01  0.868660D-01
  0.120000D+01  0.290216D+00
  0.382700D+00  0.501008D+00
  0.120900D+00  0.343406D+00
   p     1 1.00
  0.382700D+00  0.100000D+01
   p     1 1.00
  0.120900D+00  0.100000D+01
   d     1 1.00
  0.109700D+01  0.100000D+01
   d     1 1.00
  0.318000D+00  0.100000D+01
   f     1 1.00
  0.761000D+00  0.100000D+01
  
  5  0
   s    10 1.00
  0.823600D+04  0.531000D-03
  0.123500D+04  0.410800D-02
  0.280800D+03  0.210870D-01
  0.792700D+02  0.818530D-01
  0.255900D+02  0.234817D+00
  0.899700D+01  0.434401D+00
  0.331900D+01  0.346129D+00
  0.905900D+00  0.393780D-01
  0.364300D+00 -0.898300D-02
  0.128500D+00  0.238500D-02
   s    10 1.00
  0.823600D+04 -0.113000D-03
  0.123500D+04 -0.878000D-03
  0.280800D+03 -0.454000D-02
  0.792700D+02 -0.181330D-01
  0.255900D+02 -0.557600D-01
  0.899700D+01 -0.126895D+00
  0.331900D+01 -0.170352D+00
  0.905900D+00  0.140382D+00
  0.364300D+00  0.598684D+00
  0.128500D+00  0.395389D+00
   s     1 1.00
  0.905900D+00  0.100000D+01
   s     1 1.00
  0.364300D+00  0.100000D+01
   p     5 1.00
  0.187100D+02  0.140310D-01
  0.413300D+01  0.868660D-01
  0.120000D+01  0.290216D+00
  0.382700D+00  0.501008D+00
  0.120900D+00  0.343406D+00
   p     1 1.00
  0.382700D+00  0.100000D+01
   p     1 1.00
  0.120900D+00  0.100000D+01
   d     1 1.00
  0.109700D+01  0.100000D+01
   d     1 1.00
  0.318000D+00  0.100000D+01
   f     1 1.00
  0.761000D+00  0.100000D+01
  
  6  0
   s    10 1.00
  0.823600D+04  0.531000D-03
  0.123500D+04  0.410800D-02
  0.280800D+03  0.210870D-01
  0.792700D+02  0.818530D-01
  0.255900D+02  0.234817D+00
  0.899700D+01  0.434401D+00
  0.331900D+01  0.346129D+00
  0.905900D+00  0.393780D-01
  0.364300D+00 -0.898300D-02
  0.128500D+00  0.238500D-02
   s    10 1.00
  0.823600D+04 -0.113000D-03
  0.123500D+04 -0.878000D-03
  0.280800D+03 -0.454000D-02
  0.792700D+02 -0.181330D-01
  0.255900D+02 -0.557600D-01
  0.899700D+01 -0.126895D+00
  0.331900D+01 -0.170352D+00
  0.905900D+00  0.140382D+00
  0.364300D+00  0.598684D+00
  0.128500D+00  0.395389D+00
   s     1 1.00
  0.905900D+00  0.100000D+01
   s     1 1.00
  0.364300D+00  0.100000D+01
   p     5 1.00
  0.187100D+02  0.140310D-01
  0.413300D+01  0.868660D-01
  0.120000D+01  0.290216D+00
  0.382700D+00  0.501008D+00
  0.120900D+00  0.343406D+00
   p     1 1.00
  0.382700D+00  0.100000D+01
   p     1 1.00
  0.120900D+00  0.100000D+01
   d     1 1.00
  0.109700D+01  0.100000D+01
   d     1 1.00
  0.318000D+00  0.100000D+01
   f     1 1.00
  0.761000D+00  0.100000D+01
  
  7  0
   s    10 1.00
  0.823600D+04  0.531000D-03
  0.123500D+04  0.410800D-02
  0.280800D+03  0.210870D-01
  0.792700D+02  0.818530D-01
  0.255900D+02  0.234817D+00
  0.899700D+01  0.434401D+00
  0.331900D+01  0.346129D+00
  0.905900D+00  0.393780D-01
  0.364300D+00 -0.898300D-02
  0.128500D+00  0.238500D-02
   s    10 1.00
  0.823600D+04 -0.113000D-03
  0.123500D+04 -0.878000D-03
  0.280800D+03 -0.454000D-02
  0.792700D+02 -0.181330D-01
  0.255900D+02 -0.557600D-01
  0.899700D+01 -0.126895D+00
  0.331900D+01 -0.170352D+00
  0.905900D+00  0.140382D+00
  0.364300D+00  0.598684D+00
  0.128500D+00  0.395389D+00
   s     1 1.00
  0.905900D+00  0.100000D+01
   s     1 1.00
  0.364300D+00  0.100000D+01
   p     5 1.00
  0.187100D+02  0.140310D-01
  0.413300D+01  0.868660D-01
  0.120000D+01  0.290216D+00
  0.382700D+00  0.501008D+00
  0.120900D+00  0.343406D+00
   p     1 1.00
  0.382700D+00  0.100000D+01
   p     1 1.00
  0.120900D+00  0.100000D+01
   d     1 1.00
  0.109700D+01  0.100000D+01
   d     1 1.00
  0.318000D+00  0.100000D+01
   f     1 1.00
  0.761000D+00  0.100000D+01
  
  8  0
   s     4 1.00
  0.130100D+02  0.196850D-01
  0.196200D+01  0.137977D+00
  0.444600D+00  0.478148D+00
  0.122000D+00  0.501240D+00
   s     1 1.00
  0.122000D+00  0.100000D+01
   p     1 1.00
  0.727000D+00  0.100000D+01
  
  9  0
   s     4 1.00
  0.130100D+02  0.196850D-01
  0.196200D+01  0.137977D+00
  0.444600D+00  0.478148D+00
  0.122000D+00  0.501240D+00
   s     1 1.00
  0.122000D+00  0.100000D+01
   p     1 1.00
  0.727000D+00  0.100000D+01
  
 10  0
   s     4 1.00
  0.130100D+02  0.196850D-01
  0.196200D+01  0.137977D+00
  0.444600D+00  0.478148D+00
  0.122000D+00  0.501240D+00
   s     1 1.00
  0.122000D+00  0.100000D+01
   p     1 1.00
  0.727000D+00  0.100000D+01
  
 11  0
   s     4 1.00
  0.130100D+02  0.196850D-01
  0.196200D+01  0.137977D+00
  0.444600D+00  0.478148D+00
  0.122000D+00  0.501240D+00
   s     1 1.00
  0.122000D+00  0.100000D+01
   p     1 1.00
  0.727000D+00  0.100000D+01
  
 12  0
   s     4 1.00
  0.130100D+02  0.196850D-01
  0.196200D+01  0.137977D+00
  0.444600D+00  0.478148D+00
  0.122000D+00  0.501240D+00
   s     1 1.00
  0.122000D+00  0.100000D+01
   p     1 1.00
  0.727000D+00  0.100000D+01
  
 13  0
   s     4 1.00
  0.130100D+02  0.196850D-01
  0.196200D+01  0.137977D+00
  0.444600D+00  0.478148D+00
  0.122000D+00  0.501240D+00
   s     1 1.00
  0.122000D+00  0.100000D+01
   p     1 1.00
  0.727000D+00  0.100000D+01
  
 14  0
   s     4 1.00
  0.130100D+02  0.196850D-01
  0.196200D+01  0.137977D+00
  0.444600D+00  0.478148D+00
  0.122000D+00  0.501240D+00
   s     1 1.00
  0.122000D+00  0.100000D+01
   p     1 1.00
  0.727000D+00  0.100000D+01
  
[MO]
 Sym= __1_A__
 Ene=   1.00000000000000     
 Spin= Alpha
 Occup=    1.00000000000000     
                     1  4.392301024925252E-005
                     2  0.998046983110032     
                     3  7.162023742273574E-003
                     4  2.102144090394660E-003
                     5  1.887254713503294E-003
                     6  3.471365160716831E-012
                     7  9.103705106846304E-010
                     8  3.841681493228462E-003
                     9  1.774425160769404E-012
                    10  6.785973366278090E-009
                    11 -2.342233707572752E-004
                    12 -1.928373895027710E-012
                    13 -3.254284842446326E-008
                    14 -4.463175712909980E-004
                    15  1.527009479423193E-004
                    16 -3.533155682661499E-012
                    17  8.431417422080460E-011
                    18 -1.267047088046372E-004
                    19 -9.518278037657610E-014
                    20  3.237592731042714E-005
                    21 -6.827837439140719E-013
                    22 -2.962034568710336E-009
                    23  5.066883555711374E-004
                    24  2.531699797700973E-012
                    25 -1.480021530868608E-004
                    26 -2.877833085861543E-012
                    27  7.441170359928805E-010
                    28  9.900598618267924E-005
                    29 -1.447404624435216E-012
                    30 -3.501597638153546E-013
                    31  2.342073732404682E-010
                    32 -2.491702065520125E-004
                    33  2.100789304792751E-003
                    34  3.025128623305186E-005
                    35 -5.987935816840462E-005
                    36  3.025519635429904E-012
                    37  1.397173180788027E-008
                    38 -5.515340434985914E-003
                    39  3.585125386333518E-012
                    40 -4.576611279084741E-008
                    41 -2.333060166908984E-004
                    42  7.847050164562656E-012
                    43 -9.051887966010521E-009
                    44  3.797722110194079E-003
                    45  3.287777450285809E-004
                    46 -4.557984812644784E-012
                    47  4.772773315271698E-009
                    48  1.154666871807193E-004
                    49  7.826996590226014E-014
                    50  3.126050709267953E-004
                    51  4.470499360306821E-012
                    52 -8.024584999072383E-008
                    53 -2.700141862986960E-004
                    54  2.996145744418223E-012
                    55 -5.685340203109227E-005
                    56  2.502602143955657E-012
                    57 -2.156725121791463E-009
                    58  7.988258355432702E-005
                    59  5.439933765534092E-012
                    60 -7.596610513110001E-013
                    61  4.827994270791726E-010
                    62 -2.079728654029127E-004
                    63 -1.517978945694000E-003
                    64  3.455953958229854E-005
                    65  6.061512645689450E-004
                    66 -6.831158549307220E-013
                    67 -6.887604574700352E-004
                    68  8.274995256046251E-004
                    69  3.044705469288444E-012
                    70  3.122178771336847E-005
                    71  4.049136990254260E-004
                    72 -9.358272712065955E-012
                    73 -4.826349345898995E-004
                    74 -2.268704288327033E-004
                    75  7.402221637724214E-005
                    76  1.763714458942608E-013
                    77 -7.598194344003028E-006
                    78  2.894325086030956E-005
                    79 -2.799022806352188E-012
                    80 -2.195808916442409E-005
                    81 -2.543062462497253E-012
                    82  6.463007737221043E-005
                    83 -2.874926538023236E-005
                    84 -9.559701348375410E-013
                    85 -8.679465441037060E-005
                    86  9.492852976453680E-013
                    87 -2.450249516975882E-005
                    88  2.090632008425118E-005
                    89 -2.542304112777819E-012
                    90  2.821381785869053E-012
                    91  1.026738670922118E-005
                    92 -2.079609279113435E-004
                    93 -1.517924717314514E-003
                    94  3.464106649996338E-005
                    95  6.059305716369198E-004
                    96  8.453301906471889E-012
                    97  6.887753667848996E-004
                    98  8.275701000631197E-004
                    99 -1.259996648030834E-011
                   100 -3.131145387338291E-005
                   101  4.045827219906900E-004
                   102 -1.107398625278606E-011
                   103  4.823701141069469E-004
                   104 -2.268566217659085E-004
                   105  7.400966572718752E-005
                   106  2.491378244196730E-012
                   107  7.607257909788618E-006
                   108  2.894445878965230E-005
                   109 -6.156669706835349E-013
                   110 -2.219490328190147E-005
                   111 -5.557483568771855E-012
                   112 -6.467575780825849E-005
                   113 -2.880447132557386E-005
                   114  5.294956200195102E-012
                   115 -8.675733796610003E-005
                   116 -2.262463359390427E-012
                   117  2.449807104034058E-005
                   118  2.090616692643838E-005
                   119  7.161610686196774E-013
                   120 -4.960450291520908E-012
                   121 -1.026640693527332E-005
                   122 -1.217690460572375E-004
                   123 -3.321788997635108E-006
                   124  7.299346022202966E-005
                   125  2.295043438513486E-004
                   126 -1.390152516206566E-012
                   127  2.312501907521957E-005
                   128 -6.925271046253316E-004
                   129  7.840520702720218E-012
                   130  6.665298877111484E-005
                   131  2.475207665997670E-004
                   132  1.387066216536744E-011
                   133 -1.886915999108472E-004
                   134  5.874370648915263E-004
                   135 -7.177445084080947E-006
                   136  3.051736402377346E-012
                   137 -9.047127602664306E-007
                   138 -2.793423373095392E-006
                   139 -3.537565013209655E-012
                   140 -1.458031989499910E-004
                   141  1.633874792370998E-013
                   142  1.325969158606909E-004
                   143  2.904523285150060E-005
                   144  1.104533668241422E-011
                   145 -3.677755112534690E-005
                   146  4.297228911811646E-013
                   147  2.716935808731248E-006
                   148 -1.054375473328098E-005
                   149 -1.908250941822782E-012
                   150  3.184447770590179E-012
                   151 -3.114356963076640E-006
                   152 -1.220423360952654E-004
                   153 -4.288340459930970E-006
                   154  7.275176271682684E-005
                   155  2.310450118125850E-004
                   156  4.596178980009687E-012
                   157 -2.313940844174732E-005
                   158 -6.924884936021314E-004
                   159 -6.078202971715693E-013
                   160 -6.670132317655919E-005
                   161  2.473008623621162E-004
                   162  6.145442069633007E-012
                   163  1.889728928973331E-004
                   164  5.874410897565221E-004
                   165 -7.153670921892053E-006
                   166  1.902684575415852E-012
                   167  9.078454724533029E-007
                   168 -2.815914934036288E-006
                   169  2.361840888205481E-012
                   170 -1.457105515981355E-004
                   171 -1.060738327774716E-011
                   172 -1.326761736842274E-004
                   173  2.904021615253482E-005
                   174 -4.540690210290539E-012
                   175 -3.673087546852005E-005
                   176 -1.088742503036297E-013
                   177 -2.708193303255503E-006
                   178 -1.056761615156401E-005
                   179  6.833276119896411E-013
                   180  2.686765322669032E-013
                   181  3.111223737754594E-006
                   182 -8.245173728998026E-005
                   183 -2.527828541155788E-004
                   184  3.215985700813897E-005
                   185  7.612162761363706E-005
                   186  7.600579909044172E-012
                   187  2.030683803131034E-008
                   188  6.812149140352426E-006
                   189 -1.301403253555747E-011
                   190 -1.256357691777973E-007
                   191  2.843215711105700E-005
                   192 -9.870471679270004E-012
                   193  2.873094125582427E-008
                   194 -6.781746606416136E-005
                   195  1.723797602408452E-005
                   196 -5.919832146054248E-012
                   197  7.397183932741742E-009
                   198  9.038418601303708E-006
                   199 -1.385018316029212E-012
                   200  6.604865091887678E-005
                   201  1.164462046403354E-011
                   202  7.122839967431013E-008
                   203  6.625730398606946E-005
                   204  8.483163590806046E-012
                   205 -1.051030797092068E-006
                   206 -1.617965384476997E-012
                   207 -4.575167502878807E-009
                   208 -5.851787735507252E-006
                   209 -2.546932078597448E-012
                   210  1.045468558896262E-013
                   211  8.287776604239173E-009
                   212  3.657716494904705E-003
                   213 -2.272897882599134E-003
                   214  1.446327360085688E-012
                   215  4.247227309055027E-004
                   216  3.236603238573128E-004
                   217  3.657747903909232E-003
                   218 -2.272911123725813E-003
                   219  2.405498155521583E-013
                   220 -4.247371261648193E-004
                   221  3.236680186497355E-004
                   222 -5.281484637753701E-004
                   223 -1.329026582324985E-004
                   224 -2.410908201321864E-012
                   225 -1.107449692749692E-005
                   226 -4.257214887206300E-005
                   227 -5.281918501491353E-004
                   228 -1.327424250483343E-004
                   229  6.475413813010404E-013
                   230  1.106408890532777E-005
                   231 -4.258705289558182E-005
                   232 -1.660448105171817E-004
                   233 -3.433279294504145E-004
                   234 -8.592160959250838E-013
                   235 -2.794125566198969E-006
                   236 -1.148941099080947E-006
                   237 -1.661271150107803E-004
                   238 -3.433471050934557E-004
                   239  3.396991563439389E-012
                   240  2.834657943276815E-006
                   241 -1.122322440776515E-006
                   242  9.569856101577515E-005
                   243 -3.356976766730991E-005
                   244 -2.115744029222348E-012
                   245 -7.112495299304674E-009
                   246  9.294091964114908E-006
 Sym= __2_A__
 Ene=   2.00000000000000     
 Spin= Alpha
 Occup=    1.00000000000000     
                     1 -4.737600850921790E-005
                     2 -9.138086978075893E-005
                     3  2.022881971849834E-003
                     4  1.279029261369759E-005
                     5  1.133116384506357E-003
                     6 -3.275297453423064E-011
                     7  6.435987463918038E-009
                     8  2.607161837332797E-003
                     9  5.274264388191532E-012
                    10 -3.841798832734906E-009
                    11 -8.584073758537665E-005
                    12  2.444502670613723E-011
                    13  2.774521814120056E-009
                    14 -2.654070863869401E-004
                    15  6.611734820987008E-005
                    16  1.812741958067197E-012
                    17  3.042318044159333E-011
                    18  6.271567408870642E-005
                    19  1.384355222648500E-012
                    20 -2.006273340186939E-004
                    21 -1.081577321387016E-012
                    22  2.113145300442502E-009
                    23 -3.165457368489520E-004
                    24 -3.109054655273184E-012
                    25  1.897557708026622E-004
                    26  1.281886139610150E-012
                    27 -5.841243631222216E-010
                    28 -8.021481211768744E-006
                    29 -3.118419585765475E-014
                    30  1.315219471803045E-012
                    31  5.773844536542639E-010
                    32   1.00107679118912     
                    33  8.921748959085008E-003
                    34  2.512147525579747E-003
                    35 -7.719619016984648E-003
                    36  1.850134080480205E-012
                    37 -3.841776655848099E-009
                    38 -3.543537753746435E-003
                    39  2.119137847096009E-012
                    40 -1.821901110277268E-009
                    41  1.149745573251927E-003
                    42  8.379692870230917E-013
                    43 -5.373226701244115E-008
                    44  3.886276115571751E-003
                    45  3.237886629540340E-004
                    46  2.941601003443514E-012
                    47 -2.482204068296573E-009
                    48 -4.354064810921826E-004
                    49 -1.604799626112141E-012
                    50  4.698328063574602E-004
                    51 -4.294848342274082E-012
                    52  1.068878573155519E-008
                    53  9.049716152389630E-004
                    54 -1.404267479885093E-011
                    55  3.052199487742487E-004
                    56 -6.662163321839047E-012
                    57  1.189707853565075E-010
                    58 -2.020308851129024E-004
                    59 -5.714569948540197E-012
                    60  3.701518588021771E-013
                    61  1.519276443490880E-009
                    62  8.959069904798833E-003
                    63 -1.979309958844820E-003
                    64 -2.588163652702071E-004
                    65  2.920822703410006E-003
                    66  5.191151243227561E-012
                    67  1.618443841958585E-004
                    68 -7.588168984608049E-005
                    69 -1.077955533311860E-011
                    70  5.499177076107988E-004
                    71 -2.900034245509118E-005
                    72  6.039130795598477E-012
                    73 -1.901030087083241E-003
                    74  1.916188287517660E-004
                    75 -2.571222442374355E-005
                    76 -1.218662773299466E-012
                    77  1.587640721727923E-005
                    78  3.013058368580410E-005
                    79  4.561538416137010E-012
                    80  7.736593133421680E-004
                    81  1.096959828035396E-011
                    82 -4.122004034261882E-004
                    83 -1.813949089160359E-005
                    84 -8.234831627430200E-012
                    85  5.856404256442582E-005
                    86 -4.871713052214524E-012
                    87  3.105124573619545E-005
                    88 -1.138268871168973E-004
                    89  5.997576813958539E-012
                    90 -2.814594316469163E-012
                    91  5.053091729828021E-005
                    92  8.959046822392170E-003
                    93 -1.979381224773636E-003
                    94 -2.588495833501408E-004
                    95  2.920965399359050E-003
                    96 -1.039756184956861E-011
                    97 -1.618436356035935E-004
                    98 -7.590269562177654E-005
                    99  1.528328133357874E-011
                   100 -5.499184968598801E-004
                   101 -2.890961110236633E-005
                   102 -8.047905502197968E-012
                   103  1.901137206894258E-003
                   104  1.914960520204947E-004
                   105 -2.570339875572685E-005
                   106 -1.597112696208073E-014
                   107 -1.588140875124171E-005
                   108  3.012923509873336E-005
                   109 -4.492722042313433E-012
                   110  7.737118489748413E-004
                   111 -8.935218376704458E-012
                   112  4.122396548422884E-004
                   113 -1.812462113312341E-005
                   114 -3.784679305688916E-012
                   115  5.855195122339185E-005
                   116  3.116679782555921E-012
                   117 -3.105047238687037E-005
                   118 -1.138248445474350E-004
                   119  2.774522842168508E-014
                   120  2.470373534951353E-012
                   121 -5.052991297152264E-005
                   122 -2.269590427297296E-004
                   123 -7.228122330423606E-004
                   124  2.351057145273864E-004
                   125 -1.145822587029454E-004
                   126  4.590080322994369E-012
                   127 -1.483109017416999E-005
                   128 -2.379009521708973E-004
                   129  2.550088677893674E-012
                   130 -1.822683481850134E-005
                   131  5.026010586007848E-004
                   132 -3.704588769904009E-012
                   133  3.182155456345057E-004
                   134  6.490650326794746E-004
                   135 -1.669412039171504E-005
                   136 -2.550039551664457E-013
                   137  3.778435080431006E-005
                   138  1.256867218270927E-005
                   139  3.796737311969693E-012
                   140 -2.998914961030669E-004
                   141  8.564258930288207E-012
                   142 -2.156478624045811E-004
                   143 -1.847303094637421E-005
                   144 -1.896659829570490E-012
                   145 -8.842779557385278E-006
                   146  3.529263873539310E-012
                   147 -3.445636618560808E-005
                   148 -3.398782734621964E-005
                   149  1.991972975446176E-012
                   150 -3.266441694763743E-013
                   151 -2.534403403000694E-006
                   152 -2.267248178910044E-004
                   153 -7.220345081317529E-004
                   154  2.351690781759708E-004
                   155 -1.154258722038689E-004
                   156  3.158712200188359E-012
                   157  1.482082773882647E-005
                   158 -2.379026404491670E-004
                   159 -7.503132943065600E-012
                   160  1.827817927064437E-005