[Molden Format]
[Atoms] AU
  N     1    7    -0.0577590800   -4.3200454900    0.0000000000        
  C     2    6     0.0293266700   -1.8135732400    0.0000000000        
  C     3    6    -2.3177975400   -0.4241530300    0.0000000000        
  C     4    6     2.3553549700   -0.3944307900    0.0000000000        
  C     5    6    -2.2902099200    2.1532980700    0.0000000000        
  C     6    6     2.2995110500    2.1823789900    0.0000000000        
  C     7    6    -0.0044511100    3.4872946700    0.0000000000        
  H     8    1    -2.2023415900   -5.5422966300    0.0000000000        
  H     9    1     1.6272642700   -5.3022747100    0.0000000000        
  H    10    1    -4.0432666700   -1.4727809600    0.0000000000        
  H    11    1     4.1095810200   -1.4028818500    0.0000000000        
  H    12    1    -4.0426949400    3.1741692200    0.0000000000        
  H    13    1     4.0371570400    3.2271640600    0.0000000000        
  H    14    1    -0.0154991600    5.5143428700    0.0000000000        
[5D]
[7F]
[GTO]
  1  0
   s    12 1.00
  0.114200D+05  0.172695D-04
  0.171200D+04  0.134411D-03
  0.389300D+03  0.694561D-03
  0.110000D+03  0.278531D-02
  0.355700D+02  0.863457D-02
  0.125400D+02  0.199805D-01
  0.464400D+01  0.262908D-01
  0.129300D+01 -0.243845D-01
  0.511800D+00 -0.924934D-01
  0.178700D+00 -0.339683D+00
  0.246240D-01  0.345111D+00
  0.112530D-01  0.752750D+00
   s    10 1.00
  0.114200D+05  0.523000D-03
  0.171200D+04  0.404500D-02
  0.389300D+03  0.207750D-01
  0.110000D+03  0.807269D-01
  0.355700D+02  0.233074D+00
  0.125400D+02  0.433501D+00
  0.464400D+01  0.347472D+00
  0.129300D+01  0.412620D-01
  0.511800D+00 -0.850799D-02
  0.178700D+00  0.238400D-02
   s    10 1.00
  0.114200D+05 -0.115000D-03
  0.171200D+04 -0.895000D-03
  0.389300D+03 -0.462400D-02
  0.110000D+03 -0.185280D-01
  0.355700D+02 -0.573390D-01
  0.125400D+02 -0.132076D+00
  0.464400D+01 -0.172510D+00
  0.129300D+01  0.151814D+00
  0.511800D+00  0.599944D+00
  0.178700D+00  0.387462D+00
   s     1 1.00
  0.129300D+01  0.100000D+01
   s     1 1.00
  0.178700D+00  0.100000D+01
   p     5 1.00
  0.266300D+02  0.146700D-01
  0.594800D+01  0.917640D-01
  0.174200D+01  0.298683D+00
  0.555000D+00  0.498487D+00
  0.172500D+00  0.337023D+00
   p     1 1.00
  0.174200D+01  0.100000D+01
   p     1 1.00
  0.555000D+00  0.100000D+01
   d     1 1.00
  0.165400D+01  0.100000D+01
   d     1 1.00
  0.469000D+00  0.100000D+01
   f     1 1.00
  0.109300D+01  0.100000D+01
  
  2  0
   s    10 1.00
  0.823600D+04  0.531000D-03
  0.123500D+04  0.410800D-02
  0.280800D+03  0.210870D-01
  0.792700D+02  0.818530D-01
  0.255900D+02  0.234817D+00
  0.899700D+01  0.434401D+00
  0.331900D+01  0.346129D+00
  0.905900D+00  0.393780D-01
  0.364300D+00 -0.898300D-02
  0.128500D+00  0.238500D-02
   s    10 1.00
  0.823600D+04 -0.113000D-03
  0.123500D+04 -0.878000D-03
  0.280800D+03 -0.454000D-02
  0.792700D+02 -0.181330D-01
  0.255900D+02 -0.557600D-01
  0.899700D+01 -0.126895D+00
  0.331900D+01 -0.170352D+00
  0.905900D+00  0.140382D+00
  0.364300D+00  0.598684D+00
  0.128500D+00  0.395389D+00
   s     1 1.00
  0.905900D+00  0.100000D+01
   s     1 1.00
  0.364300D+00  0.100000D+01
   p     5 1.00
  0.187100D+02  0.140310D-01
  0.413300D+01  0.868660D-01
  0.120000D+01  0.290216D+00
  0.382700D+00  0.501008D+00
  0.120900D+00  0.343406D+00
   p     1 1.00
  0.382700D+00  0.100000D+01
   p     1 1.00
  0.120900D+00  0.100000D+01
   d     1 1.00
  0.109700D+01  0.100000D+01
   d     1 1.00
  0.318000D+00  0.100000D+01
   f     1 1.00
  0.761000D+00  0.100000D+01
  
  3  0
   s    10 1.00
  0.823600D+04  0.531000D-03
  0.123500D+04  0.410800D-02
  0.280800D+03  0.210870D-01
  0.792700D+02  0.818530D-01
  0.255900D+02  0.234817D+00
  0.899700D+01  0.434401D+00
  0.331900D+01  0.346129D+00
  0.905900D+00  0.393780D-01
  0.364300D+00 -0.898300D-02
  0.128500D+00  0.238500D-02
   s    10 1.00
  0.823600D+04 -0.113000D-03
  0.123500D+04 -0.878000D-03
  0.280800D+03 -0.454000D-02
  0.792700D+02 -0.181330D-01
  0.255900D+02 -0.557600D-01
  0.899700D+01 -0.126895D+00
  0.331900D+01 -0.170352D+00
  0.905900D+00  0.140382D+00
  0.364300D+00  0.598684D+00
  0.128500D+00  0.395389D+00
   s     1 1.00
  0.905900D+00  0.100000D+01
   s     1 1.00
  0.364300D+00  0.100000D+01
   p     5 1.00
  0.187100D+02  0.140310D-01
  0.413300D+01  0.868660D-01
  0.120000D+01  0.290216D+00
  0.382700D+00  0.501008D+00
  0.120900D+00  0.343406D+00
   p     1 1.00
  0.382700D+00  0.100000D+01
   p     1 1.00
  0.120900D+00  0.100000D+01
   d     1 1.00
  0.109700D+01  0.100000D+01
   d     1 1.00
  0.318000D+00  0.100000D+01
   f     1 1.00
  0.761000D+00  0.100000D+01
  
  4  0
   s    10 1.00
  0.823600D+04  0.531000D-03
  0.123500D+04  0.410800D-02
  0.280800D+03  0.210870D-01
  0.792700D+02  0.818530D-01
  0.255900D+02  0.234817D+00
  0.899700D+01  0.434401D+00
  0.331900D+01  0.346129D+00
  0.905900D+00  0.393780D-01
  0.364300D+00 -0.898300D-02
  0.128500D+00  0.238500D-02
   s    10 1.00
  0.823600D+04 -0.113000D-03
  0.123500D+04 -0.878000D-03
  0.280800D+03 -0.454000D-02
  0.792700D+02 -0.181330D-01
  0.255900D+02 -0.557600D-01
  0.899700D+01 -0.126895D+00
  0.331900D+01 -0.170352D+00
  0.905900D+00  0.140382D+00
  0.364300D+00  0.598684D+00
  0.128500D+00  0.395389D+00
   s     1 1.00
  0.905900D+00  0.100000D+01
   s     1 1.00
  0.364300D+00  0.100000D+01
   p     5 1.00
  0.187100D+02  0.140310D-01
  0.413300D+01  0.868660D-01
  0.120000D+01  0.290216D+00
  0.382700D+00  0.501008D+00
  0.120900D+00  0.343406D+00
   p     1 1.00
  0.382700D+00  0.100000D+01
   p     1 1.00
  0.120900D+00  0.100000D+01
   d     1 1.00
  0.109700D+01  0.100000D+01
   d     1 1.00
  0.318000D+00  0.100000D+01
   f     1 1.00
  0.761000D+00  0.100000D+01
  
  5  0
   s    10 1.00
  0.823600D+04  0.531000D-03
  0.123500D+04  0.410800D-02
  0.280800D+03  0.210870D-01
  0.792700D+02  0.818530D-01
  0.255900D+02  0.234817D+00
  0.899700D+01  0.434401D+00
  0.331900D+01  0.346129D+00
  0.905900D+00  0.393780D-01
  0.364300D+00 -0.898300D-02
  0.128500D+00  0.238500D-02
   s    10 1.00
  0.823600D+04 -0.113000D-03
  0.123500D+04 -0.878000D-03
  0.280800D+03 -0.454000D-02
  0.792700D+02 -0.181330D-01
  0.255900D+02 -0.557600D-01
  0.899700D+01 -0.126895D+00
  0.331900D+01 -0.170352D+00
  0.905900D+00  0.140382D+00
  0.364300D+00  0.598684D+00
  0.128500D+00  0.395389D+00
   s     1 1.00
  0.905900D+00  0.100000D+01
   s     1 1.00
  0.364300D+00  0.100000D+01
   p     5 1.00
  0.187100D+02  0.140310D-01
  0.413300D+01  0.868660D-01
  0.120000D+01  0.290216D+00
  0.382700D+00  0.501008D+00
  0.120900D+00  0.343406D+00
   p     1 1.00
  0.382700D+00  0.100000D+01
   p     1 1.00
  0.120900D+00  0.100000D+01
   d     1 1.00
  0.109700D+01  0.100000D+01
   d     1 1.00
  0.318000D+00  0.100000D+01
   f     1 1.00
  0.761000D+00  0.100000D+01
  
  6  0
   s    10 1.00
  0.823600D+04  0.531000D-03
  0.123500D+04  0.410800D-02
  0.280800D+03  0.210870D-01
  0.792700D+02  0.818530D-01
  0.255900D+02  0.234817D+00
  0.899700D+01  0.434401D+00
  0.331900D+01  0.346129D+00
  0.905900D+00  0.393780D-01
  0.364300D+00 -0.898300D-02
  0.128500D+00  0.238500D-02
   s    10 1.00
  0.823600D+04 -0.113000D-03
  0.123500D+04 -0.878000D-03
  0.280800D+03 -0.454000D-02
  0.792700D+02 -0.181330D-01
  0.255900D+02 -0.557600D-01
  0.899700D+01 -0.126895D+00
  0.331900D+01 -0.170352D+00
  0.905900D+00  0.140382D+00
  0.364300D+00  0.598684D+00
  0.128500D+00  0.395389D+00
   s     1 1.00
  0.905900D+00  0.100000D+01
   s     1 1.00
  0.364300D+00  0.100000D+01
   p     5 1.00
  0.187100D+02  0.140310D-01
  0.413300D+01  0.868660D-01
  0.120000D+01  0.290216D+00
  0.382700D+00  0.501008D+00
  0.120900D+00  0.343406D+00
   p     1 1.00
  0.382700D+00  0.100000D+01
   p     1 1.00
  0.120900D+00  0.100000D+01
   d     1 1.00
  0.109700D+01  0.100000D+01
   d     1 1.00
  0.318000D+00  0.100000D+01
   f     1 1.00
  0.761000D+00  0.100000D+01
  
  7  0
   s    10 1.00
  0.823600D+04  0.531000D-03
  0.123500D+04  0.410800D-02
  0.280800D+03  0.210870D-01
  0.792700D+02  0.818530D-01
  0.255900D+02  0.234817D+00
  0.899700D+01  0.434401D+00
  0.331900D+01  0.346129D+00
  0.905900D+00  0.393780D-01
  0.364300D+00 -0.898300D-02
  0.128500D+00  0.238500D-02
   s    10 1.00
  0.823600D+04 -0.113000D-03
  0.123500D+04 -0.878000D-03
  0.280800D+03 -0.454000D-02
  0.792700D+02 -0.181330D-01
  0.255900D+02 -0.557600D-01
  0.899700D+01 -0.126895D+00
  0.331900D+01 -0.170352D+00
  0.905900D+00  0.140382D+00
  0.364300D+00  0.598684D+00
  0.128500D+00  0.395389D+00
   s     1 1.00
  0.905900D+00  0.100000D+01
   s     1 1.00
  0.364300D+00  0.100000D+01
   p     5 1.00
  0.187100D+02  0.140310D-01
  0.413300D+01  0.868660D-01
  0.120000D+01  0.290216D+00
  0.382700D+00  0.501008D+00
  0.120900D+00  0.343406D+00
   p     1 1.00
  0.382700D+00  0.100000D+01
   p     1 1.00
  0.120900D+00  0.100000D+01
   d     1 1.00
  0.109700D+01  0.100000D+01
   d     1 1.00
  0.318000D+00  0.100000D+01
   f     1 1.00
  0.761000D+00  0.100000D+01
  
  8  0
   s     4 1.00
  0.130100D+02  0.196850D-01
  0.196200D+01  0.137977D+00
  0.444600D+00  0.478148D+00
  0.122000D+00  0.501240D+00
   s     1 1.00
  0.122000D+00  0.100000D+01
   p     1 1.00
  0.727000D+00  0.100000D+01
  
  9  0
   s     4 1.00
  0.130100D+02  0.196850D-01
  0.196200D+01  0.137977D+00
  0.444600D+00  0.478148D+00
  0.122000D+00  0.501240D+00
   s     1 1.00
  0.122000D+00  0.100000D+01
   p     1 1.00
  0.727000D+00  0.100000D+01
  
 10  0
   s     4 1.00
  0.130100D+02  0.196850D-01
  0.196200D+01  0.137977D+00
  0.444600D+00  0.478148D+00
  0.122000D+00  0.501240D+00
   s     1 1.00
  0.122000D+00  0.100000D+01
   p     1 1.00
  0.727000D+00  0.100000D+01
  
 11  0
   s     4 1.00
  0.130100D+02  0.196850D-01
  0.196200D+01  0.137977D+00
  0.444600D+00  0.478148D+00
  0.122000D+00  0.501240D+00
   s     1 1.00
  0.122000D+00  0.100000D+01
   p     1 1.00
  0.727000D+00  0.100000D+01
  
 12  0
   s     4 1.00
  0.130100D+02  0.196850D-01
  0.196200D+01  0.137977D+00
  0.444600D+00  0.478148D+00
  0.122000D+00  0.501240D+00
   s     1 1.00
  0.122000D+00  0.100000D+01
   p     1 1.00
  0.727000D+00  0.100000D+01
  
 13  0
   s     4 1.00
  0.130100D+02  0.196850D-01
  0.196200D+01  0.137977D+00
  0.444600D+00  0.478148D+00
  0.122000D+00  0.501240D+00
   s     1 1.00
  0.122000D+00  0.100000D+01
   p     1 1.00
  0.727000D+00  0.100000D+01
  
 14  0
   s     4 1.00
  0.130100D+02  0.196850D-01
  0.196200D+01  0.137977D+00
  0.444600D+00  0.478148D+00
  0.122000D+00  0.501240D+00
   s     1 1.00
  0.122000D+00  0.100000D+01
   p     1 1.00
  0.727000D+00  0.100000D+01
  
[MO]
 Sym= __1_A__
 Ene=  0.000000000000000E+000
 Spin= Alpha
 Occup=    2.00000000000000     
                     1  5.903058622326991E-006
                     2  0.998407563540870     
                     3  5.004329155279726E-003
                     4  1.743384094693119E-003
                     5  3.076375311534355E-003
                     6  1.704218468955477E-003
                     7  5.478848882289604E-003
                     8  1.015364739883091E-011
                     9 -1.098293221071362E-004
                    10 -2.841017361019863E-004
                    11  2.778650470345362E-012
                    12 -8.433768692921378E-004
                    13 -8.419779924299444E-004
                    14 -3.171618013074264E-013
                    15 -1.523073422310001E-004
                    16 -7.527626402167652E-013
                    17 -1.906445191699087E-012
                    18 -1.997722120493822E-004
                    19 -5.754706985808944E-005
                    20  3.225294231605805E-004
                    21  6.622718887937357E-013
                    22 -1.855676673258845E-012
                    23 -3.793483802641856E-004
                    24  1.908424647250486E-004
                    25 -8.552150271700305E-013
                    26 -2.008226492698821E-005
                    27 -5.977218091401238E-005
                    28 -1.374409824509440E-013
                    29  5.602527423093831E-013
                    30  1.801434072253091E-005
                    31 -1.377196047212425E-004
                    32 -3.378897050790681E-004
                    33  2.153610408941660E-003
                    34  2.044330352683443E-004
                    35 -3.180598172713440E-004
                    36 -1.882685610493468E-004
                    37 -5.814704496797366E-003
                    38  6.512765741305157E-012
                    39  1.077309425529956E-004
                    40  3.144149551333119E-004
                    41  7.651921352265543E-012
                    42 -7.154469936456519E-004
                    43  4.892585447329392E-003
                    44 -5.682893506726263E-012
                    45 -3.547235785555721E-005
                    46  2.520427201466293E-012
                    47 -1.515200662017838E-012
                    48 -2.921385515337708E-004
                    49 -1.257556836477634E-005
                    50 -3.448648237943792E-004
                    51 -8.391165340504973E-012
                    52  1.235670457646873E-011
                    53  6.018857266858890E-005
                    54  2.299999823174341E-004
                    55 -3.200591401806075E-012
                    56 -3.045990726986459E-006
                    57 -2.680859761607795E-005
                    58  3.770183583682146E-012
                    59  4.160453158809638E-014
                    60  4.016191074017504E-005
                    61 -1.215159380209009E-004
                    62 -2.889496529603569E-004
                    63 -1.634705039123698E-003
                    64 -5.063312080768970E-006
                    65  1.061822091726593E-003
                    66 -6.784420826479450E-004
                    67  6.256429327017609E-004
                    68 -5.300596610254941E-012
                    69  9.519990191837562E-005
                    70  6.986049181559105E-004
                    71  2.010455096114800E-012
                    72 -1.239259410531427E-003
                    73  2.748372477528922E-004
                    74  1.335411999974514E-012
                    75 -2.301171193874667E-005
                    76 -6.449689734197501E-013
                    77 -3.355665720904665E-012
                    78 -7.436905521206979E-005
                    79 -1.085667309613245E-005
                    80 -5.110587670267617E-005
                    81 -6.647143722851838E-012
                    82  7.995840585755093E-012
                    83 -2.559016058976024E-005
                    84  1.219910007510336E-004
                    85 -1.735952110777613E-013
                    86  1.637083547195553E-005
                    87 -4.648917797862467E-005
                    88 -7.868728910358492E-013
                    89  8.651801343926247E-013
                    90 -3.692896857905619E-005
                    91 -1.078299609904167E-004
                    92 -2.259811330084267E-004
                    93 -1.552252144906429E-003
                    94  1.122082576711199E-004
                    95  3.815918902451482E-004
                    96  7.277625079085224E-004
                    97  8.540362489368915E-004
                    98 -8.524401011470266E-012
                    99  1.250484443877067E-004
                   100  4.447462051680339E-004
                   101  8.131074520599953E-012
                   102  5.599054906623344E-004
                   103 -7.535985623769187E-004
                   104  9.592631734273140E-012
                   105 -9.067253305569348E-006
                   106 -6.959695949633127E-013
                   107  7.084945695517091E-013
                   108 -9.188997908572990E-005
                   109 -1.624230389005121E-006
                   110  2.262845787858007E-005
                   111  1.421704199367344E-012
                   112  1.644527883838399E-012
                   113 -2.119114779306400E-005
                   114 -9.357258110084675E-005
                   115 -2.686004309630227E-012
                   116 -2.160113067330779E-005
                   117 -3.259375091439304E-005
                   118 -1.804331463828731E-012
                   119  1.361898607653096E-012
                   120 -5.488909936446760E-006
                   121 -6.722787052718946E-005
                   122 -1.928359167294318E-004
                   123 -2.715761336418383E-004
                   124  1.333489856176862E-004
                   125  1.915503096571947E-004
                   126  1.032435714229777E-005
                   127 -6.039816223283155E-004
                   128  1.070654774240352E-011
                   129  1.148281138154975E-004
                   130  4.792167197860059E-004
                   131 -1.162165242343243E-011
                   132  1.715714307446835E-004
                   133  1.226998722964604E-003
                   134 -6.197760765018400E-012
                   135  1.240883802647283E-005
                   136  3.148995555024783E-012
                   137  1.802887554939113E-012
                   138  2.612214109665994E-005
                   139 -6.383025884970119E-007
                   140  1.279254064739747E-004
                   141  1.322084676752461E-012
                   142  3.823156885284970E-012
                   143  2.471116357623404E-004
                   144  1.724870098877020E-004
                   145  1.781071691662093E-012
                   146 -7.761274024078784E-006
                   147 -4.210454788712004E-005
                   148 -1.341465002747407E-012
                   149 -2.435375592344232E-013
                   150  2.882298914495131E-006
                   151 -3.052470129856220E-005
                   152 -1.701836008602233E-004
                   153 -1.596173044137040E-004
                   154  8.463853045412163E-005
                   155  2.686782937289603E-004
                   156 -2.790004417493731E-005
                   157 -6.241655274178965E-004
                   158  5.575542505099457E-012
                   159 -1.763026627006109E-005
                   160  1.977890503278177E-004
                   161 -9.906035479437508E-012
                   162  4.647632893072655E-004
                   163  3.364592567646018E-004
                   164 -1.183314431509965E-011
                   165  2.589005415739460E-006
                   166 -3.381092643654221E-012
                   167 -1.753165894056171E-012
                   168  7.639235379916514E-006
                   169 -8.917766719175367E-007
                   170  1.098004261793969E-004
                   171  1.820942173965728E-012
                   172  3.560103952580670E-012
                   173  9.394168576042003E-005
                   174 -1.072857986225244E-004
                   175 -1.034121250159086E-012
                   176  2.145662547702823E-006
                   177 -2.317275799295390E-005
                   178 -2.813377303768616E-014
                   179  1.730211355860885E-012
                   180 -1.101326148637000E-006
                   181 -2.399014933346835E-005
                   182 -1.418581996139389E-004
                   183 -3.961081837758069E-004
                   184  4.045086059111457E-005
                   185  1.874375826540239E-004
                   186 -2.018179165694282E-005
                   187 -4.453012052227426E-005
                   188 -5.390047519675723E-012
                   189  1.096279647278267E-004
                   190  4.403203947436825E-005
                   191  2.501809601614247E-012
                   192  5.343719027673439E-004
                   193 -7.157929578647118E-005
                   194 -2.877554399526319E-012
                   195 -8.322719114748554E-007
                   196 -1.571449282511130E-012
                   197  8.048845028525369E-013
                   198 -1.602596915202999E-005
                   199 -9.163504742992237E-009
                   200  1.195545906258008E-005
                   201  2.899674383953846E-012
                   202 -5.566319537945524E-012
                   203 -7.989661085555631E-005
                   204 -7.871530366427644E-005
                   205  2.322249010007164E-012
                   206 -4.566080768134255E-006
                   207 -5.297646398007913E-006
                   208 -1.496800797369258E-012
                   209  1.038187810843468E-012
                   210 -9.697940154160414E-007
                   211 -6.988982061727866E-006
                   212  6.103321154161175E-004
                   213 -5.179639089096850E-004
                   214  2.941499942800126E-004
                   215  2.339399946319176E-004
                   216 -5.868760545178341E-013
                   217  2.727301116961289E-003
                   218 -1.859225891415132E-003
                   219 -4.093423872200611E-004
                   220  3.124238580320505E-004
                   221 -2.602983807632540E-012
                   222 -4.469716894422487E-004
                   223 -4.931407076950239E-004
                   224 -1.334855440638811E-005
                   225 -3.961995795421651E-005
                   226  2.817386463413006E-014
                   227 -4.588507042824251E-004
                   228 -2.855058876879732E-004
                   229 -8.816358009494967E-007
                   230 -4.103934620871901E-005
                   231  2.470952931143405E-012
                   232 -1.559875902779049E-004
                   233 -4.052464266043846E-004
                   234 -2.198653184602084E-006
                   235  4.445044505002991E-006
                   236 -1.632239322837436E-012
                   237 -1.751586280836075E-004
                   238 -4.497083814789921E-004
                   239  2.700247611171343E-006
                   240 -1.411746858780992E-006
                   241 -2.097477201743310E-012
                   242  3.476471797567934E-005
                   243 -6.961070578773156E-005
                   244  1.217270439819465E-006
                   245  1.854905323016825E-005
                   246  4.365077043465335E-013
 Sym= __2_A__
 Ene=  0.000000000000000E+000
 Spin= Alpha
 Occup=    2.00000000000000     
                     1 -5.500771880863051E-005
                     2 -2.702116843689106E-004
                     3  2.643883113941538E-003
                     4  1.260050500293667E-004
                     5  1.318438147514265E-003
                     6 -1.631241728245890E-004
                     7  3.184803720964253E-003
                     8  5.374644879485781E-012
                     9 -4.407445863412140E-006
                    10 -8.096075856545834E-005
                    11  6.437154189247034E-012
                    12  1.069648875197123E-005
                    13 -4.952748866913365E-004
                    14 -4.243713076753704E-012
                    15  3.705629701503104E-005
                    16  2.090568603851964E-013
                    17 -1.861072558289081E-012
                    18 -6.521947954278263E-005
                    19  8.294127765835410E-006
                    20 -1.388711905049132E-004
                    21 -5.542232529578959E-013
                    22  3.525609768476881E-012
                    23  2.764609150194214E-004
                    24 -8.974290200284778E-005
                    25  3.894983701535505E-012
                    26 -9.348504068235990E-006
                    27  1.053701528290509E-004
                    28 -4.694355638512260E-012
                    29 -3.104429276601533E-014
                    30 -4.471002119547808E-005
                    31  1.381871538009068E-004
                    32   1.00104125783293     
                    33  9.344666651283896E-003
                    34  2.629863882337171E-003
                    35 -7.815349091173028E-003
                    36 -1.749549602406223E-005
                    37 -4.059104629733261E-003
                    38  8.100586931608834E-013
                    39 -1.626625157164568E-004
                    40  7.338562630656523E-004
                    41  1.229822008735958E-011
                    42 -6.774786851406701E-005
                    43  4.418683925811069E-003
                    44 -8.338190411040134E-012
                    45 -5.882196099397115E-004
                    46  1.617528137027179E-012
                    47 -2.131172118222381E-012
                    48 -2.357458179323170E-004
                    49  3.657497021264055E-005
                    50  4.992566848502942E-004
                    51 -3.424571728122625E-012
                    52  8.355420574235332E-012
                    53 -7.709639454787648E-004
                    54 -2.687983232739635E-004
                    55  2.601802116226209E-013
                    56  1.013325006177338E-005
                    57  8.915730048513455E-005
                    58  1.840482685265595E-012
                    59 -8.238925392605451E-013
                    60 -2.818106420373590E-005
                    61  4.173216573688484E-004
                    62  7.238699873796600E-003
                    63 -2.057289307370020E-003
                    64 -2.359182286327804E-004
                    65  2.752321961960194E-003
                    66  4.997685637842896E-005
                    67  3.033592615495604E-005
                    68 -1.614881213186657E-011
                    69  5.096823281670192E-004
                    70  1.169340956460087E-004
                    71  1.113568732697370E-011
                    72 -2.150713901700696E-003
                    73  2.272638970832843E-004
                    74  5.754741123301995E-012
                    75  3.525192720232443E-005
                    76 -1.484669530883277E-012
                    77  7.276939727198679E-013
                    78 -5.233029094910944E-006
                    79  7.628004529834373E-006
                    80 -3.899718804657778E-004
                    81 -1.387432172242875E-011
                    82  4.208900691793422E-012
                    83 -6.477564471673316E-004
                    84 -3.095842503895942E-004
                    85 -2.356425860811805E-012
                    86  3.171150184092030E-005
                    87 -5.541019680890694E-005
                    88 -7.732916448504630E-013
                    89  4.923538208506978E-012
                    90  5.355938273876663E-005
                    91  1.465767727313501E-004
                    92  7.853741271387027E-003
                    93 -2.108784502959034E-003
                    94 -2.970030239587125E-004
                    95  3.128993581480595E-003
                    96  1.735119576441698E-005
                    97  2.826707488526582E-005
                    98  8.972424959036785E-012
                    99 -8.022738508486588E-004
                   100  4.424083304491008E-005
                   101 -5.420887068487695E-012
                   102  1.926988183296241E-003
                   103  6.882834290248950E-005
                   104  1.045608963767224E-011
                   105  2.654676092450065E-005
                   106  1.577238072158572E-012
                   107 -2.190939465771137E-012
                   108 -2.061634290176418E-006
                   109  1.218230806517749E-006
                   110 -4.053274049596028E-004
                   111  2.905945645227616E-012
                   112  8.169018633376540E-012
                   113 -4.858521060104344E-004
                   114  3.215843543266720E-004
                   115  1.861036964539848E-012
                   116 -3.045860061802075E-005
                   117 -6.412063978802367E-005
                   118 -2.659792642266000E-012
                   119  1.852602821277529E-012
                   120 -2.742845193257174E-005
                   121  1.364130547371003E-004
                   122 -2.401561323213001E-004
                   123 -7.374342055684333E-004
                   124  2.241200660512072E-004
                   125 -9.219728899616025E-005
                   126 -3.672123741955963E-006
                   127 -3.033015242232028E-004
                   128  7.871322765937911E-012
                   129 -5.449224713192881E-005
                   130  5.564368640457526E-004
                   131 -3.888245738002075E-012
                   132  3.691471562128301E-004
                   133  8.622353343309592E-004
                   134 -7.189625439610848E-012
                   135  1.738487196044495E-005
                   136 -1.054773164314710E-014
                   137 -1.656152561956134E-012
                   138  2.655689012354406E-006
                   139  4.752536494063931E-005
                   140  1.309677415495402E-004
                   141  3.684998136328991E-012
                   142 -8.139918596644752E-013
                   143  2.540295051956500E-004
                   144 -1.569993617657396E-004
                   145 -1.158897410567613E-012
                   146  8.049633701534136E-006
                   147 -3.368748580659080E-005
                   148  1.189793497282800E-012
                   149 -3.212526916197703E-013
                   150 -4.494352517919680E-005
                   151  3.265638095954515E-005
                   152 -2.029763335999838E-004
                   153 -7.221014683643406E-004
                   154  2.309647663334886E-004
                   155 -6.354625199622681E-005
                   156 -1.041114755574754E-005
                   157 -3.088551490677116E-004
                   158 -1.679479774624016E-011
                   159  8.511616851800011E-005
                   160  5.334123631275275E-004