[Molden Format]
[Atoms] AU
  N     1    7    -0.0599681700   -4.3145907800    0.0000000000        
  C     2    6     0.0301223600   -1.8196570200    0.0000000000        
  C     3    6    -2.3140760900   -0.4264624400    0.0000000000        
  C     4    6     2.3521371500   -0.3970126700    0.0000000000        
  C     5    6    -2.2868474500    2.1532030400    0.0000000000        
  C     6    6     2.2963187700    2.1839589100    0.0000000000        
  C     7    6    -0.0038303600    3.4841852700    0.0000000000        
  H     8    1    -2.2159066200   -5.5422928300    0.0000000000        
  H     9    1     1.6405405100   -5.2833676800    0.0000000000        
  H    10    1    -4.0397713900   -1.4740548200    0.0000000000        
  H    11    1     4.1071306200   -1.4037633700    0.0000000000        
  H    12    1    -4.0399832000    3.1730368400    0.0000000000        
  H    13    1     4.0342842400    3.2279867100    0.0000000000        
  H    14    1    -0.0155291200    5.5116529400    0.0000000000        
[5D]
[7F]
[GTO]
  1  0
   s    12 1.00
  0.114200D+05  0.172695D-04
  0.171200D+04  0.134411D-03
  0.389300D+03  0.694561D-03
  0.110000D+03  0.278531D-02
  0.355700D+02  0.863457D-02
  0.125400D+02  0.199805D-01
  0.464400D+01  0.262908D-01
  0.129300D+01 -0.243845D-01
  0.511800D+00 -0.924934D-01
  0.178700D+00 -0.339683D+00
  0.246240D-01  0.345111D+00
  0.112530D-01  0.752750D+00
   s    10 1.00
  0.114200D+05  0.523000D-03
  0.171200D+04  0.404500D-02
  0.389300D+03  0.207750D-01
  0.110000D+03  0.807269D-01
  0.355700D+02  0.233074D+00
  0.125400D+02  0.433501D+00
  0.464400D+01  0.347472D+00
  0.129300D+01  0.412620D-01
  0.511800D+00 -0.850799D-02
  0.178700D+00  0.238400D-02
   s    10 1.00
  0.114200D+05 -0.115000D-03
  0.171200D+04 -0.895000D-03
  0.389300D+03 -0.462400D-02
  0.110000D+03 -0.185280D-01
  0.355700D+02 -0.573390D-01
  0.125400D+02 -0.132076D+00
  0.464400D+01 -0.172510D+00
  0.129300D+01  0.151814D+00
  0.511800D+00  0.599944D+00
  0.178700D+00  0.387462D+00
   s     1 1.00
  0.129300D+01  0.100000D+01
   s     1 1.00
  0.178700D+00  0.100000D+01
   p     5 1.00
  0.266300D+02  0.146700D-01
  0.594800D+01  0.917640D-01
  0.174200D+01  0.298683D+00
  0.555000D+00  0.498487D+00
  0.172500D+00  0.337023D+00
   p     1 1.00
  0.174200D+01  0.100000D+01
   p     1 1.00
  0.555000D+00  0.100000D+01
   d     1 1.00
  0.165400D+01  0.100000D+01
   d     1 1.00
  0.469000D+00  0.100000D+01
   f     1 1.00
  0.109300D+01  0.100000D+01
  
  2  0
   s    10 1.00
  0.823600D+04  0.531000D-03
  0.123500D+04  0.410800D-02
  0.280800D+03  0.210870D-01
  0.792700D+02  0.818530D-01
  0.255900D+02  0.234817D+00
  0.899700D+01  0.434401D+00
  0.331900D+01  0.346129D+00
  0.905900D+00  0.393780D-01
  0.364300D+00 -0.898300D-02
  0.128500D+00  0.238500D-02
   s    10 1.00
  0.823600D+04 -0.113000D-03
  0.123500D+04 -0.878000D-03
  0.280800D+03 -0.454000D-02
  0.792700D+02 -0.181330D-01
  0.255900D+02 -0.557600D-01
  0.899700D+01 -0.126895D+00
  0.331900D+01 -0.170352D+00
  0.905900D+00  0.140382D+00
  0.364300D+00  0.598684D+00
  0.128500D+00  0.395389D+00
   s     1 1.00
  0.905900D+00  0.100000D+01
   s     1 1.00
  0.364300D+00  0.100000D+01
   p     5 1.00
  0.187100D+02  0.140310D-01
  0.413300D+01  0.868660D-01
  0.120000D+01  0.290216D+00
  0.382700D+00  0.501008D+00
  0.120900D+00  0.343406D+00
   p     1 1.00
  0.382700D+00  0.100000D+01
   p     1 1.00
  0.120900D+00  0.100000D+01
   d     1 1.00
  0.109700D+01  0.100000D+01
   d     1 1.00
  0.318000D+00  0.100000D+01
   f     1 1.00
  0.761000D+00  0.100000D+01
  
  3  0
   s    10 1.00
  0.823600D+04  0.531000D-03
  0.123500D+04  0.410800D-02
  0.280800D+03  0.210870D-01
  0.792700D+02  0.818530D-01
  0.255900D+02  0.234817D+00
  0.899700D+01  0.434401D+00
  0.331900D+01  0.346129D+00
  0.905900D+00  0.393780D-01
  0.364300D+00 -0.898300D-02
  0.128500D+00  0.238500D-02
   s    10 1.00
  0.823600D+04 -0.113000D-03
  0.123500D+04 -0.878000D-03
  0.280800D+03 -0.454000D-02
  0.792700D+02 -0.181330D-01
  0.255900D+02 -0.557600D-01
  0.899700D+01 -0.126895D+00
  0.331900D+01 -0.170352D+00
  0.905900D+00  0.140382D+00
  0.364300D+00  0.598684D+00
  0.128500D+00  0.395389D+00
   s     1 1.00
  0.905900D+00  0.100000D+01
   s     1 1.00
  0.364300D+00  0.100000D+01
   p     5 1.00
  0.187100D+02  0.140310D-01
  0.413300D+01  0.868660D-01
  0.120000D+01  0.290216D+00
  0.382700D+00  0.501008D+00
  0.120900D+00  0.343406D+00
   p     1 1.00
  0.382700D+00  0.100000D+01
   p     1 1.00
  0.120900D+00  0.100000D+01
   d     1 1.00
  0.109700D+01  0.100000D+01
   d     1 1.00
  0.318000D+00  0.100000D+01
   f     1 1.00
  0.761000D+00  0.100000D+01
  
  4  0
   s    10 1.00
  0.823600D+04  0.531000D-03
  0.123500D+04  0.410800D-02
  0.280800D+03  0.210870D-01
  0.792700D+02  0.818530D-01
  0.255900D+02  0.234817D+00
  0.899700D+01  0.434401D+00
  0.331900D+01  0.346129D+00
  0.905900D+00  0.393780D-01
  0.364300D+00 -0.898300D-02
  0.128500D+00  0.238500D-02
   s    10 1.00
  0.823600D+04 -0.113000D-03
  0.123500D+04 -0.878000D-03
  0.280800D+03 -0.454000D-02
  0.792700D+02 -0.181330D-01
  0.255900D+02 -0.557600D-01
  0.899700D+01 -0.126895D+00
  0.331900D+01 -0.170352D+00
  0.905900D+00  0.140382D+00
  0.364300D+00  0.598684D+00
  0.128500D+00  0.395389D+00
   s     1 1.00
  0.905900D+00  0.100000D+01
   s     1 1.00
  0.364300D+00  0.100000D+01
   p     5 1.00
  0.187100D+02  0.140310D-01
  0.413300D+01  0.868660D-01
  0.120000D+01  0.290216D+00
  0.382700D+00  0.501008D+00
  0.120900D+00  0.343406D+00
   p     1 1.00
  0.382700D+00  0.100000D+01
   p     1 1.00
  0.120900D+00  0.100000D+01
   d     1 1.00
  0.109700D+01  0.100000D+01
   d     1 1.00
  0.318000D+00  0.100000D+01
   f     1 1.00
  0.761000D+00  0.100000D+01
  
  5  0
   s    10 1.00
  0.823600D+04  0.531000D-03
  0.123500D+04  0.410800D-02
  0.280800D+03  0.210870D-01
  0.792700D+02  0.818530D-01
  0.255900D+02  0.234817D+00
  0.899700D+01  0.434401D+00
  0.331900D+01  0.346129D+00
  0.905900D+00  0.393780D-01
  0.364300D+00 -0.898300D-02
  0.128500D+00  0.238500D-02
   s    10 1.00
  0.823600D+04 -0.113000D-03
  0.123500D+04 -0.878000D-03
  0.280800D+03 -0.454000D-02
  0.792700D+02 -0.181330D-01
  0.255900D+02 -0.557600D-01
  0.899700D+01 -0.126895D+00
  0.331900D+01 -0.170352D+00
  0.905900D+00  0.140382D+00
  0.364300D+00  0.598684D+00
  0.128500D+00  0.395389D+00
   s     1 1.00
  0.905900D+00  0.100000D+01
   s     1 1.00
  0.364300D+00  0.100000D+01
   p     5 1.00
  0.187100D+02  0.140310D-01
  0.413300D+01  0.868660D-01
  0.120000D+01  0.290216D+00
  0.382700D+00  0.501008D+00
  0.120900D+00  0.343406D+00
   p     1 1.00
  0.382700D+00  0.100000D+01
   p     1 1.00
  0.120900D+00  0.100000D+01
   d     1 1.00
  0.109700D+01  0.100000D+01
   d     1 1.00
  0.318000D+00  0.100000D+01
   f     1 1.00
  0.761000D+00  0.100000D+01
  
  6  0
   s    10 1.00
  0.823600D+04  0.531000D-03
  0.123500D+04  0.410800D-02
  0.280800D+03  0.210870D-01
  0.792700D+02  0.818530D-01
  0.255900D+02  0.234817D+00
  0.899700D+01  0.434401D+00
  0.331900D+01  0.346129D+00
  0.905900D+00  0.393780D-01
  0.364300D+00 -0.898300D-02
  0.128500D+00  0.238500D-02
   s    10 1.00
  0.823600D+04 -0.113000D-03
  0.123500D+04 -0.878000D-03
  0.280800D+03 -0.454000D-02
  0.792700D+02 -0.181330D-01
  0.255900D+02 -0.557600D-01
  0.899700D+01 -0.126895D+00
  0.331900D+01 -0.170352D+00
  0.905900D+00  0.140382D+00
  0.364300D+00  0.598684D+00
  0.128500D+00  0.395389D+00
   s     1 1.00
  0.905900D+00  0.100000D+01
   s     1 1.00
  0.364300D+00  0.100000D+01
   p     5 1.00
  0.187100D+02  0.140310D-01
  0.413300D+01  0.868660D-01
  0.120000D+01  0.290216D+00
  0.382700D+00  0.501008D+00
  0.120900D+00  0.343406D+00
   p     1 1.00
  0.382700D+00  0.100000D+01
   p     1 1.00
  0.120900D+00  0.100000D+01
   d     1 1.00
  0.109700D+01  0.100000D+01
   d     1 1.00
  0.318000D+00  0.100000D+01
   f     1 1.00
  0.761000D+00  0.100000D+01
  
  7  0
   s    10 1.00
  0.823600D+04  0.531000D-03
  0.123500D+04  0.410800D-02
  0.280800D+03  0.210870D-01
  0.792700D+02  0.818530D-01
  0.255900D+02  0.234817D+00
  0.899700D+01  0.434401D+00
  0.331900D+01  0.346129D+00
  0.905900D+00  0.393780D-01
  0.364300D+00 -0.898300D-02
  0.128500D+00  0.238500D-02
   s    10 1.00
  0.823600D+04 -0.113000D-03
  0.123500D+04 -0.878000D-03
  0.280800D+03 -0.454000D-02
  0.792700D+02 -0.181330D-01
  0.255900D+02 -0.557600D-01
  0.899700D+01 -0.126895D+00
  0.331900D+01 -0.170352D+00
  0.905900D+00  0.140382D+00
  0.364300D+00  0.598684D+00
  0.128500D+00  0.395389D+00
   s     1 1.00
  0.905900D+00  0.100000D+01
   s     1 1.00
  0.364300D+00  0.100000D+01
   p     5 1.00
  0.187100D+02  0.140310D-01
  0.413300D+01  0.868660D-01
  0.120000D+01  0.290216D+00
  0.382700D+00  0.501008D+00
  0.120900D+00  0.343406D+00
   p     1 1.00
  0.382700D+00  0.100000D+01
   p     1 1.00
  0.120900D+00  0.100000D+01
   d     1 1.00
  0.109700D+01  0.100000D+01
   d     1 1.00
  0.318000D+00  0.100000D+01
   f     1 1.00
  0.761000D+00  0.100000D+01
  
  8  0
   s     4 1.00
  0.130100D+02  0.196850D-01
  0.196200D+01  0.137977D+00
  0.444600D+00  0.478148D+00
  0.122000D+00  0.501240D+00
   s     1 1.00
  0.122000D+00  0.100000D+01
   p     1 1.00
  0.727000D+00  0.100000D+01
  
  9  0
   s     4 1.00
  0.130100D+02  0.196850D-01
  0.196200D+01  0.137977D+00
  0.444600D+00  0.478148D+00
  0.122000D+00  0.501240D+00
   s     1 1.00
  0.122000D+00  0.100000D+01
   p     1 1.00
  0.727000D+00  0.100000D+01
  
 10  0
   s     4 1.00
  0.130100D+02  0.196850D-01
  0.196200D+01  0.137977D+00
  0.444600D+00  0.478148D+00
  0.122000D+00  0.501240D+00
   s     1 1.00
  0.122000D+00  0.100000D+01
   p     1 1.00
  0.727000D+00  0.100000D+01
  
 11  0
   s     4 1.00
  0.130100D+02  0.196850D-01
  0.196200D+01  0.137977D+00
  0.444600D+00  0.478148D+00
  0.122000D+00  0.501240D+00
   s     1 1.00
  0.122000D+00  0.100000D+01
   p     1 1.00
  0.727000D+00  0.100000D+01
  
 12  0
   s     4 1.00
  0.130100D+02  0.196850D-01
  0.196200D+01  0.137977D+00
  0.444600D+00  0.478148D+00
  0.122000D+00  0.501240D+00
   s     1 1.00
  0.122000D+00  0.100000D+01
   p     1 1.00
  0.727000D+00  0.100000D+01
  
 13  0
   s     4 1.00
  0.130100D+02  0.196850D-01
  0.196200D+01  0.137977D+00
  0.444600D+00  0.478148D+00
  0.122000D+00  0.501240D+00
   s     1 1.00
  0.122000D+00  0.100000D+01
   p     1 1.00
  0.727000D+00  0.100000D+01
  
 14  0
   s     4 1.00
  0.130100D+02  0.196850D-01
  0.196200D+01  0.137977D+00
  0.444600D+00  0.478148D+00
  0.122000D+00  0.501240D+00
   s     1 1.00
  0.122000D+00  0.100000D+01
   p     1 1.00
  0.727000D+00  0.100000D+01
  
[MO]
 Sym= __1_a__
 Ene=  0.000000000000000E+000
 Spin= Alpha
 Occup=    2.00000000000000     
                     1  1.246638230497590E-005
                     2  0.998135856438326     
                     3  1.316667860941080E-002
                     4  1.777164124551670E-003
                     5  1.751295884281710E-003
                     6  2.359780191028670E-003
                     7  5.277136930292220E-003
                     8 -3.799670975577780E-011
                     9  8.224009130660640E-005
                    10 -2.058007442268300E-004
                    11 -2.996665927343990E-012
                    12 -7.401596695388790E-004
                    13 -5.184207457482260E-004
                    14  1.307477207915890E-011
                    15 -2.292010183719491E-004
                    16 -1.000601964050430E-012
                    17 -8.028597553091270E-013
                    18 -2.216037095515920E-004
                    19 -9.692116085351349E-005
                    20  3.115808497406336E-004
                    21 -1.718358233445530E-012
                    22 -3.776466317586450E-012
                    23 -5.619263751061139E-004
                    24  2.948927526399110E-004
                    25 -5.116128985566345E-013
                    26 -2.909592528328409E-005
                    27 -7.527870879506659E-005
                    28 -1.505463077330778E-012
                    29 -1.335752126533510E-012
                    30  2.886741446932521E-005
                    31 -2.007159259450750E-004
                    32 -4.494447673962460E-004
                    33  3.023797728165060E-003
                    34  2.361988741638720E-004
                    35 -5.637286624988570E-004
                    36 -2.513846155881130E-004
                    37 -8.633962666989460E-003
                    38 -2.997916800948040E-011
                    39  1.678996534160630E-004
                    40  7.842738046750160E-004
                    41  4.487224781866780E-013
                    42 -9.275118817716280E-004
                    43  5.438917269079710E-003
                    44  8.291737880389990E-012
                    45 -6.487242576299192E-005
                    46 -1.318235473154650E-012
                    47  2.077094986596250E-012
                    48 -4.252466616705660E-004
                    49 -2.823910440277720E-005
                    50 -4.268547656487076E-004
                    51  2.034803739687800E-012
                    52 -3.886927551761170E-012
                    53  1.356477529166412E-004
                    54  3.211741737077370E-004
                    55 -5.120727502340898E-013
                    56 -4.592591576658997E-006
                    57 -6.592807784721315E-006
                    58 -1.938906815736972E-012
                    59 -6.489683559434560E-013
                    60  4.736675857853917E-005
                    61 -1.160844841767829E-004
                    62 -2.820017849173520E-004
                    63 -2.123884579448190E-003
                    64  1.592983880420420E-005
                    65  1.046782204754550E-003
                    66 -9.826879488171491E-004
                    67  1.325184806384850E-003
                    68  1.596658048809110E-012
                    69  1.130059607142280E-004
                    70  7.061020704927470E-004
                    71 -7.270982677812630E-012
                    72 -1.240488561641180E-003
                    73  4.660940414288990E-004
                    74 -2.271246503874370E-012
                    75 -1.417596286873311E-005
                    76  1.118771192651540E-012
                    77  2.274273998046450E-012
                    78 -1.133914702982892E-004
                    79 -1.029851068445490E-005
                    80 -3.710606538323710E-005
                    81  2.509064908761000E-012
                    82 -1.247788226533180E-012
                    83  2.666855891041820E-005
                    84  2.462962218880290E-004
                    85 -1.619392163054817E-012
                    86  2.128836691869324E-005
                    87 -5.277126500332453E-005
                    88  1.184734409646620E-012
                    89 -5.459937974876600E-013
                    90 -3.348264592611303E-005
                    91 -1.035351635636771E-004
                    92 -2.405031595175810E-004
                    93 -2.207674474426660E-003
                    94  1.601016175037640E-004
                    95  2.836291818044810E-004
                    96  1.099898880602700E-003
                    97  1.673292254695690E-003
                    98 -5.618041337441860E-012
                    99  2.079603175219990E-004
                   100  4.801640079357780E-004
                   101 -3.954540521541060E-012
                   102  3.913885883344000E-004
                   103 -8.964990158040720E-004
                   104 -6.426497329417210E-013
                   105  4.718705631179972E-006
                   106  1.412772099327470E-012
                   107 -1.060128834420600E-012
                   108 -1.341819106782630E-004
                   109 -1.045553316117380E-005
                   110  3.693094318004161E-005
                   111  1.891641730291180E-012
                   112  1.377567545605510E-012
                   113 -4.259334369112640E-005
                   114 -2.222142686539340E-004
                   115  8.076409249146334E-013
                   116 -2.793222015437790E-005
                   117 -3.715579321411256E-005
                   118 -9.122568739554920E-013
                   119  2.677708529922540E-012
                   120 -1.466636484220864E-005
                   121 -5.468390046291084E-005
                   122 -2.011085071122330E-004
                   123 -4.984532198249060E-005
                   124  1.330808271753200E-004
                   125  2.246405833873240E-004
                   126  4.648425610508160E-005
                   127 -1.056565552860260E-003
                   128 -6.117359094086410E-012
                   129  6.635045624081690E-005
                   130  4.966571006850431E-004
                   131  3.005388119324790E-012
                   132  2.663092336065720E-004
                   133  1.473375013467960E-003
                   134  1.225051579588200E-012
                   135  9.901144834545677E-006
                   136 -1.130891779130280E-012
                   137 -1.356243339295630E-012
                   138  1.365420316034860E-005
                   139  5.096313582364920E-006
                   140  1.174439262340879E-004
                   141 -1.037377583889090E-012
                   142  1.698511811708130E-012
                   143  2.445471222436240E-004
                   144  2.247468856230690E-004
                   145 -1.545897408235849E-012
                   146 -5.443517350087007E-006
                   147 -4.168217201157408E-005
                   148 -8.473496198685420E-013
                   149  1.301545697571400E-012
                   150 -6.010924796603299E-006
                   151 -2.333694014117040E-005
                   152 -1.852296290278940E-004
                   153  8.211239581786910E-005
                   154  8.997294000501310E-005
                   155  2.627365886360710E-004
                   156 -7.240857710716370E-005
                   157 -1.137932435886750E-003
                   158  1.111795740397620E-011
                   159  3.795126083441410E-005
                   160  2.315530151193840E-004
                   161 -4.351193949974770E-012
                   162  5.376969208459820E-004
                   163  2.611442630956030E-004
                   164  4.353339773040290E-013
                   165  2.308920203934037E-007
                   166  1.226334034502430E-012
                   167  2.217127554494960E-012
                   168 -5.244109382220300E-006
                   169 -9.828798469038019E-006
                   170  9.571400153301418E-005
                   171 -9.440348409377710E-013
                   172 -3.054597656427300E-012
                   173  7.794657904119680E-005
                   174 -1.431501343697180E-004
                   175  3.045677953662230E-012
                   176 -3.884688896499879E-007
                   177 -1.977721199658923E-005
                   178 -1.634022192527060E-012
                   179  1.324997461923510E-012
                   180  6.723106153593817E-006
                   181 -1.566770403190512E-005
                   182 -1.622329338185400E-004
                   183 -4.715579469890790E-004
                   184  4.399335757671170E-005
                   185  2.030639365276240E-004
                   186 -1.864241037285440E-005
                   187 -1.382952058595720E-005
                   188  1.101688322712840E-011
                   189  1.188469974917390E-004
                   190  2.310749451611100E-005
                   191 -5.181663702569130E-012
                   192  7.241360381811450E-004
                   193  5.976906945220860E-006
                   194 -4.215989874755900E-012
                   195 -2.157130539215421E-007
                   196 -1.928693028945070E-012
                   197 -1.436485931553580E-013
                   198 -2.682265577649620E-005
                   199 -3.450651168390680E-007
                   200  7.145836738627733E-006
                   201  3.862530694128870E-012
                   202 -2.931124812271240E-013
                   203 -9.329291323731760E-005
                   204 -9.191173608470960E-005
                   205  2.597975697029227E-012
                   206 -4.892261358181173E-006
                   207 -5.410264542672189E-006
                   208 -1.595109363491038E-012
                   209 -1.427213142469510E-012
                   210 -2.639257167152224E-007
                   211 -1.098724506630542E-005
                   212  1.799359958898060E-003
                   213 -1.044061228948540E-003
                   214  4.075905618536460E-004
                   215  3.082439186417750E-004
                   216  9.244971489260460E-014
                   217  6.611342629271480E-003
                   218 -3.658031964815510E-003
                   219 -7.209763139201410E-004
                   220  5.077272845799300E-004
                   221  2.483267756669130E-013
                   222 -8.775101828755070E-004
                   223 -3.258816962989960E-004
                   224 -3.541262204582140E-005
                   225 -5.407648050523030E-005
                   226  3.539682538839660E-012
                   227 -8.919906890197930E-004
                   228 -6.941862021091970E-005
                   229  2.540113209922620E-005
                   230 -4.612474641840370E-005
                   231  5.650361078952980E-014
                   232 -3.225959157974550E-004
                   233 -4.155973009789770E-004
                   234 -1.470803340689250E-005
                   235  8.215451407197969E-006
                   236 -2.498254336425720E-012
                   237 -3.834197771785370E-004
                   238 -4.415129187380940E-004
                   239  1.589590235899730E-005
                   240  2.557393517584660E-006
                   241 -2.831455638382460E-013
                   242  1.255931619971420E-004
                   243 -1.150085150948560E-004
                   244  6.625264622713570E-007
                   245  1.747862688320890E-005
                   246  1.308778634882760E-013
 Sym= __2_a__
 Ene=  0.000000000000000E+000
 Spin= Alpha
 Occup=    2.00000000000000     
                     1 -5.213106456392370E-005
                     2 -2.362853271083390E-004
                     3  2.111716364619330E-003
                     4  1.374743186281190E-004
                     5  1.362919018742450E-003
                     6 -7.762865180158170E-005
                     7  2.807573259435940E-003
                     8 -5.326160095216250E-012
                     9 -7.717909266920909E-006
                    10 -8.875265128561090E-005
                    11  2.014531587518920E-012
                    12  5.551049123849710E-006
                    13 -5.063585697783020E-004
                    14 -6.611936867056660E-013
                    15  4.409098564687013E-005
                    16  4.993309952079180E-013
                    17  3.462915017854950E-013
                    18 -5.417764800385220E-005
                    19  5.365863881687010E-006
                    20 -1.274128714632192E-004
                    21  7.307599002867240E-013
                    22 -6.578837453825140E-012
                    23  3.094887647115360E-004
                    24 -9.982598103071189E-005
                    25  7.757341284871483E-013
                    26 -1.032697967251078E-005
                    27  1.111328876442986E-004
                    28  2.885879290579440E-012
                    29 -2.285580744063460E-014
                    30 -4.684824711416338E-005
                    31  1.442474465574985E-004
                    32   1.00108093447241     
                    33  9.063605541513860E-003
                    34  2.563285604046280E-003
                    35 -7.705194471447830E-003
                    36  1.231734507112570E-005
                    37 -3.707375017239580E-003
                    38 -7.304835375433571E-012
                    39 -1.806465371137270E-004
                    40  7.606817998931970E-004
                    41  1.802247548126930E-011
                    42 -8.814368805049880E-005
                    43  4.263139119840220E-003
                    44  2.403447057882130E-012
                    45 -6.067676684242389E-004
                    46  1.698597196105900E-012
                    47 -1.043638327708740E-013
                    48 -2.310047376882300E-004
                    49  3.635531698655800E-005
                    50  4.927500824107313E-004
                    51 -1.730760022597820E-012
                    52 -1.388940890323340E-012
                    53 -7.358777367414960E-004
                    54 -2.842573228805540E-004
                    55  7.507456915947200E-012
                    56  1.057671714340268E-005
                    57  8.653353650097047E-005
                    58  1.171009379854938E-012
                    59  1.289037205265300E-012
                    60 -2.998410282360004E-005
                    61  4.236856459757274E-004
                    62  6.586933328558820E-003
                    63 -1.997817524909730E-003
                    64 -2.332491003007910E-004
                    65  2.718853624066860E-003
                    66  1.174257322493500E-004
                    67 -1.412454978460110E-005
                    68 -1.184881366381710E-011
                    69  4.878035746668940E-004
                    70  1.277450222657420E-004
                    71  4.171644345941630E-012
                    72 -2.106340838503930E-003
                    73  2.356077699363870E-004
                    74 -6.132253532726730E-013
                    75  3.702853067237634E-005
                    76  2.077887556337570E-012
                    77  7.554858450375820E-013
                    78 -1.395156362173722E-006
                    79  9.936820920823291E-006
                    80 -3.874559725530228E-004
                    81 -7.227152441560940E-012
                    82  1.432109079721370E-012
                    83 -6.415606301020760E-004
                    84 -3.007506791338000E-004
                    85  2.203045497821617E-013
                    86  3.075890929211644E-005
                    87 -5.511556564033737E-005
                    88 -4.171508484837600E-012
                    89 -1.691396865948330E-012
                    90  4.999164658128152E-005
                    91  1.471127935277774E-004
                    92  7.102039479879070E-003
                    93 -2.049534874482450E-003
                    94 -2.996401719273760E-004
                    95  3.121796653251060E-003
                    96 -5.678706798925640E-005
                    97 -2.377581273276490E-005
                    98  1.361884444154700E-011
                    99 -7.966257269370230E-004
                   100  4.919639745595530E-005
                   101 -1.715987812087800E-011
                   102  1.874130896057000E-003
                   103  7.034370759237860E-005
                   104 -2.429431271636410E-012
                   105  2.746267787283038E-005
                   106 -4.721799430800420E-012
                   107  1.808120651581170E-012
                   108  1.836222042314056E-006
                   109  4.135710564679110E-007
                   110 -4.047376979810453E-004
                   111  8.784175020735190E-013
                   112  6.413835138548760E-012
                   113 -4.720637542853280E-004
                   114  3.163745521420820E-004
                   115 -9.599672606216253E-013
                   116 -2.932205269522258E-005
                   117 -6.382462285196336E-005
                   118 -2.921359184355660E-012
                   119 -7.635936080270161E-014
                   120 -2.317090093312678E-005
                   121  1.351114526450318E-004
                   122 -2.518831616214420E-004
                   123 -7.548879710991060E-004
                   124  2.224348366704800E-004
                   125 -9.277041481135720E-005
                   126 -4.307585647579040E-006
                   127 -2.744260532636110E-004
                   128  1.182883658928200E-011
                   129 -5.283579618552440E-005
                   130  5.553575247208460E-004
                   131 -7.962860510216809E-012
                   132  3.627578951588120E-004
                   133  8.444389175293800E-004
                   134  4.327871247751740E-012
                   135  1.730052694785264E-005
                   136 -1.637521160912350E-012
                   137  1.303968456241940E-012
                   138  3.016649390555500E-006
                   139  4.514217525565070E-005
                   140  1.292518400068862E-004
                   141  9.275972015784371E-012
                   142  3.436005134576520E-012
                   143  2.522252464528540E-004
                   144 -1.564367840492980E-004
                   145  9.360085588902597E-013
                   146  7.676100372378466E-006
                   147 -3.345547558648541E-005
                   148 -1.525949922565526E-012
                   149  3.613022074125810E-013
                   150 -4.337532527539354E-005
                   151  3.232733383474455E-005
                   152 -2.303798396620090E-004
                   153 -7.384604167255210E-004
                   154  2.301363052770780E-004
                   155 -6.463334400493100E-005
                   156 -1.011058233581760E-005
                   157 -2.804906386204890E-004
                   158  6.414444713639040E-012
                   159  8.603665926353950E-005
                   160  5.307264990376850E-004