[Molden Format]
[Atoms] AU
  N     1    7    -0.0599681700   -4.3145907800    0.0000000000        
  C     2    6     0.0301223600   -1.8196570200    0.0000000000        
  C     3    6    -2.3140760900   -0.4264624400    0.0000000000        
  C     4    6     2.3521371500   -0.3970126700    0.0000000000        
  C     5    6    -2.2868474500    2.1532030400    0.0000000000        
  C     6    6     2.2963187700    2.1839589100    0.0000000000        
  C     7    6    -0.0038303600    3.4841852700    0.0000000000        
  H     8    1    -2.2159066200   -5.5422928300    0.0000000000        
  H     9    1     1.6405405100   -5.2833676800    0.0000000000        
  H    10    1    -4.0397713900   -1.4740548200    0.0000000000        
  H    11    1     4.1071306200   -1.4037633700    0.0000000000        
  H    12    1    -4.0399832000    3.1730368400    0.0000000000        
  H    13    1     4.0342842400    3.2279867100    0.0000000000        
  H    14    1    -0.0155291200    5.5116529400    0.0000000000        
[5D]
[7F]
[GTO]
  1  0
   s    12 1.00
  0.114200D+05  0.172695D-04
  0.171200D+04  0.134411D-03
  0.389300D+03  0.694561D-03
  0.110000D+03  0.278531D-02
  0.355700D+02  0.863457D-02
  0.125400D+02  0.199805D-01
  0.464400D+01  0.262908D-01
  0.129300D+01 -0.243845D-01
  0.511800D+00 -0.924934D-01
  0.178700D+00 -0.339683D+00
  0.246240D-01  0.345111D+00
  0.112530D-01  0.752750D+00
   s    10 1.00
  0.114200D+05  0.523000D-03
  0.171200D+04  0.404500D-02
  0.389300D+03  0.207750D-01
  0.110000D+03  0.807269D-01
  0.355700D+02  0.233074D+00
  0.125400D+02  0.433501D+00
  0.464400D+01  0.347472D+00
  0.129300D+01  0.412620D-01
  0.511800D+00 -0.850799D-02
  0.178700D+00  0.238400D-02
   s    10 1.00
  0.114200D+05 -0.115000D-03
  0.171200D+04 -0.895000D-03
  0.389300D+03 -0.462400D-02
  0.110000D+03 -0.185280D-01
  0.355700D+02 -0.573390D-01
  0.125400D+02 -0.132076D+00
  0.464400D+01 -0.172510D+00
  0.129300D+01  0.151814D+00
  0.511800D+00  0.599944D+00
  0.178700D+00  0.387462D+00
   s     1 1.00
  0.129300D+01  0.100000D+01
   s     1 1.00
  0.178700D+00  0.100000D+01
   p     5 1.00
  0.266300D+02  0.146700D-01
  0.594800D+01  0.917640D-01
  0.174200D+01  0.298683D+00
  0.555000D+00  0.498487D+00
  0.172500D+00  0.337023D+00
   p     1 1.00
  0.174200D+01  0.100000D+01
   p     1 1.00
  0.555000D+00  0.100000D+01
   d     1 1.00
  0.165400D+01  0.100000D+01
   d     1 1.00
  0.469000D+00  0.100000D+01
   f     1 1.00
  0.109300D+01  0.100000D+01
  
  2  0
   s    10 1.00
  0.823600D+04  0.531000D-03
  0.123500D+04  0.410800D-02
  0.280800D+03  0.210870D-01
  0.792700D+02  0.818530D-01
  0.255900D+02  0.234817D+00
  0.899700D+01  0.434401D+00
  0.331900D+01  0.346129D+00
  0.905900D+00  0.393780D-01
  0.364300D+00 -0.898300D-02
  0.128500D+00  0.238500D-02
   s    10 1.00
  0.823600D+04 -0.113000D-03
  0.123500D+04 -0.878000D-03
  0.280800D+03 -0.454000D-02
  0.792700D+02 -0.181330D-01
  0.255900D+02 -0.557600D-01
  0.899700D+01 -0.126895D+00
  0.331900D+01 -0.170352D+00
  0.905900D+00  0.140382D+00
  0.364300D+00  0.598684D+00
  0.128500D+00  0.395389D+00
   s     1 1.00
  0.905900D+00  0.100000D+01
   s     1 1.00
  0.364300D+00  0.100000D+01
   p     5 1.00
  0.187100D+02  0.140310D-01
  0.413300D+01  0.868660D-01
  0.120000D+01  0.290216D+00
  0.382700D+00  0.501008D+00
  0.120900D+00  0.343406D+00
   p     1 1.00
  0.382700D+00  0.100000D+01
   p     1 1.00
  0.120900D+00  0.100000D+01
   d     1 1.00
  0.109700D+01  0.100000D+01
   d     1 1.00
  0.318000D+00  0.100000D+01
   f     1 1.00
  0.761000D+00  0.100000D+01
  
  3  0
   s    10 1.00
  0.823600D+04  0.531000D-03
  0.123500D+04  0.410800D-02
  0.280800D+03  0.210870D-01
  0.792700D+02  0.818530D-01
  0.255900D+02  0.234817D+00
  0.899700D+01  0.434401D+00
  0.331900D+01  0.346129D+00
  0.905900D+00  0.393780D-01
  0.364300D+00 -0.898300D-02
  0.128500D+00  0.238500D-02
   s    10 1.00
  0.823600D+04 -0.113000D-03
  0.123500D+04 -0.878000D-03
  0.280800D+03 -0.454000D-02
  0.792700D+02 -0.181330D-01
  0.255900D+02 -0.557600D-01
  0.899700D+01 -0.126895D+00
  0.331900D+01 -0.170352D+00
  0.905900D+00  0.140382D+00
  0.364300D+00  0.598684D+00
  0.128500D+00  0.395389D+00
   s     1 1.00
  0.905900D+00  0.100000D+01
   s     1 1.00
  0.364300D+00  0.100000D+01
   p     5 1.00
  0.187100D+02  0.140310D-01
  0.413300D+01  0.868660D-01
  0.120000D+01  0.290216D+00
  0.382700D+00  0.501008D+00
  0.120900D+00  0.343406D+00
   p     1 1.00
  0.382700D+00  0.100000D+01
   p     1 1.00
  0.120900D+00  0.100000D+01
   d     1 1.00
  0.109700D+01  0.100000D+01
   d     1 1.00
  0.318000D+00  0.100000D+01
   f     1 1.00
  0.761000D+00  0.100000D+01
  
  4  0
   s    10 1.00
  0.823600D+04  0.531000D-03
  0.123500D+04  0.410800D-02
  0.280800D+03  0.210870D-01
  0.792700D+02  0.818530D-01
  0.255900D+02  0.234817D+00
  0.899700D+01  0.434401D+00
  0.331900D+01  0.346129D+00
  0.905900D+00  0.393780D-01
  0.364300D+00 -0.898300D-02
  0.128500D+00  0.238500D-02
   s    10 1.00
  0.823600D+04 -0.113000D-03
  0.123500D+04 -0.878000D-03
  0.280800D+03 -0.454000D-02
  0.792700D+02 -0.181330D-01
  0.255900D+02 -0.557600D-01
  0.899700D+01 -0.126895D+00
  0.331900D+01 -0.170352D+00
  0.905900D+00  0.140382D+00
  0.364300D+00  0.598684D+00
  0.128500D+00  0.395389D+00
   s     1 1.00
  0.905900D+00  0.100000D+01
   s     1 1.00
  0.364300D+00  0.100000D+01
   p     5 1.00
  0.187100D+02  0.140310D-01
  0.413300D+01  0.868660D-01
  0.120000D+01  0.290216D+00
  0.382700D+00  0.501008D+00
  0.120900D+00  0.343406D+00
   p     1 1.00
  0.382700D+00  0.100000D+01
   p     1 1.00
  0.120900D+00  0.100000D+01
   d     1 1.00
  0.109700D+01  0.100000D+01
   d     1 1.00
  0.318000D+00  0.100000D+01
   f     1 1.00
  0.761000D+00  0.100000D+01
  
  5  0
   s    10 1.00
  0.823600D+04  0.531000D-03
  0.123500D+04  0.410800D-02
  0.280800D+03  0.210870D-01
  0.792700D+02  0.818530D-01
  0.255900D+02  0.234817D+00
  0.899700D+01  0.434401D+00
  0.331900D+01  0.346129D+00
  0.905900D+00  0.393780D-01
  0.364300D+00 -0.898300D-02
  0.128500D+00  0.238500D-02
   s    10 1.00
  0.823600D+04 -0.113000D-03
  0.123500D+04 -0.878000D-03
  0.280800D+03 -0.454000D-02
  0.792700D+02 -0.181330D-01
  0.255900D+02 -0.557600D-01
  0.899700D+01 -0.126895D+00
  0.331900D+01 -0.170352D+00
  0.905900D+00  0.140382D+00
  0.364300D+00  0.598684D+00
  0.128500D+00  0.395389D+00
   s     1 1.00
  0.905900D+00  0.100000D+01
   s     1 1.00
  0.364300D+00  0.100000D+01
   p     5 1.00
  0.187100D+02  0.140310D-01
  0.413300D+01  0.868660D-01
  0.120000D+01  0.290216D+00
  0.382700D+00  0.501008D+00
  0.120900D+00  0.343406D+00
   p     1 1.00
  0.382700D+00  0.100000D+01
   p     1 1.00
  0.120900D+00  0.100000D+01
   d     1 1.00
  0.109700D+01  0.100000D+01
   d     1 1.00
  0.318000D+00  0.100000D+01
   f     1 1.00
  0.761000D+00  0.100000D+01
  
  6  0
   s    10 1.00
  0.823600D+04  0.531000D-03
  0.123500D+04  0.410800D-02
  0.280800D+03  0.210870D-01
  0.792700D+02  0.818530D-01
  0.255900D+02  0.234817D+00
  0.899700D+01  0.434401D+00
  0.331900D+01  0.346129D+00
  0.905900D+00  0.393780D-01
  0.364300D+00 -0.898300D-02
  0.128500D+00  0.238500D-02
   s    10 1.00
  0.823600D+04 -0.113000D-03
  0.123500D+04 -0.878000D-03
  0.280800D+03 -0.454000D-02
  0.792700D+02 -0.181330D-01
  0.255900D+02 -0.557600D-01
  0.899700D+01 -0.126895D+00
  0.331900D+01 -0.170352D+00
  0.905900D+00  0.140382D+00
  0.364300D+00  0.598684D+00
  0.128500D+00  0.395389D+00
   s     1 1.00
  0.905900D+00  0.100000D+01
   s     1 1.00
  0.364300D+00  0.100000D+01
   p     5 1.00
  0.187100D+02  0.140310D-01
  0.413300D+01  0.868660D-01
  0.120000D+01  0.290216D+00
  0.382700D+00  0.501008D+00
  0.120900D+00  0.343406D+00
   p     1 1.00
  0.382700D+00  0.100000D+01
   p     1 1.00
  0.120900D+00  0.100000D+01
   d     1 1.00
  0.109700D+01  0.100000D+01
   d     1 1.00
  0.318000D+00  0.100000D+01
   f     1 1.00
  0.761000D+00  0.100000D+01
  
  7  0
   s    10 1.00
  0.823600D+04  0.531000D-03
  0.123500D+04  0.410800D-02
  0.280800D+03  0.210870D-01
  0.792700D+02  0.818530D-01
  0.255900D+02  0.234817D+00
  0.899700D+01  0.434401D+00
  0.331900D+01  0.346129D+00
  0.905900D+00  0.393780D-01
  0.364300D+00 -0.898300D-02
  0.128500D+00  0.238500D-02
   s    10 1.00
  0.823600D+04 -0.113000D-03
  0.123500D+04 -0.878000D-03
  0.280800D+03 -0.454000D-02
  0.792700D+02 -0.181330D-01
  0.255900D+02 -0.557600D-01
  0.899700D+01 -0.126895D+00
  0.331900D+01 -0.170352D+00
  0.905900D+00  0.140382D+00
  0.364300D+00  0.598684D+00
  0.128500D+00  0.395389D+00
   s     1 1.00
  0.905900D+00  0.100000D+01
   s     1 1.00
  0.364300D+00  0.100000D+01
   p     5 1.00
  0.187100D+02  0.140310D-01
  0.413300D+01  0.868660D-01
  0.120000D+01  0.290216D+00
  0.382700D+00  0.501008D+00
  0.120900D+00  0.343406D+00
   p     1 1.00
  0.382700D+00  0.100000D+01
   p     1 1.00
  0.120900D+00  0.100000D+01
   d     1 1.00
  0.109700D+01  0.100000D+01
   d     1 1.00
  0.318000D+00  0.100000D+01
   f     1 1.00
  0.761000D+00  0.100000D+01
  
  8  0
   s     4 1.00
  0.130100D+02  0.196850D-01
  0.196200D+01  0.137977D+00
  0.444600D+00  0.478148D+00
  0.122000D+00  0.501240D+00
   s     1 1.00
  0.122000D+00  0.100000D+01
   p     1 1.00
  0.727000D+00  0.100000D+01
  
  9  0
   s     4 1.00
  0.130100D+02  0.196850D-01
  0.196200D+01  0.137977D+00
  0.444600D+00  0.478148D+00
  0.122000D+00  0.501240D+00
   s     1 1.00
  0.122000D+00  0.100000D+01
   p     1 1.00
  0.727000D+00  0.100000D+01
  
 10  0
   s     4 1.00
  0.130100D+02  0.196850D-01
  0.196200D+01  0.137977D+00
  0.444600D+00  0.478148D+00
  0.122000D+00  0.501240D+00
   s     1 1.00
  0.122000D+00  0.100000D+01
   p     1 1.00
  0.727000D+00  0.100000D+01
  
 11  0
   s     4 1.00
  0.130100D+02  0.196850D-01
  0.196200D+01  0.137977D+00
  0.444600D+00  0.478148D+00
  0.122000D+00  0.501240D+00
   s     1 1.00
  0.122000D+00  0.100000D+01
   p     1 1.00
  0.727000D+00  0.100000D+01
  
 12  0
   s     4 1.00
  0.130100D+02  0.196850D-01
  0.196200D+01  0.137977D+00
  0.444600D+00  0.478148D+00
  0.122000D+00  0.501240D+00
   s     1 1.00
  0.122000D+00  0.100000D+01
   p     1 1.00
  0.727000D+00  0.100000D+01
  
 13  0
   s     4 1.00
  0.130100D+02  0.196850D-01
  0.196200D+01  0.137977D+00
  0.444600D+00  0.478148D+00
  0.122000D+00  0.501240D+00
   s     1 1.00
  0.122000D+00  0.100000D+01
   p     1 1.00
  0.727000D+00  0.100000D+01
  
 14  0
   s     4 1.00
  0.130100D+02  0.196850D-01
  0.196200D+01  0.137977D+00
  0.444600D+00  0.478148D+00
  0.122000D+00  0.501240D+00
   s     1 1.00
  0.122000D+00  0.100000D+01
   p     1 1.00
  0.727000D+00  0.100000D+01
  
[MO]
 Sym= __1_A__
 Ene=  0.000000000000000E+000
 Spin= Alpha
 Occup=    2.00000000000000     
                     1  1.246638233470586E-005
                     2  0.998135856438245     
                     3  1.316667860990938E-002
                     4  1.777164124529648E-003
                     5  1.751295883964634E-003
                     6  2.359780191052281E-003
                     7  5.277136930578908E-003
                     8 -3.799670975302923E-011
                     9  8.224009131100968E-005
                    10 -2.058007442110200E-004
                    11 -2.996665928053653E-012
                    12 -7.401596695518483E-004
                    13 -5.184207457579828E-004
                    14  1.307477207848769E-011
                    15 -2.292010183883114E-004
                    16 -1.000601964046376E-012
                    17 -8.028597552875358E-013
                    18 -2.216037095651176E-004
                    19 -9.692116086668612E-005
                    20  3.115808497045987E-004
                    21 -1.718358233169173E-012
                    22 -3.776466317556562E-012
                    23 -5.619263752061128E-004
                    24  2.948927526322717E-004
                    25 -5.116128984322663E-013
                    26 -2.909592528402848E-005
                    27 -7.527870881176936E-005
                    28 -1.505463077309085E-012
                    29 -1.335752126524027E-012
                    30  2.886741446500854E-005
                    31 -2.007159259521880E-004
                    32 -4.494447676855084E-004
                    33  3.023797735774703E-003
                    34  2.361988740666793E-004
                    35 -5.637286628247300E-004
                    36 -2.513846168331102E-004
                    37 -8.633962664585463E-003
                    38 -2.997916800633498E-011
                    39  1.678996533656508E-004
                    40  7.842738046764294E-004
                    41  4.487224770460412E-013
                    42 -9.275118816758653E-004
                    43  5.438917269513856E-003
                    44  8.291737881100929E-012
                    45 -6.487242587277258E-005
                    46 -1.318235473301379E-012
                    47  2.077094986477942E-012
                    48 -4.252466615119446E-004
                    49 -2.823910445348211E-005
                    50 -4.268547658883008E-004
                    51  2.034803739728183E-012
                    52 -3.886927552052875E-012
                    53  1.356477531733038E-004
                    54  3.211741736241646E-004
                    55 -5.120727500815591E-013
                    56 -4.592591569688099E-006
                    57 -6.592807806659540E-006
                    58 -1.938906815640583E-012
                    59 -6.489683561608689E-013
                    60  4.736675856561194E-005
                    61 -1.160844840437102E-004
                    62 -2.820017850756663E-004
                    63 -2.123884579720749E-003
                    64  1.592983883752813E-005
                    65  1.046782204671276E-003
                    66 -9.826879449093130E-004
                    67  1.325184802091592E-003
                    68  1.596658049425045E-012
                    69  1.130059604338326E-004
                    70  7.061020708281165E-004
                    71 -7.270982677467866E-012
                    72 -1.240488562678599E-003
                    73  4.660940426189200E-004
                    74 -2.271246504062829E-012
                    75 -1.417596286919794E-005
                    76  1.118771192797866E-012
                    77  2.274273998340579E-012
                    78 -1.133914701572555E-004
                    79 -1.029851085332254E-005
                    80 -3.710606541473126E-005
                    81  2.509064908940928E-012
                    82 -1.247788226852298E-012
                    83  2.666855909430840E-005
                    84  2.462962219138902E-004
                    85 -1.619392163059584E-012
                    86  2.128836689506623E-005
                    87 -5.277126496949457E-005
                    88  1.184734409882947E-012
                    89 -5.459937973258479E-013
                    90 -3.348264593040652E-005
                    91 -1.035351635627838E-004
                    92 -2.405031595191297E-004
                    93 -2.207674474371832E-003
                    94  1.601016175199533E-004
                    95  2.836291818630886E-004
                    96  1.099898880531843E-003
                    97  1.673292248297309E-003
                    98 -5.618041338035959E-012
                    99  2.079603174069782E-004
                   100  4.801640087020284E-004
                   101 -3.954540522401359E-012
                   102  3.913885892047033E-004
                   103 -8.964990143672610E-004
                   104 -6.426497340056972E-013
                   105  4.718705624182278E-006
                   106  1.412772099200180E-012
                   107 -1.060128834197683E-012
                   108 -1.341819104581822E-004
                   109 -1.045553314495103E-005
                   110  3.693094319126391E-005
                   111  1.891641730398301E-012
                   112  1.377567544849824E-012
                   113 -4.259334363595086E-005
                   114 -2.222142685061946E-004
                   115  8.076409247583371E-013
                   116 -2.793222014239910E-005
                   117 -3.715579317197752E-005
                   118 -9.122568738867116E-013
                   119  2.677708529854130E-012
                   120 -1.466636483242829E-005
                   121 -5.468390045514517E-005
                   122 -2.011085071099639E-004
                   123 -4.984532203094420E-005
                   124  1.330808271943552E-004
                   125  2.246405835700936E-004
                   126  4.648425337436582E-005
                   127 -1.056565548508027E-003
                   128 -6.117359092510304E-012
                   129  6.635045661671287E-005
                   130  4.966571003487195E-004
                   131  3.005388119207712E-012
                   132  2.663092337138432E-004
                   133  1.473375013455003E-003
                   134  1.225051580367064E-012
                   135  9.901144838082514E-006
                   136 -1.130891779148047E-012
                   137 -1.356243339496648E-012
                   138  1.365420330448519E-005
                   139  5.096313432394445E-006
                   140  1.174439263039270E-004
                   141 -1.037377583712577E-012
                   142  1.698511811794606E-012
                   143  2.445471222256116E-004
                   144  2.247468858597999E-004
                   145 -1.545897408141088E-012
                   146 -5.443517344059999E-006
                   147 -4.168217204271724E-005
                   148 -8.473496200558504E-013
                   149  1.301545697602622E-012
                   150 -6.010924775608185E-006
                   151 -2.333694015119580E-005
                   152 -1.852296290364811E-004
                   153  8.211239376687233E-005
                   154  8.997294007348168E-005
                   155  2.627365887528287E-004
                   156 -7.240857730686062E-005
                   157 -1.137932430408932E-003
                   158  1.111795740181737E-011
                   159  3.795126077180013E-005
                   160  2.315530149057487E-004
                   161 -4.351193949728937E-012
                   162  5.376969208700180E-004
                   163  2.611442625438140E-004
                   164  4.353339776892819E-013
                   165  2.308920639794188E-007
                   166  1.226334034586859E-012
                   167  2.217127554611190E-012
                   168 -5.244109215635160E-006
                   169 -9.828798462267571E-006
                   170  9.571400161948701E-005
                   171 -9.440348408092709E-013
                   172 -3.054597656742073E-012
                   173  7.794657920721198E-005
                   174 -1.431501344439429E-004
                   175  3.045677953457743E-012
                   176 -3.884688884269515E-007
                   177 -1.977721204322056E-005
                   178 -1.634022192681213E-012
                   179  1.324997461817409E-012
                   180  6.723106136547599E-006
                   181 -1.566770407672354E-005
                   182 -1.622329338691243E-004
                   183 -4.715579474254515E-004
                   184  4.399335760360581E-005
                   185  2.030639364448129E-004
                   186 -1.864240902134470E-005
                   187 -1.382952167271749E-005
                   188  1.101688322749197E-011
                   189  1.188469975443939E-004
                   190  2.310749467678654E-005
                   191 -5.181663702390904E-012
                   192  7.241360382441817E-004
                   193  5.976906386811256E-006
                   194 -4.215989874577360E-012
                   195 -2.157130436128940E-007
                   196 -1.928693028950242E-012
                   197 -1.436485932310482E-013
                   198 -2.682265562808718E-005
                   199 -3.450651542591082E-007
                   200  7.145836680967527E-006
                   201  3.862530694509300E-012
                   202 -2.931124809537712E-013
                   203 -9.329291335707454E-005
                   204 -9.191173613317999E-005
                   205  2.597975697203971E-012
                   206 -4.892261369498938E-006
                   207 -5.410264539081584E-006
                   208 -1.595109363615195E-012
                   209 -1.427213142831452E-012
                   210 -2.639257237211564E-007
                   211 -1.098724506794273E-005
                   212  1.799359958919100E-003
                   213 -1.044061228856304E-003
                   214  4.075905618654564E-004
                   215  3.082439186456021E-004
                   216  9.244971467146189E-014
                   217  6.611342629630669E-003
                   218 -3.658031964656028E-003
                   219 -7.209763139365988E-004
                   220  5.077272845955045E-004
                   221  2.483267760246620E-013
                   222 -8.775101844165312E-004
                   223 -3.258816959867678E-004
                   224 -3.541262207418100E-005
                   225 -5.407648060518123E-005
                   226  3.539682538509007E-012
                   227 -8.919906856385813E-004
                   228 -6.941862150165241E-005
                   229  2.540113189463469E-005
                   230 -4.612474638832479E-005
                   231  5.650361103053346E-014
                   232 -3.225959106519867E-004
                   233 -4.155973028016460E-004
                   234 -1.470803315615553E-005
                   235  8.215451305749912E-006
                   236 -2.498254336471079E-012
                   237 -3.834197753795978E-004
                   238 -4.415129193720063E-004
                   239  1.589590225573065E-005
                   240  2.557393532701205E-006
                   241 -2.831455636902881E-013
                   242  1.255931598839531E-004
                   243 -1.150085144894939E-004
                   244  6.625264780750696E-007
                   245  1.747862698169489E-005
                   246  1.308778634149173E-013
 Sym= __2_A__
 Ene=  0.000000000000000E+000
 Spin= Alpha
 Occup=    2.00000000000000     
                     1 -5.213106455471352E-005
                     2 -2.362853269656239E-004
                     3  2.111716364617294E-003
                     4  1.374743186284451E-004
                     5  1.362919018793075E-003
                     6 -7.762865178694887E-005
                     7  2.807573259448966E-003
                     8 -5.326160095243182E-012
                     9 -7.717909271212456E-006
                    10 -8.875265128802573E-005
                    11  2.014531587832273E-012
                    12  5.551049131655993E-006
                    13 -5.063585697806796E-004
                    14 -6.611936871145317E-013
                    15  4.409098564759991E-005
                    16  4.993309952607499E-013
                    17  3.462915017010239E-013
                    18 -5.417764800504774E-005
                    19  5.365863881154674E-006
                    20 -1.274128714736858E-004
                    21  7.307599003720076E-013
                    22 -6.578837453943777E-012
                    23  3.094887647169320E-004
                    24 -9.982598100958825E-005
                    25  7.757341285940670E-013
                    26 -1.032697967301061E-005
                    27  1.111328876415996E-004
                    28  2.885879290497472E-012
                    29 -2.285580744724256E-014
                    30 -4.684824711093650E-005
                    31  1.442474465603751E-004
                    32   1.00108093447308     
                    33  9.063605541872674E-003
                    34  2.563285604080538E-003
                    35 -7.705194471697192E-003
                    36  1.231734517695350E-005
                    37 -3.707375017203722E-003
                    38 -7.304835375081142E-012
                    39 -1.806465371934713E-004
                    40  7.606817998409938E-004
                    41  1.802247548066674E-011
                    42 -8.814368806841376E-005
                    43  4.263139119928178E-003
                    44  2.403447058859528E-012
                    45 -6.067676684295978E-004
                    46  1.698597196211964E-012
                    47 -1.043638328316242E-013
                    48 -2.310047376811664E-004
                    49  3.635531698266160E-005
                    50  4.927500824454362E-004
                    51 -1.730760022495955E-012
                    52 -1.388940890531968E-012
                    53 -7.358777367781378E-004
                    54 -2.842573228603114E-004
                    55  7.507456916040597E-012
                    56  1.057671713881144E-005
                    57  8.653353649902840E-005
                    58  1.171009379859076E-012
                    59  1.289037205233935E-012
                    60 -2.998410282713574E-005
                    61  4.236856459919681E-004
                    62  6.586933314253886E-003
                    63 -1.997817525361372E-003
                    64 -2.332491003510527E-004
                    65  2.718853624205662E-003
                    66  1.174257324502354E-004
                    67 -1.412454979655368E-005
                    68 -1.184881366349473E-011
                    69  4.878035746877180E-004
                    70  1.277450222254005E-004
                    71  4.171644346008713E-012
                    72 -2.106340838502746E-003
                    73  2.356077699202480E-004
                    74 -6.132253535887296E-013
                    75  3.702853068320519E-005
                    76  2.077887556552030E-012
                    77  7.554858450053456E-013
                    78 -1.395156356794438E-006
                    79  9.936820908863849E-006
                    80 -3.874559725624985E-004
                    81 -7.227152441083953E-012
                    82  1.432109080115724E-012
                    83 -6.415606300842710E-004
                    84 -3.007506791312846E-004
                    85  2.203045497672840E-013
                    86  3.075890928956019E-005
                    87 -5.511556563917262E-005
                    88 -4.171508484844120E-012
                    89 -1.691396866065738E-012
                    90  4.999164657914251E-005
                    91  1.471127935401024E-004
                    92  7.102039412810588E-003
                    93 -2.049534875085134E-003
                    94 -2.996401721378066E-004
                    95  3.121796653833436E-003
                    96 -5.678706784965764E-005
                    97 -2.377581334778804E-005
                    98  1.361884444185717E-011
                    99 -7.966257270430527E-004
                   100  4.919639749953063E-005
                   101 -1.715987812152682E-011
                   102  1.874130896115214E-003
                   103  7.034370766569932E-005
                   104 -2.429431273207820E-012
                   105  2.746267790087406E-005
                   106 -4.721799430866937E-012
                   107  1.808120651749897E-012
                   108  1.836222071227660E-006
                   109  4.135710528651358E-007
                   110 -4.047376980146190E-004
                   111  8.784175023099172E-013
                   112  6.413835137690086E-012
                   113 -4.720637543117550E-004
                   114  3.163745522302767E-004
                   115 -9.599672607966039E-013
                   116 -2.932205268570694E-005
                   117 -6.382462284707226E-005
                   118 -2.921359184473058E-012
                   119 -7.635936063733377E-014
                   120 -2.317090093327597E-005
                   121  1.351114526662860E-004
                   122 -2.518831609701955E-004
                   123 -7.548879707626143E-004
                   124  2.224348366722390E-004
                   125 -9.277041489880354E-005
                   126 -4.307586034844832E-006
                   127 -2.744260529582172E-004
                   128  1.182883658924927E-011
                   129 -5.283579614217133E-005
                   130  5.553575246832078E-004
                   131 -7.962860510565744E-012
                   132  3.627578952028500E-004
                   133  8.444389174850020E-004
                   134  4.327871247802600E-012
                   135  1.730052694285411E-005
                   136 -1.637521160935380E-012
                   137  1.303968456255848E-012
                   138  3.016649401198224E-006
                   139  4.514217523974978E-005
                   140  1.292518400180667E-004
                   141  9.275972015409787E-012
                   142  3.436005134879800E-012
                   143  2.522252464364734E-004
                   144 -1.564367840179056E-004
                   145  9.360085588374532E-013
                   146  7.676100373358582E-006
                   147 -3.345547558624521E-005
                   148 -1.525949922744885E-012
                   149  3.613022074208213E-013
                   150 -4.337532527549047E-005
                   151  3.232733383849057E-005
                   152 -2.303798401018356E-004
                   153 -7.384604167646560E-004
                   154  2.301363053044785E-004
                   155 -6.463334421703919E-005
                   156 -1.011058242695542E-005
                   157 -2.804906380033128E-004
                   158  6.414444713052218E-012
                   159  8.603665928404766E-005
                   160  5.307264990387948E-004