[Molden Format]
[Atoms] AU
  N     1    7    -0.0577590800   -4.3200454900    0.0000000000        
  C     2    6     0.0293266700   -1.8135732400    0.0000000000        
  C     3    6    -2.3177975400   -0.4241530300    0.0000000000        
  C     4    6     2.3553549700   -0.3944307900    0.0000000000        
  C     5    6    -2.2902099200    2.1532980700    0.0000000000        
  C     6    6     2.2995110500    2.1823789900    0.0000000000        
  C     7    6    -0.0044511100    3.4872946700    0.0000000000        
  H     8    1    -2.2023415900   -5.5422966300    0.0000000000        
  H     9    1     1.6272642700   -5.3022747100    0.0000000000        
  H    10    1    -4.0432666700   -1.4727809600    0.0000000000        
  H    11    1     4.1095810200   -1.4028818500    0.0000000000        
  H    12    1    -4.0426949400    3.1741692200    0.0000000000        
  H    13    1     4.0371570400    3.2271640600    0.0000000000        
  H    14    1    -0.0154991600    5.5143428700    0.0000000000        
[5D]
[7F]
[GTO]
  1  0
   s    12 1.00
  0.114200D+05  0.172695D-04
  0.171200D+04  0.134411D-03
  0.389300D+03  0.694561D-03
  0.110000D+03  0.278531D-02
  0.355700D+02  0.863457D-02
  0.125400D+02  0.199805D-01
  0.464400D+01  0.262908D-01
  0.129300D+01 -0.243845D-01
  0.511800D+00 -0.924934D-01
  0.178700D+00 -0.339683D+00
  0.246240D-01  0.345111D+00
  0.112530D-01  0.752750D+00
   s    10 1.00
  0.114200D+05  0.523000D-03
  0.171200D+04  0.404500D-02
  0.389300D+03  0.207750D-01
  0.110000D+03  0.807269D-01
  0.355700D+02  0.233074D+00
  0.125400D+02  0.433501D+00
  0.464400D+01  0.347472D+00
  0.129300D+01  0.412620D-01
  0.511800D+00 -0.850799D-02
  0.178700D+00  0.238400D-02
   s    10 1.00
  0.114200D+05 -0.115000D-03
  0.171200D+04 -0.895000D-03
  0.389300D+03 -0.462400D-02
  0.110000D+03 -0.185280D-01
  0.355700D+02 -0.573390D-01
  0.125400D+02 -0.132076D+00
  0.464400D+01 -0.172510D+00
  0.129300D+01  0.151814D+00
  0.511800D+00  0.599944D+00
  0.178700D+00  0.387462D+00
   s     1 1.00
  0.129300D+01  0.100000D+01
   s     1 1.00
  0.178700D+00  0.100000D+01
   p     5 1.00
  0.266300D+02  0.146700D-01
  0.594800D+01  0.917640D-01
  0.174200D+01  0.298683D+00
  0.555000D+00  0.498487D+00
  0.172500D+00  0.337023D+00
   p     1 1.00
  0.174200D+01  0.100000D+01
   p     1 1.00
  0.555000D+00  0.100000D+01
   d     1 1.00
  0.165400D+01  0.100000D+01
   d     1 1.00
  0.469000D+00  0.100000D+01
   f     1 1.00
  0.109300D+01  0.100000D+01
  
  2  0
   s    10 1.00
  0.823600D+04  0.531000D-03
  0.123500D+04  0.410800D-02
  0.280800D+03  0.210870D-01
  0.792700D+02  0.818530D-01
  0.255900D+02  0.234817D+00
  0.899700D+01  0.434401D+00
  0.331900D+01  0.346129D+00
  0.905900D+00  0.393780D-01
  0.364300D+00 -0.898300D-02
  0.128500D+00  0.238500D-02
   s    10 1.00
  0.823600D+04 -0.113000D-03
  0.123500D+04 -0.878000D-03
  0.280800D+03 -0.454000D-02
  0.792700D+02 -0.181330D-01
  0.255900D+02 -0.557600D-01
  0.899700D+01 -0.126895D+00
  0.331900D+01 -0.170352D+00
  0.905900D+00  0.140382D+00
  0.364300D+00  0.598684D+00
  0.128500D+00  0.395389D+00
   s     1 1.00
  0.905900D+00  0.100000D+01
   s     1 1.00
  0.364300D+00  0.100000D+01
   p     5 1.00
  0.187100D+02  0.140310D-01
  0.413300D+01  0.868660D-01
  0.120000D+01  0.290216D+00
  0.382700D+00  0.501008D+00
  0.120900D+00  0.343406D+00
   p     1 1.00
  0.382700D+00  0.100000D+01
   p     1 1.00
  0.120900D+00  0.100000D+01
   d     1 1.00
  0.109700D+01  0.100000D+01
   d     1 1.00
  0.318000D+00  0.100000D+01
   f     1 1.00
  0.761000D+00  0.100000D+01
  
  3  0
   s    10 1.00
  0.823600D+04  0.531000D-03
  0.123500D+04  0.410800D-02
  0.280800D+03  0.210870D-01
  0.792700D+02  0.818530D-01
  0.255900D+02  0.234817D+00
  0.899700D+01  0.434401D+00
  0.331900D+01  0.346129D+00
  0.905900D+00  0.393780D-01
  0.364300D+00 -0.898300D-02
  0.128500D+00  0.238500D-02
   s    10 1.00
  0.823600D+04 -0.113000D-03
  0.123500D+04 -0.878000D-03
  0.280800D+03 -0.454000D-02
  0.792700D+02 -0.181330D-01
  0.255900D+02 -0.557600D-01
  0.899700D+01 -0.126895D+00
  0.331900D+01 -0.170352D+00
  0.905900D+00  0.140382D+00
  0.364300D+00  0.598684D+00
  0.128500D+00  0.395389D+00
   s     1 1.00
  0.905900D+00  0.100000D+01
   s     1 1.00
  0.364300D+00  0.100000D+01
   p     5 1.00
  0.187100D+02  0.140310D-01
  0.413300D+01  0.868660D-01
  0.120000D+01  0.290216D+00
  0.382700D+00  0.501008D+00
  0.120900D+00  0.343406D+00
   p     1 1.00
  0.382700D+00  0.100000D+01
   p     1 1.00
  0.120900D+00  0.100000D+01
   d     1 1.00
  0.109700D+01  0.100000D+01
   d     1 1.00
  0.318000D+00  0.100000D+01
   f     1 1.00
  0.761000D+00  0.100000D+01
  
  4  0
   s    10 1.00
  0.823600D+04  0.531000D-03
  0.123500D+04  0.410800D-02
  0.280800D+03  0.210870D-01
  0.792700D+02  0.818530D-01
  0.255900D+02  0.234817D+00
  0.899700D+01  0.434401D+00
  0.331900D+01  0.346129D+00
  0.905900D+00  0.393780D-01
  0.364300D+00 -0.898300D-02
  0.128500D+00  0.238500D-02
   s    10 1.00
  0.823600D+04 -0.113000D-03
  0.123500D+04 -0.878000D-03
  0.280800D+03 -0.454000D-02
  0.792700D+02 -0.181330D-01
  0.255900D+02 -0.557600D-01
  0.899700D+01 -0.126895D+00
  0.331900D+01 -0.170352D+00
  0.905900D+00  0.140382D+00
  0.364300D+00  0.598684D+00
  0.128500D+00  0.395389D+00
   s     1 1.00
  0.905900D+00  0.100000D+01
   s     1 1.00
  0.364300D+00  0.100000D+01
   p     5 1.00
  0.187100D+02  0.140310D-01
  0.413300D+01  0.868660D-01
  0.120000D+01  0.290216D+00
  0.382700D+00  0.501008D+00
  0.120900D+00  0.343406D+00
   p     1 1.00
  0.382700D+00  0.100000D+01
   p     1 1.00
  0.120900D+00  0.100000D+01
   d     1 1.00
  0.109700D+01  0.100000D+01
   d     1 1.00
  0.318000D+00  0.100000D+01
   f     1 1.00
  0.761000D+00  0.100000D+01
  
  5  0
   s    10 1.00
  0.823600D+04  0.531000D-03
  0.123500D+04  0.410800D-02
  0.280800D+03  0.210870D-01
  0.792700D+02  0.818530D-01
  0.255900D+02  0.234817D+00
  0.899700D+01  0.434401D+00
  0.331900D+01  0.346129D+00
  0.905900D+00  0.393780D-01
  0.364300D+00 -0.898300D-02
  0.128500D+00  0.238500D-02
   s    10 1.00
  0.823600D+04 -0.113000D-03
  0.123500D+04 -0.878000D-03
  0.280800D+03 -0.454000D-02
  0.792700D+02 -0.181330D-01
  0.255900D+02 -0.557600D-01
  0.899700D+01 -0.126895D+00
  0.331900D+01 -0.170352D+00
  0.905900D+00  0.140382D+00
  0.364300D+00  0.598684D+00
  0.128500D+00  0.395389D+00
   s     1 1.00
  0.905900D+00  0.100000D+01
   s     1 1.00
  0.364300D+00  0.100000D+01
   p     5 1.00
  0.187100D+02  0.140310D-01
  0.413300D+01  0.868660D-01
  0.120000D+01  0.290216D+00
  0.382700D+00  0.501008D+00
  0.120900D+00  0.343406D+00
   p     1 1.00
  0.382700D+00  0.100000D+01
   p     1 1.00
  0.120900D+00  0.100000D+01
   d     1 1.00
  0.109700D+01  0.100000D+01
   d     1 1.00
  0.318000D+00  0.100000D+01
   f     1 1.00
  0.761000D+00  0.100000D+01
  
  6  0
   s    10 1.00
  0.823600D+04  0.531000D-03
  0.123500D+04  0.410800D-02
  0.280800D+03  0.210870D-01
  0.792700D+02  0.818530D-01
  0.255900D+02  0.234817D+00
  0.899700D+01  0.434401D+00
  0.331900D+01  0.346129D+00
  0.905900D+00  0.393780D-01
  0.364300D+00 -0.898300D-02
  0.128500D+00  0.238500D-02
   s    10 1.00
  0.823600D+04 -0.113000D-03
  0.123500D+04 -0.878000D-03
  0.280800D+03 -0.454000D-02
  0.792700D+02 -0.181330D-01
  0.255900D+02 -0.557600D-01
  0.899700D+01 -0.126895D+00
  0.331900D+01 -0.170352D+00
  0.905900D+00  0.140382D+00
  0.364300D+00  0.598684D+00
  0.128500D+00  0.395389D+00
   s     1 1.00
  0.905900D+00  0.100000D+01
   s     1 1.00
  0.364300D+00  0.100000D+01
   p     5 1.00
  0.187100D+02  0.140310D-01
  0.413300D+01  0.868660D-01
  0.120000D+01  0.290216D+00
  0.382700D+00  0.501008D+00
  0.120900D+00  0.343406D+00
   p     1 1.00
  0.382700D+00  0.100000D+01
   p     1 1.00
  0.120900D+00  0.100000D+01
   d     1 1.00
  0.109700D+01  0.100000D+01
   d     1 1.00
  0.318000D+00  0.100000D+01
   f     1 1.00
  0.761000D+00  0.100000D+01
  
  7  0
   s    10 1.00
  0.823600D+04  0.531000D-03
  0.123500D+04  0.410800D-02
  0.280800D+03  0.210870D-01
  0.792700D+02  0.818530D-01
  0.255900D+02  0.234817D+00
  0.899700D+01  0.434401D+00
  0.331900D+01  0.346129D+00
  0.905900D+00  0.393780D-01
  0.364300D+00 -0.898300D-02
  0.128500D+00  0.238500D-02
   s    10 1.00
  0.823600D+04 -0.113000D-03
  0.123500D+04 -0.878000D-03
  0.280800D+03 -0.454000D-02
  0.792700D+02 -0.181330D-01
  0.255900D+02 -0.557600D-01
  0.899700D+01 -0.126895D+00
  0.331900D+01 -0.170352D+00
  0.905900D+00  0.140382D+00
  0.364300D+00  0.598684D+00
  0.128500D+00  0.395389D+00
   s     1 1.00
  0.905900D+00  0.100000D+01
   s     1 1.00
  0.364300D+00  0.100000D+01
   p     5 1.00
  0.187100D+02  0.140310D-01
  0.413300D+01  0.868660D-01
  0.120000D+01  0.290216D+00
  0.382700D+00  0.501008D+00
  0.120900D+00  0.343406D+00
   p     1 1.00
  0.382700D+00  0.100000D+01
   p     1 1.00
  0.120900D+00  0.100000D+01
   d     1 1.00
  0.109700D+01  0.100000D+01
   d     1 1.00
  0.318000D+00  0.100000D+01
   f     1 1.00
  0.761000D+00  0.100000D+01
  
  8  0
   s     4 1.00
  0.130100D+02  0.196850D-01
  0.196200D+01  0.137977D+00
  0.444600D+00  0.478148D+00
  0.122000D+00  0.501240D+00
   s     1 1.00
  0.122000D+00  0.100000D+01
   p     1 1.00
  0.727000D+00  0.100000D+01
  
  9  0
   s     4 1.00
  0.130100D+02  0.196850D-01
  0.196200D+01  0.137977D+00
  0.444600D+00  0.478148D+00
  0.122000D+00  0.501240D+00
   s     1 1.00
  0.122000D+00  0.100000D+01
   p     1 1.00
  0.727000D+00  0.100000D+01
  
 10  0
   s     4 1.00
  0.130100D+02  0.196850D-01
  0.196200D+01  0.137977D+00
  0.444600D+00  0.478148D+00
  0.122000D+00  0.501240D+00
   s     1 1.00
  0.122000D+00  0.100000D+01
   p     1 1.00
  0.727000D+00  0.100000D+01
  
 11  0
   s     4 1.00
  0.130100D+02  0.196850D-01
  0.196200D+01  0.137977D+00
  0.444600D+00  0.478148D+00
  0.122000D+00  0.501240D+00
   s     1 1.00
  0.122000D+00  0.100000D+01
   p     1 1.00
  0.727000D+00  0.100000D+01
  
 12  0
   s     4 1.00
  0.130100D+02  0.196850D-01
  0.196200D+01  0.137977D+00
  0.444600D+00  0.478148D+00
  0.122000D+00  0.501240D+00
   s     1 1.00
  0.122000D+00  0.100000D+01
   p     1 1.00
  0.727000D+00  0.100000D+01
  
 13  0
   s     4 1.00
  0.130100D+02  0.196850D-01
  0.196200D+01  0.137977D+00
  0.444600D+00  0.478148D+00
  0.122000D+00  0.501240D+00
   s     1 1.00
  0.122000D+00  0.100000D+01
   p     1 1.00
  0.727000D+00  0.100000D+01
  
 14  0
   s     4 1.00
  0.130100D+02  0.196850D-01
  0.196200D+01  0.137977D+00
  0.444600D+00  0.478148D+00
  0.122000D+00  0.501240D+00
   s     1 1.00
  0.122000D+00  0.100000D+01
   p     1 1.00
  0.727000D+00  0.100000D+01
  
[MO]
 Sym= __1_A__
 Ene=   1.00000000000000     
 Spin= Alpha
 Occup=    1.00000000000000     
                     1  5.903058605078326E-006
                     2  0.998407563540920     
                     3  5.004329154932805E-003
                     4  1.743384094707555E-003
                     5  3.076375311675982E-003
                     6  1.704218468502257E-003
                     7  5.478848882082814E-003
                     8  1.015364739799458E-011
                     9 -1.098293221012082E-004
                    10 -2.841017361311709E-004
                    11  2.778650470660587E-012
                    12 -8.433768692834649E-004
                    13 -8.419779924578699E-004
                    14 -3.171618007879544E-013
                    15 -1.523073422257522E-004
                    16 -7.527626401080357E-013
                    17 -1.906445191401853E-012
                    18 -1.997722120501562E-004
                    19 -5.754706997078645E-005
                    20  3.225294231806624E-004
                    21  6.622718891719231E-013
                    22 -1.855676673001504E-012
                    23 -3.793483802075094E-004
                    24  1.908424643316987E-004
                    25 -8.552150271007422E-013
                    26 -2.008226491326644E-005
                    27 -5.977218090062638E-005
                    28 -1.374409824230342E-013
                    29  5.602527423908849E-013
                    30  1.801434065626348E-005
                    31 -1.377196047292172E-004
                    32 -3.378896995935593E-004
                    33  2.153610403447186E-003
                    34  2.044330353531723E-004
                    35 -3.180598171464832E-004
                    36 -1.882685746191490E-004
                    37 -5.814704498689381E-003
                    38  6.512765743552902E-012
                    39  1.077309431589238E-004
                    40  3.144149551085860E-004
                    41  7.651921351753757E-012
                    42 -7.154469901351413E-004
                    43  4.892585447428736E-003
                    44 -5.682893503964465E-012
                    45 -3.547235777213961E-005
                    46  2.520427201869998E-012
                    47 -1.515200661637227E-012
                    48 -2.921385515940730E-004
                    49 -1.257556873824318E-005
                    50 -3.448648236150549E-004
                    51 -8.391165340557986E-012
                    52  1.235670457572031E-011
                    53  6.018857259250128E-005
                    54  2.299999815728912E-004
                    55 -3.200591401523267E-012
                    56 -3.045990608019378E-006
                    57 -2.680859759365916E-005
                    58  3.770183583618468E-012
                    59  4.160453136044678E-014
                    60  4.016191073421446E-005
                    61 -1.215159381137580E-004
                    62 -2.889496528075829E-004
                    63 -1.634705034884365E-003
                    64 -5.063312168328856E-006
                    65  1.061822091249797E-003
                    66 -6.784420776767698E-004
                    67  6.256429295105114E-004
                    68 -5.300596610236918E-012
                    69  9.519990159335345E-005
                    70  6.986049181259866E-004
                    71  2.010455097066809E-012
                    72 -1.239259410207401E-003
                    73  2.748372481537840E-004
                    74  1.335411998439178E-012
                    75 -2.301171199377078E-005
                    76 -6.449689731227858E-013
                    77 -3.355665721157387E-012
                    78 -7.436905520438989E-005
                    79 -1.085667331383324E-005
                    80 -5.110587679020682E-005
                    81 -6.647143723219416E-012
                    82  7.995840585556072E-012
                    83 -2.559016064536958E-005
                    84  1.219910005319305E-004
                    85 -1.735952111619094E-013
                    86  1.637083542735296E-005
                    87 -4.648917793931751E-005
                    88 -7.868728910836288E-013
                    89  8.651801343475928E-013
                    90 -3.692896853817207E-005
                    91 -1.078299610499877E-004
                    92 -2.259811327196247E-004
                    93 -1.552252151615103E-003
                    94  1.122082577875233E-004
                    95  3.815918905907503E-004
                    96  7.277625174995752E-004
                    97  8.540362550171816E-004
                    98 -8.524401009460768E-012
                    99  1.250484436632744E-004
                   100  4.447462046291480E-004
                   101  8.131074519842653E-012
                   102  5.599054889724310E-004
                   103 -7.535985637930657E-004
                   104  9.592631733615748E-012
                   105 -9.067253188737560E-006
                   106 -6.959695951168312E-013
                   107  7.084945693458323E-013
                   108 -9.188997920217797E-005
                   109 -1.624230728254935E-006
                   110  2.262845808924476E-005
                   111  1.421704198567323E-012
                   112  1.644527883823131E-012
                   113 -2.119114771058418E-005
                   114 -9.357258141444697E-005
                   115 -2.686004309597139E-012
                   116 -2.160113075626558E-005
                   117 -3.259375097196203E-005
                   118 -1.804331463858016E-012
                   119  1.361898607634495E-012
                   120 -5.488909892876442E-006
                   121 -6.722787039971134E-005
                   122 -1.928359167245067E-004
                   123 -2.715761334106527E-004
                   124  1.333489856019264E-004
                   125  1.915503095076761E-004
                   126  1.032435545930144E-005
                   127 -6.039816214378680E-004
                   128  1.070654774124279E-011
                   129  1.148281140379352E-004
                   130  4.792167196707535E-004
                   131 -1.162165242207038E-011
                   132  1.715714305873433E-004
                   133  1.226998722651082E-003
                   134 -6.197760766126978E-012
                   135  1.240883802614009E-005
                   136  3.148995555020715E-012
                   137  1.802887555232137E-012
                   138  2.612214112803452E-005
                   139 -6.383027080299337E-007
                   140  1.279254064827830E-004
                   141  1.322084678044499E-012
                   142  3.823156886179835E-012
                   143  2.471116356382168E-004
                   144  1.724870098783423E-004
                   145  1.781071691474756E-012
                   146 -7.761274019287762E-006
                   147 -4.210454788471331E-005
                   148 -1.341465002630890E-012
                   149 -2.435375592254395E-013
                   150  2.882298936923225E-006
                   151 -3.052470130512496E-005
                   152 -1.701836006282568E-004
                   153 -1.596173023513630E-004
                   154  8.463853037536811E-005
                   155  2.686782937053300E-004
                   156 -2.790004448831077E-005
                   157 -6.241655288963513E-004
                   158  5.575542505832184E-012
                   159 -1.763026616593615E-005
                   160  1.977890502881638E-004
                   161 -9.906035481134602E-012
                   162  4.647632888461902E-004
                   163  3.364592564478762E-004
                   164 -1.183314431763313E-011
                   165  2.589005386017120E-006
                   166 -3.381092643539230E-012
                   167 -1.753165893801893E-012
                   168  7.639235326804729E-006
                   169 -8.917768288815148E-007
                   170  1.098004261221454E-004
                   171  1.820942174969060E-012
                   172  3.560103952002074E-012
                   173  9.394168569676747E-005
                   174 -1.072857988209996E-004
                   175 -1.034121250151753E-012
                   176  2.145662544174625E-006
                   177 -2.317275797807326E-005
                   178 -2.813377309200224E-014
                   179  1.730211355877762E-012
                   180 -1.101326096328148E-006
                   181 -2.399014929764411E-005
                   182 -1.418581995153903E-004
                   183 -3.961081838054150E-004
                   184  4.045086059565039E-005
                   185  1.874375824661454E-004
                   186 -2.018179033183777E-005
                   187 -4.453012045111390E-005
                   188 -5.390047521119159E-012
                   189  1.096279647177157E-004
                   190  4.403203947728815E-005
                   191  2.501809602799577E-012
                   192  5.343719027567634E-004
                   193 -7.157929586105798E-005
                   194 -2.877554396898024E-012
                   195 -8.322719032111027E-007
                   196 -1.571449282875098E-012
                   197  8.048845028215760E-013
                   198 -1.602596914668179E-005
                   199 -9.163549964165150E-009
                   200  1.195545908672450E-005
                   201  2.899674385221412E-012
                   202 -5.566319538333845E-012
                   203 -7.989661087114725E-005
                   204 -7.871530375531725E-005
                   205  2.322249010256134E-012
                   206 -4.566080777363069E-006
                   207 -5.297646401562610E-006
                   208 -1.496800797510141E-012
                   209  1.038187810675947E-012
                   210 -9.697940208985617E-007
                   211 -6.988982047419519E-006
                   212  6.103321143411971E-004
                   213 -5.179639093092001E-004
                   214  2.941499942807711E-004
                   215  2.339399946260715E-004
                   216 -5.868760545588716E-013
                   217  2.727301117573393E-003
                   218 -1.859225891102113E-003
                   219 -4.093423871842511E-004
                   220  3.124238579958289E-004
                   221 -2.602983808233587E-012
                   222 -4.469716912050266E-004
                   223 -4.931407072711687E-004
                   224 -1.334855439192873E-005
                   225 -3.961995803372040E-005
                   226  2.817386443429456E-014
                   227 -4.588507013550474E-004
                   228 -2.855058877296675E-004
                   229 -8.816358129970321E-007
                   230 -4.103934605081659E-005
                   231  2.470952931023835E-012
                   232 -1.559875878122224E-004
                   233 -4.052464270654870E-004
                   234 -2.198653068406035E-006
                   235  4.445044449368908E-006
                   236 -1.632239322623881E-012
                   237 -1.751586292444494E-004
                   238 -4.497083812971411E-004
                   239  2.700247644342251E-006
                   240 -1.411746881643290E-006
                   241 -2.097477202015096E-012
                   242  3.476471789730979E-005
                   243 -6.961070558228487E-005
                   244  1.217270454375079E-006
                   245  1.854905322563063E-005
                   246  4.365077042878019E-013
 Sym= __2_A__
 Ene=   2.00000000000000     
 Spin= Alpha
 Occup=    1.00000000000000     
                     1 -5.500771882253947E-005
                     2 -2.702116896567867E-004
                     3  2.643883113741014E-003
                     4  1.260050500298958E-004
                     5  1.318438147538976E-003
                     6 -1.631241730498479E-004
                     7  3.184803720828251E-003
                     8  5.374644876685536E-012
                     9 -4.407445873521442E-006
                    10 -8.096075857288980E-005
                    11  6.437154189834612E-012
                    12  1.069648879733740E-005
                    13 -4.952748867072649E-004
                    14 -4.243713075074435E-012
                    15  3.705629701887744E-005
                    16  2.090568604220797E-013
                    17 -1.861072558427511E-012
                    18 -6.521947954223356E-005
                    19  8.294127708962822E-006
                    20 -1.388711904919636E-004
                    21 -5.542232530066748E-013
                    22  3.525609768234295E-012
                    23  2.764609150518566E-004
                    24 -8.974290215822021E-005
                    25  3.894983701709128E-012
                    26 -9.348504060784190E-006
                    27  1.053701528371098E-004
                    28 -4.694355638531126E-012
                    29 -3.104429281930874E-014
                    30 -4.471002122009617E-005
                    31  1.381871537960863E-004
                    32   1.00104125783245     
                    33  9.344666648563683E-003
                    34  2.629863882336264E-003
                    35 -7.815349090873768E-003
                    36 -1.749550275655734E-005
                    37 -4.059104630507739E-003
                    38  8.100586942436702E-013
                    39 -1.626625155451017E-004
                    40  7.338562630733847E-004
                    41  1.229822008804456E-011
                    42 -6.774786661076297E-005
                    43  4.418683925750010E-003
                    44 -8.338190408116729E-012
                    45 -5.882196098979404E-004
                    46  1.617528136788010E-012
                    47 -2.131172118468293E-012
                    48 -2.357458179653468E-004
                    49  3.657497001717447E-005
                    50  4.992566849008195E-004
                    51 -3.424571728549957E-012
                    52  8.355420573911816E-012
                    53 -7.709639454775610E-004
                    54 -2.687983235791191E-004
                    55  2.601802123547030E-013
                    56  1.013325011326207E-005
                    57  8.915730049673169E-005
                    58  1.840482685142520E-012
                    59 -8.238925394462999E-013
                    60 -2.818106421018435E-005
                    61  4.173216573153214E-004
                    62  7.238699984785946E-003
                    63 -2.057289304025395E-003
                    64 -2.359182283414505E-004
                    65  2.752321960778438E-003
                    66  4.997685894244695E-005
                    67  3.033592475891271E-005
                    68 -1.614881213046315E-011
                    69  5.096823279078098E-004
                    70  1.169340956260994E-004
                    71  1.113568732663279E-011
                    72 -2.150713901505971E-003
                    73  2.272638972650519E-004
                    74  5.754741120720200E-012
                    75  3.525192712232713E-005
                    76 -1.484669530939667E-012
                    77  7.276939727310022E-013
                    78 -5.233029109825262E-006
                    79  7.628004421623475E-006
                    80 -3.899718804596643E-004
                    81 -1.387432172318439E-011
                    82  4.208900692074917E-012
                    83 -6.477564471532288E-004
                    84 -3.095842503998353E-004
                    85 -2.356425860763325E-012
                    86  3.171150183052494E-005
                    87 -5.541019679044863E-005
                    88 -7.732916450293824E-013
                    89  4.923538208526495E-012
                    90  5.355938275498806E-005
                    91  1.465767726666852E-004
                    92  7.853741229096040E-003
                    93 -2.108784506741924E-003
                    94 -2.970030240093631E-004
                    95  3.128993581980411E-003
                    96  1.735120012948911E-005
                    97  2.826707828283087E-005
                    98  8.972424960407273E-012
                    99 -8.022738511547071E-004
                   100  4.424083274581569E-005
                   101 -5.420887069420710E-012
                   102  1.926988182565368E-003
                   103  6.882834216552534E-005
                   104  1.045608963643169E-011
                   105  2.654676100153021E-005
                   106  1.577238072059536E-012
                   107 -2.190939465683918E-012
                   108 -2.061634354970946E-006
                   109  1.218230648043403E-006
                   110 -4.053274048768181E-004
                   111  2.905945645574924E-012
                   112  8.169018632931944E-012
                   113 -4.858521059725652E-004
                   114  3.215843541749351E-004
                   115  1.861036964817279E-012
                   116 -3.045860065412311E-005
                   117 -6.412063981939234E-005
                   118 -2.659792642559928E-012
                   119  1.852602820694022E-012
                   120 -2.742845191329188E-005
                   121  1.364130548054257E-004
                   122 -2.401561327560853E-004
                   123 -7.374342054998953E-004
                   124  2.241200660029306E-004
                   125 -9.219728876418449E-005
                   126 -3.672124379424052E-006
                   127 -3.033015241175992E-004
                   128  7.871322766068790E-012
                   129 -5.449224700492400E-005
                   130  5.564368639665747E-004
                   131 -3.888245736707700E-012
                   132  3.691471560844803E-004
                   133  8.622353343521797E-004
                   134 -7.189625438207733E-012
                   135  1.738487196329073E-005
                   136 -1.054773194864485E-014
                   137 -1.656152562321096E-012
                   138  2.655689019523158E-006
                   139  4.752536488429343E-005
                   140  1.309677414997707E-004
                   141  3.684998139087901E-012
                   142 -8.139918580556885E-013
                   143  2.540295051363352E-004
                   144 -1.569993617082489E-004
                   145 -1.158897410972037E-012
                   146  8.049633697657146E-006
                   147 -3.368748581318341E-005
                   148  1.189793497889086E-012
                   149 -3.212526910049729E-013
                   150 -4.494352516470501E-005
                   151  3.265638094699567E-005
                   152 -2.029763334254952E-004
                   153 -7.221014672920409E-004
                   154  2.309647663053137E-004
                   155 -6.354625203030983E-005
                   156 -1.041114764962902E-005
                   157 -3.088551500921163E-004
                   158 -1.679479774626762E-011
                   159  8.511616858306578E-005
                   160  5.334123631360197E-004