[Molden Format]
[Atoms] AU
  N     1    7    -0.0849574700   -4.3403702500    0.0000000000        
  C     2    6     0.0316738800   -1.8319748800    0.0000000000        
  C     3    6    -2.3014294200   -0.4318054000    0.0000000000        
  C     4    6     2.3427635300   -0.3999097600    0.0000000000        
  C     5    6    -2.2819920200    2.1503183600    0.0000000000        
  C     6    6     2.2982049800    2.1819453300    0.0000000000        
  C     7    6    -0.0010235900    3.4868675600    0.0000000000        
  H     8    1    -2.8459285200   -5.9827515300    0.0000000000        
  H     9    1     1.6923205700   -5.1201520800    0.0000000000        
  H    10    1    -4.0332900300   -1.4761037300    0.0000000000        
  H    11    1     4.1061551800   -1.4027933700    0.0000000000        
  H    12    1    -4.0354076000    3.1716263900    0.0000000000        
  H    13    1     4.0392645100    3.2241875800    0.0000000000        
  H    14    1    -0.0133668900    5.5143579500    0.0000000000        
[5D]
[7F]
[GTO]
  1  0
   s    12 1.00
  0.114200D+05  0.172695D-04
  0.171200D+04  0.134411D-03
  0.389300D+03  0.694561D-03
  0.110000D+03  0.278531D-02
  0.355700D+02  0.863457D-02
  0.125400D+02  0.199805D-01
  0.464400D+01  0.262908D-01
  0.129300D+01 -0.243845D-01
  0.511800D+00 -0.924934D-01
  0.178700D+00 -0.339683D+00
  0.246240D-01  0.345111D+00
  0.112530D-01  0.752750D+00
   s    10 1.00
  0.114200D+05  0.523000D-03
  0.171200D+04  0.404500D-02
  0.389300D+03  0.207750D-01
  0.110000D+03  0.807269D-01
  0.355700D+02  0.233074D+00
  0.125400D+02  0.433501D+00
  0.464400D+01  0.347472D+00
  0.129300D+01  0.412620D-01
  0.511800D+00 -0.850799D-02
  0.178700D+00  0.238400D-02
   s    10 1.00
  0.114200D+05 -0.115000D-03
  0.171200D+04 -0.895000D-03
  0.389300D+03 -0.462400D-02
  0.110000D+03 -0.185280D-01
  0.355700D+02 -0.573390D-01
  0.125400D+02 -0.132076D+00
  0.464400D+01 -0.172510D+00
  0.129300D+01  0.151814D+00
  0.511800D+00  0.599944D+00
  0.178700D+00  0.387462D+00
   s     1 1.00
  0.129300D+01  0.100000D+01
   s     1 1.00
  0.178700D+00  0.100000D+01
   p     5 1.00
  0.266300D+02  0.146700D-01
  0.594800D+01  0.917640D-01
  0.174200D+01  0.298683D+00
  0.555000D+00  0.498487D+00
  0.172500D+00  0.337023D+00
   p     1 1.00
  0.174200D+01  0.100000D+01
   p     1 1.00
  0.555000D+00  0.100000D+01
   d     1 1.00
  0.165400D+01  0.100000D+01
   d     1 1.00
  0.469000D+00  0.100000D+01
   f     1 1.00
  0.109300D+01  0.100000D+01
  
  2  0
   s    10 1.00
  0.823600D+04  0.531000D-03
  0.123500D+04  0.410800D-02
  0.280800D+03  0.210870D-01
  0.792700D+02  0.818530D-01
  0.255900D+02  0.234817D+00
  0.899700D+01  0.434401D+00
  0.331900D+01  0.346129D+00
  0.905900D+00  0.393780D-01
  0.364300D+00 -0.898300D-02
  0.128500D+00  0.238500D-02
   s    10 1.00
  0.823600D+04 -0.113000D-03
  0.123500D+04 -0.878000D-03
  0.280800D+03 -0.454000D-02
  0.792700D+02 -0.181330D-01
  0.255900D+02 -0.557600D-01
  0.899700D+01 -0.126895D+00
  0.331900D+01 -0.170352D+00
  0.905900D+00  0.140382D+00
  0.364300D+00  0.598684D+00
  0.128500D+00  0.395389D+00
   s     1 1.00
  0.905900D+00  0.100000D+01
   s     1 1.00
  0.364300D+00  0.100000D+01
   p     5 1.00
  0.187100D+02  0.140310D-01
  0.413300D+01  0.868660D-01
  0.120000D+01  0.290216D+00
  0.382700D+00  0.501008D+00
  0.120900D+00  0.343406D+00
   p     1 1.00
  0.382700D+00  0.100000D+01
   p     1 1.00
  0.120900D+00  0.100000D+01
   d     1 1.00
  0.109700D+01  0.100000D+01
   d     1 1.00
  0.318000D+00  0.100000D+01
   f     1 1.00
  0.761000D+00  0.100000D+01
  
  3  0
   s    10 1.00
  0.823600D+04  0.531000D-03
  0.123500D+04  0.410800D-02
  0.280800D+03  0.210870D-01
  0.792700D+02  0.818530D-01
  0.255900D+02  0.234817D+00
  0.899700D+01  0.434401D+00
  0.331900D+01  0.346129D+00
  0.905900D+00  0.393780D-01
  0.364300D+00 -0.898300D-02
  0.128500D+00  0.238500D-02
   s    10 1.00
  0.823600D+04 -0.113000D-03
  0.123500D+04 -0.878000D-03
  0.280800D+03 -0.454000D-02
  0.792700D+02 -0.181330D-01
  0.255900D+02 -0.557600D-01
  0.899700D+01 -0.126895D+00
  0.331900D+01 -0.170352D+00
  0.905900D+00  0.140382D+00
  0.364300D+00  0.598684D+00
  0.128500D+00  0.395389D+00
   s     1 1.00
  0.905900D+00  0.100000D+01
   s     1 1.00
  0.364300D+00  0.100000D+01
   p     5 1.00
  0.187100D+02  0.140310D-01
  0.413300D+01  0.868660D-01
  0.120000D+01  0.290216D+00
  0.382700D+00  0.501008D+00
  0.120900D+00  0.343406D+00
   p     1 1.00
  0.382700D+00  0.100000D+01
   p     1 1.00
  0.120900D+00  0.100000D+01
   d     1 1.00
  0.109700D+01  0.100000D+01
   d     1 1.00
  0.318000D+00  0.100000D+01
   f     1 1.00
  0.761000D+00  0.100000D+01
  
  4  0
   s    10 1.00
  0.823600D+04  0.531000D-03
  0.123500D+04  0.410800D-02
  0.280800D+03  0.210870D-01
  0.792700D+02  0.818530D-01
  0.255900D+02  0.234817D+00
  0.899700D+01  0.434401D+00
  0.331900D+01  0.346129D+00
  0.905900D+00  0.393780D-01
  0.364300D+00 -0.898300D-02
  0.128500D+00  0.238500D-02
   s    10 1.00
  0.823600D+04 -0.113000D-03
  0.123500D+04 -0.878000D-03
  0.280800D+03 -0.454000D-02
  0.792700D+02 -0.181330D-01
  0.255900D+02 -0.557600D-01
  0.899700D+01 -0.126895D+00
  0.331900D+01 -0.170352D+00
  0.905900D+00  0.140382D+00
  0.364300D+00  0.598684D+00
  0.128500D+00  0.395389D+00
   s     1 1.00
  0.905900D+00  0.100000D+01
   s     1 1.00
  0.364300D+00  0.100000D+01
   p     5 1.00
  0.187100D+02  0.140310D-01
  0.413300D+01  0.868660D-01
  0.120000D+01  0.290216D+00
  0.382700D+00  0.501008D+00
  0.120900D+00  0.343406D+00
   p     1 1.00
  0.382700D+00  0.100000D+01
   p     1 1.00
  0.120900D+00  0.100000D+01
   d     1 1.00
  0.109700D+01  0.100000D+01
   d     1 1.00
  0.318000D+00  0.100000D+01
   f     1 1.00
  0.761000D+00  0.100000D+01
  
  5  0
   s    10 1.00
  0.823600D+04  0.531000D-03
  0.123500D+04  0.410800D-02
  0.280800D+03  0.210870D-01
  0.792700D+02  0.818530D-01
  0.255900D+02  0.234817D+00
  0.899700D+01  0.434401D+00
  0.331900D+01  0.346129D+00
  0.905900D+00  0.393780D-01
  0.364300D+00 -0.898300D-02
  0.128500D+00  0.238500D-02
   s    10 1.00
  0.823600D+04 -0.113000D-03
  0.123500D+04 -0.878000D-03
  0.280800D+03 -0.454000D-02
  0.792700D+02 -0.181330D-01
  0.255900D+02 -0.557600D-01
  0.899700D+01 -0.126895D+00
  0.331900D+01 -0.170352D+00
  0.905900D+00  0.140382D+00
  0.364300D+00  0.598684D+00
  0.128500D+00  0.395389D+00
   s     1 1.00
  0.905900D+00  0.100000D+01
   s     1 1.00
  0.364300D+00  0.100000D+01
   p     5 1.00
  0.187100D+02  0.140310D-01
  0.413300D+01  0.868660D-01
  0.120000D+01  0.290216D+00
  0.382700D+00  0.501008D+00
  0.120900D+00  0.343406D+00
   p     1 1.00
  0.382700D+00  0.100000D+01
   p     1 1.00
  0.120900D+00  0.100000D+01
   d     1 1.00
  0.109700D+01  0.100000D+01
   d     1 1.00
  0.318000D+00  0.100000D+01
   f     1 1.00
  0.761000D+00  0.100000D+01
  
  6  0
   s    10 1.00
  0.823600D+04  0.531000D-03
  0.123500D+04  0.410800D-02
  0.280800D+03  0.210870D-01
  0.792700D+02  0.818530D-01
  0.255900D+02  0.234817D+00
  0.899700D+01  0.434401D+00
  0.331900D+01  0.346129D+00
  0.905900D+00  0.393780D-01
  0.364300D+00 -0.898300D-02
  0.128500D+00  0.238500D-02
   s    10 1.00
  0.823600D+04 -0.113000D-03
  0.123500D+04 -0.878000D-03
  0.280800D+03 -0.454000D-02
  0.792700D+02 -0.181330D-01
  0.255900D+02 -0.557600D-01
  0.899700D+01 -0.126895D+00
  0.331900D+01 -0.170352D+00
  0.905900D+00  0.140382D+00
  0.364300D+00  0.598684D+00
  0.128500D+00  0.395389D+00
   s     1 1.00
  0.905900D+00  0.100000D+01
   s     1 1.00
  0.364300D+00  0.100000D+01
   p     5 1.00
  0.187100D+02  0.140310D-01
  0.413300D+01  0.868660D-01
  0.120000D+01  0.290216D+00
  0.382700D+00  0.501008D+00
  0.120900D+00  0.343406D+00
   p     1 1.00
  0.382700D+00  0.100000D+01
   p     1 1.00
  0.120900D+00  0.100000D+01
   d     1 1.00
  0.109700D+01  0.100000D+01
   d     1 1.00
  0.318000D+00  0.100000D+01
   f     1 1.00
  0.761000D+00  0.100000D+01
  
  7  0
   s    10 1.00
  0.823600D+04  0.531000D-03
  0.123500D+04  0.410800D-02
  0.280800D+03  0.210870D-01
  0.792700D+02  0.818530D-01
  0.255900D+02  0.234817D+00
  0.899700D+01  0.434401D+00
  0.331900D+01  0.346129D+00
  0.905900D+00  0.393780D-01
  0.364300D+00 -0.898300D-02
  0.128500D+00  0.238500D-02
   s    10 1.00
  0.823600D+04 -0.113000D-03
  0.123500D+04 -0.878000D-03
  0.280800D+03 -0.454000D-02
  0.792700D+02 -0.181330D-01
  0.255900D+02 -0.557600D-01
  0.899700D+01 -0.126895D+00
  0.331900D+01 -0.170352D+00
  0.905900D+00  0.140382D+00
  0.364300D+00  0.598684D+00
  0.128500D+00  0.395389D+00
   s     1 1.00
  0.905900D+00  0.100000D+01
   s     1 1.00
  0.364300D+00  0.100000D+01
   p     5 1.00
  0.187100D+02  0.140310D-01
  0.413300D+01  0.868660D-01
  0.120000D+01  0.290216D+00
  0.382700D+00  0.501008D+00
  0.120900D+00  0.343406D+00
   p     1 1.00
  0.382700D+00  0.100000D+01
   p     1 1.00
  0.120900D+00  0.100000D+01
   d     1 1.00
  0.109700D+01  0.100000D+01
   d     1 1.00
  0.318000D+00  0.100000D+01
   f     1 1.00
  0.761000D+00  0.100000D+01
  
  8  0
   s     4 1.00
  0.130100D+02  0.196850D-01
  0.196200D+01  0.137977D+00
  0.444600D+00  0.478148D+00
  0.122000D+00  0.501240D+00
   s     1 1.00
  0.122000D+00  0.100000D+01
   p     1 1.00
  0.727000D+00  0.100000D+01
  
  9  0
   s     4 1.00
  0.130100D+02  0.196850D-01
  0.196200D+01  0.137977D+00
  0.444600D+00  0.478148D+00
  0.122000D+00  0.501240D+00
   s     1 1.00
  0.122000D+00  0.100000D+01
   p     1 1.00
  0.727000D+00  0.100000D+01
  
 10  0
   s     4 1.00
  0.130100D+02  0.196850D-01
  0.196200D+01  0.137977D+00
  0.444600D+00  0.478148D+00
  0.122000D+00  0.501240D+00
   s     1 1.00
  0.122000D+00  0.100000D+01
   p     1 1.00
  0.727000D+00  0.100000D+01
  
 11  0
   s     4 1.00
  0.130100D+02  0.196850D-01
  0.196200D+01  0.137977D+00
  0.444600D+00  0.478148D+00
  0.122000D+00  0.501240D+00
   s     1 1.00
  0.122000D+00  0.100000D+01
   p     1 1.00
  0.727000D+00  0.100000D+01
  
 12  0
   s     4 1.00
  0.130100D+02  0.196850D-01
  0.196200D+01  0.137977D+00
  0.444600D+00  0.478148D+00
  0.122000D+00  0.501240D+00
   s     1 1.00
  0.122000D+00  0.100000D+01
   p     1 1.00
  0.727000D+00  0.100000D+01
  
 13  0
   s     4 1.00
  0.130100D+02  0.196850D-01
  0.196200D+01  0.137977D+00
  0.444600D+00  0.478148D+00
  0.122000D+00  0.501240D+00
   s     1 1.00
  0.122000D+00  0.100000D+01
   p     1 1.00
  0.727000D+00  0.100000D+01
  
 14  0
   s     4 1.00
  0.130100D+02  0.196850D-01
  0.196200D+01  0.137977D+00
  0.444600D+00  0.478148D+00
  0.122000D+00  0.501240D+00
   s     1 1.00
  0.122000D+00  0.100000D+01
   p     1 1.00
  0.727000D+00  0.100000D+01
  
[MO]
 Sym= __1_A'_
 Ene=  0.000000000000000E+000
 Spin= Alpha
 Occup=    2.00000000000000     
                     1  7.228329799641036E-005
                     2  0.998355929600566     
                     3  2.926683847732990E-003
                     4  1.706832483262631E-003
                     5  5.024438771815002E-003
                     6  3.414977141325198E-003
                     7  6.305257834551871E-003
                     8  0.000000000000000E+000
                     9 -6.000704991879872E-004
                    10 -5.630807181000141E-004
                    11  0.000000000000000E+000
                    12 -2.362335396944159E-003
                    13 -1.551976053712345E-003
                    14  0.000000000000000E+000
                    15 -1.232779433882643E-004
                    16  0.000000000000000E+000
                    17  0.000000000000000E+000
                    18 -1.861334833687605E-004
                    19 -7.308992976057027E-005
                    20  1.177440111575406E-004
                    21  0.000000000000000E+000
                    22  0.000000000000000E+000
                    23 -3.424130143899700E-004
                    24  5.329819431552465E-004
                    25  0.000000000000000E+000
                    26 -1.281315637870181E-005
                    27 -6.448849112280193E-005
                    28  0.000000000000000E+000
                    29  0.000000000000000E+000
                    30  3.442374415775981E-005
                    31 -1.528024525519931E-004
                    32 -3.812277547921427E-004
                    33  1.427133054694075E-003
                    34  3.186979384239807E-004
                    35 -4.215092773742114E-004
                    36 -2.996463529649020E-004
                    37 -5.154038548351167E-003
                    38  0.000000000000000E+000
                    39  4.427535323816345E-004
                    40  5.155374560029999E-004
                    41  0.000000000000000E+000
                    42 -2.072083295197459E-003
                    43  5.473930234295390E-003
                    44  0.000000000000000E+000
                    45 -1.668071989423769E-005
                    46  0.000000000000000E+000
                    47  0.000000000000000E+000
                    48 -2.332082665400408E-004
                    49 -1.047429421425429E-005
                    50 -2.637110133147402E-004
                    51  0.000000000000000E+000
                    52  0.000000000000000E+000
                    53  5.092396112317018E-005
                    54  7.992319312992170E-004
                    55  0.000000000000000E+000
                    56 -1.217275646951099E-005
                    57 -5.517269890818076E-005
                    58  0.000000000000000E+000
                    59  0.000000000000000E+000
                    60  3.641492450760049E-005
                    61 -1.236056114861169E-004
                    62 -4.701462129981813E-004
                    63 -2.254613143494583E-003
                    64 -8.726568810115379E-005
                    65  2.033833654735245E-003
                    66 -7.052260073549839E-004
                    67  5.522913385735598E-004
                    68  0.000000000000000E+000
                    69  4.018668643317697E-004
                    70  8.382845142319203E-004
                    71  0.000000000000000E+000
                    72 -1.908313403297168E-003
                    73  8.645720008457653E-004
                    74  0.000000000000000E+000
                    75 -3.986009642253620E-005
                    76  0.000000000000000E+000
                    77  0.000000000000000E+000
                    78 -8.087450788699841E-005
                    79 -2.611301905566552E-005
                    80 -1.224140393810035E-004
                    81  0.000000000000000E+000
                    82  0.000000000000000E+000
                    83  2.739336809658812E-005
                    84  9.168588739065397E-005
                    85  0.000000000000000E+000
                    86  1.378113100236483E-005
                    87 -5.061714778878501E-005
                    88  0.000000000000000E+000
                    89  0.000000000000000E+000
                    90 -2.292934722151981E-005
                    91 -1.490543815330208E-004
                    92 -1.785473038830384E-004
                    93 -1.257411370728222E-003
                    94  2.064814521133140E-004
                    95 -1.785141299081425E-004
                    96  6.122299369233880E-004
                    97  7.661055337024185E-004
                    98  0.000000000000000E+000
                    99  4.085826410435355E-004
                   100  3.678057636684005E-004
                   101  0.000000000000000E+000
                   102  4.590282790566047E-004
                   103 -1.689182239968134E-003
                   104  0.000000000000000E+000
                   105  1.258692249235166E-006
                   106  0.000000000000000E+000
                   107  0.000000000000000E+000
                   108 -8.256586304481229E-005
                   109 -2.092526681021642E-005
                   110  9.578938891740471E-005
                   111  0.000000000000000E+000
                   112  0.000000000000000E+000
                   113 -1.634368781350337E-004
                   114 -3.268244152331552E-005
                   115  0.000000000000000E+000
                   116 -2.676628373850391E-005
                   117 -2.658971886869097E-005
                   118  0.000000000000000E+000
                   119  0.000000000000000E+000
                   120 -1.763922240372308E-005
                   121 -2.777267880542669E-005
                   122 -2.536550804293877E-004
                   123 -4.734197815366420E-004
                   124  1.731400131650493E-004
                   125  3.062248120570131E-004
                   126 -1.378048171565569E-005
                   127 -5.989025280238994E-004
                   128  0.000000000000000E+000
                   129  1.847608125535539E-004
                   130  6.420698325258092E-004
                   131  0.000000000000000E+000
                   132  5.751810743356958E-004
                   133  2.067960222975029E-003
                   134  0.000000000000000E+000
                   135  1.430429548459619E-005
                   136  0.000000000000000E+000
                   137  0.000000000000000E+000
                   138  3.906496877261642E-005
                   139  2.168843555281927E-006
                   140  1.841928373801586E-004
                   141  0.000000000000000E+000
                   142  0.000000000000000E+000
                   143  3.790016810249252E-004
                   144  2.386554716315145E-004
                   145  0.000000000000000E+000
                   146 -9.336887845617541E-006
                   147 -6.023667186669522E-005
                   148  0.000000000000000E+000
                   149  0.000000000000000E+000
                   150 -1.660572328911495E-005
                   151 -4.538078417937012E-005
                   152 -1.586972068207499E-004
                   153 -1.695579021286138E-004
                   154  5.600375058349993E-005
                   155  2.532493908107245E-004
                   156 -2.896967136870095E-005
                   157 -5.340953967356823E-004
                   158  0.000000000000000E+000
                   159  3.839727574301270E-005
                   160  6.121528482102381E-005
                   161  0.000000000000000E+000
                   162  7.979294495170506E-004
                   163 -3.366002796320178E-004
                   164  0.000000000000000E+000
                   165 -1.775480893056993E-006
                   166  0.000000000000000E+000
                   167  0.000000000000000E+000
                   168 -7.541422122329046E-006
                   169  1.133906477263423E-006
                   170  8.988325083627377E-005
                   171  0.000000000000000E+000
                   172  0.000000000000000E+000
                   173  2.386824607785292E-005
                   174 -1.588587272577292E-005
                   175  0.000000000000000E+000
                   176  1.032327724550140E-006
                   177 -9.912249022966345E-006
                   178  0.000000000000000E+000
                   179  0.000000000000000E+000
                   180 -1.454824864789477E-005
                   181 -1.875762112254031E-005
                   182 -1.632757168601956E-004
                   183 -4.766710593791572E-004
                   184  3.938129981769383E-005
                   185  2.357486044576250E-004
                   186 -4.526095093081077E-005
                   187 -4.629838127076218E-005
                   188  0.000000000000000E+000
                   189  2.467974622611695E-004
                   190  8.064199342518359E-005
                   191  0.000000000000000E+000
                   192  1.385865620280264E-003
                   193 -2.172968438654503E-004
                   194  0.000000000000000E+000
                   195  8.749829919271897E-007
                   196  0.000000000000000E+000
                   197  0.000000000000000E+000
                   198 -1.212202613745029E-005
                   199  3.488404353371931E-006
                   200 -7.717482250082215E-006
                   201  0.000000000000000E+000
                   202  0.000000000000000E+000
                   203 -8.150867157982127E-005
                   204 -1.941409954960505E-004
                   205  0.000000000000000E+000
                   206 -8.600194798602974E-006
                   207 -4.508243272301511E-006
                   208  0.000000000000000E+000
                   209  0.000000000000000E+000
                   210  7.898198942747500E-006
                   211 -8.115006232677908E-006
                   212  2.644147132371651E-005
                   213  6.554166444091380E-005
                   214  1.071882888051400E-004
                   215  1.118962777931948E-004
                   216  0.000000000000000E+000
                   217  1.710224612303859E-003
                   218 -1.727926361775564E-003
                   219 -4.460476924980732E-004
                   220  1.905740904694890E-004
                   221  0.000000000000000E+000
                   222 -4.720025168925229E-004
                   223 -6.804871103342458E-004
                   224 -3.071558594862611E-006
                   225 -6.480747080202370E-005
                   226  0.000000000000000E+000
                   227 -3.105603508796242E-004
                   228 -4.497938447367912E-004
                   229 -1.488965076895337E-005
                   230 -2.038599503719757E-005
                   231  0.000000000000000E+000
                   232 -1.059086292030319E-004
                   233 -4.610711598163291E-004
                   234  7.070824473202087E-007
                   235  2.263657312656281E-007
                   236  0.000000000000000E+000
                   237 -1.723109409089465E-004
                   238 -4.090557930347495E-004
                   239  3.685231746004566E-006
                   240 -7.329929931841982E-007
                   241  0.000000000000000E+000
                   242  8.908299633568981E-006
                   243  1.744742729702227E-005
                   244 -3.602958349228336E-007
                   245  2.702986556566459E-005
                   246  0.000000000000000E+000
 Sym= __2_A'_
 Ene=  0.000000000000000E+000
 Spin= Alpha
 Occup=    2.00000000000000     
                     1 -5.005725619898561E-005
                     2 -3.030496117582555E-004
                     3  2.627419902503860E-003
                     4  1.411126169988014E-004
                     5  1.401982721320107E-003
                     6 -3.539108441921949E-004
                     7  3.050305506383777E-003
                     8  0.000000000000000E+000
                     9 -3.542547423747366E-005
                    10 -1.142949524978627E-004
                    11  0.000000000000000E+000
                    12 -1.090239587977824E-005
                    13 -4.113422135671963E-004
                    14  0.000000000000000E+000
                    15  3.576283552149803E-005
                    16  0.000000000000000E+000
                    17  0.000000000000000E+000
                    18 -4.592832041907414E-005
                    19  2.015299665835095E-005
                    20 -1.197797919924904E-004
                    21  0.000000000000000E+000
                    22  0.000000000000000E+000
                    23  1.536393616042047E-004
                    24 -1.322911979144750E-004
                    25  0.000000000000000E+000
                    26 -1.788567516932174E-005
                    27  9.272686707291651E-005
                    28  0.000000000000000E+000
                    29  0.000000000000000E+000
                    30 -6.168131544150763E-005
                    31  1.378935622761692E-004
                    32   1.00100684692321     
                    33  9.311970979870811E-003
                    34  2.702576025444987E-003
                    35 -8.033881205936858E-003
                    36 -7.733912786539953E-006
                    37 -3.336865799630399E-003
                    38  0.000000000000000E+000
                    39 -1.987690731143959E-004
                    40  1.687231659242889E-004
                    41  0.000000000000000E+000
                    42 -1.353210795027999E-004
                    43  4.181208108492636E-003
                    44  0.000000000000000E+000
                    45 -5.607317225886616E-004
                    46  0.000000000000000E+000
                    47  0.000000000000000E+000
                    48 -2.305072525474336E-004
                    49  4.361613391702142E-005
                    50  5.221626550219923E-004
                    51  0.000000000000000E+000
                    52  0.000000000000000E+000
                    53 -6.825666613338132E-004
                    54 -3.675940859178795E-004
                    55  0.000000000000000E+000
                    56  1.256482213141539E-005
                    57  1.037709136872993E-004
                    58  0.000000000000000E+000
                    59  0.000000000000000E+000
                    60 -3.468688189098286E-005
                    61  3.993271640826834E-004
                    62  8.813552947980582E-003
                    63 -2.081621071624108E-003
                    64 -2.389700070587700E-004
                    65  2.709034411881734E-003
                    66 -1.144188725823134E-007
                    67  6.987212956679218E-005
                    68  0.000000000000000E+000
                    69  5.482031465894456E-004
                    70  1.372973302365847E-004
                    71  0.000000000000000E+000
                    72 -2.143218077572001E-003
                    73  2.862552332253977E-004
                    74  0.000000000000000E+000
                    75  3.477512110589376E-005
                    76  0.000000000000000E+000
                    77  0.000000000000000E+000
                    78 -4.153337077810860E-006
                    79  1.691676459333817E-006
                    80 -4.134291389873611E-004
                    81  0.000000000000000E+000
                    82  0.000000000000000E+000
                    83 -6.263271965895308E-004
                    84 -2.427216264500156E-004
                    85  0.000000000000000E+000
                    86  2.689572809511089E-005
                    87 -5.816919595504912E-005
                    88  0.000000000000000E+000
                    89  0.000000000000000E+000
                    90  4.182720403355359E-005
                    91  1.523879825296851E-004
                    92  1.046791816606088E-002
                    93 -2.078181966373932E-003
                    94 -3.156397419236393E-004
                    95  3.207375680404536E-003
                    96  5.862687387994461E-005
                    97  2.616278201330493E-005
                    98  0.000000000000000E+000
                    99 -9.419459517227499E-004
                   100  2.215852878298305E-005
                   101  0.000000000000000E+000
                   102  1.796952092805470E-003
                   103  2.520093696707171E-005
                   104  0.000000000000000E+000
                   105  2.191930949223865E-005
                   106  0.000000000000000E+000
                   107  0.000000000000000E+000
                   108 -1.503394466267643E-006
                   109  1.218986087171729E-005
                   110 -4.248582227145273E-004
                   111  0.000000000000000E+000
                   112  0.000000000000000E+000
                   113 -3.821755117307110E-004
                   114  2.680596589965477E-004
                   115  0.000000000000000E+000
                   116 -2.605238075983496E-005
                   117 -6.921983201376118E-005
                   118  0.000000000000000E+000
                   119  0.000000000000000E+000
                   120 -9.826434352887698E-006
                   121  1.347477797431712E-004
                   122 -1.850980680191351E-004
                   123 -7.064199309170891E-004
                   124  2.254154110561475E-004
                   125 -8.525620639144523E-005
                   126  7.009769334349467E-006
                   127 -3.433703443038749E-004
                   128  0.000000000000000E+000
                   129 -8.719386981011761E-005
                   130  5.899937697386722E-004
                   131  0.000000000000000E+000
                   132  3.703619976527801E-004
                   133  9.199939425819782E-004
                   134  0.000000000000000E+000
                   135  1.693218041985577E-005
                   136  0.000000000000000E+000
                   137  0.000000000000000E+000
                   138  3.580878142808080E-006
                   139  4.372600426390351E-005
                   140  1.321113494000524E-004
                   141  0.000000000000000E+000
                   142  0.000000000000000E+000
                   143  2.448384725123634E-004
                   144 -1.031937526575279E-004
                   145  0.000000000000000E+000
                   146  1.000076135113853E-005
                   147 -3.755552794021134E-005
                   148  0.000000000000000E+000
                   149  0.000000000000000E+000
                   150 -4.690085762889320E-005
                   151  3.777476403968902E-005
                   152 -1.163360788817713E-004
                   153 -6.954617773164775E-004
                   154  2.317203643312216E-004
                   155 -3.325400817343197E-005
                   156 -2.889958031935321E-005
                   157 -3.344347107809034E-004
                   158  0.000000000000000E+000
                   159  1.362519156310531E-004
                   160  5.362441940995785E-004