[Molden Format]
[Atoms] AU
  N     1    7    -0.0849574700   -4.3403702500    0.0000000000        
  C     2    6     0.0316738800   -1.8319748800    0.0000000000        
  C     3    6    -2.3014294200   -0.4318054000    0.0000000000        
  C     4    6     2.3427635300   -0.3999097600    0.0000000000        
  C     5    6    -2.2819920200    2.1503183600    0.0000000000        
  C     6    6     2.2982049800    2.1819453300    0.0000000000        
  C     7    6    -0.0010235900    3.4868675600    0.0000000000        
  H     8    1    -2.8459285200   -5.9827515300    0.0000000000        
  H     9    1     1.6923205700   -5.1201520800    0.0000000000        
  H    10    1    -4.0332900300   -1.4761037300    0.0000000000        
  H    11    1     4.1061551800   -1.4027933700    0.0000000000        
  H    12    1    -4.0354076000    3.1716263900    0.0000000000        
  H    13    1     4.0392645100    3.2241875800    0.0000000000        
  H    14    1    -0.0133668900    5.5143579500    0.0000000000        
[5D]
[7F]
[GTO]
  1  0
   s    12 1.00
  0.114200D+05  0.172695D-04
  0.171200D+04  0.134411D-03
  0.389300D+03  0.694561D-03
  0.110000D+03  0.278531D-02
  0.355700D+02  0.863457D-02
  0.125400D+02  0.199805D-01
  0.464400D+01  0.262908D-01
  0.129300D+01 -0.243845D-01
  0.511800D+00 -0.924934D-01
  0.178700D+00 -0.339683D+00
  0.246240D-01  0.345111D+00
  0.112530D-01  0.752750D+00
   s    10 1.00
  0.114200D+05  0.523000D-03
  0.171200D+04  0.404500D-02
  0.389300D+03  0.207750D-01
  0.110000D+03  0.807269D-01
  0.355700D+02  0.233074D+00
  0.125400D+02  0.433501D+00
  0.464400D+01  0.347472D+00
  0.129300D+01  0.412620D-01
  0.511800D+00 -0.850799D-02
  0.178700D+00  0.238400D-02
   s    10 1.00
  0.114200D+05 -0.115000D-03
  0.171200D+04 -0.895000D-03
  0.389300D+03 -0.462400D-02
  0.110000D+03 -0.185280D-01
  0.355700D+02 -0.573390D-01
  0.125400D+02 -0.132076D+00
  0.464400D+01 -0.172510D+00
  0.129300D+01  0.151814D+00
  0.511800D+00  0.599944D+00
  0.178700D+00  0.387462D+00
   s     1 1.00
  0.129300D+01  0.100000D+01
   s     1 1.00
  0.178700D+00  0.100000D+01
   p     5 1.00
  0.266300D+02  0.146700D-01
  0.594800D+01  0.917640D-01
  0.174200D+01  0.298683D+00
  0.555000D+00  0.498487D+00
  0.172500D+00  0.337023D+00
   p     1 1.00
  0.174200D+01  0.100000D+01
   p     1 1.00
  0.555000D+00  0.100000D+01
   d     1 1.00
  0.165400D+01  0.100000D+01
   d     1 1.00
  0.469000D+00  0.100000D+01
   f     1 1.00
  0.109300D+01  0.100000D+01
  
  2  0
   s    10 1.00
  0.823600D+04  0.531000D-03
  0.123500D+04  0.410800D-02
  0.280800D+03  0.210870D-01
  0.792700D+02  0.818530D-01
  0.255900D+02  0.234817D+00
  0.899700D+01  0.434401D+00
  0.331900D+01  0.346129D+00
  0.905900D+00  0.393780D-01
  0.364300D+00 -0.898300D-02
  0.128500D+00  0.238500D-02
   s    10 1.00
  0.823600D+04 -0.113000D-03
  0.123500D+04 -0.878000D-03
  0.280800D+03 -0.454000D-02
  0.792700D+02 -0.181330D-01
  0.255900D+02 -0.557600D-01
  0.899700D+01 -0.126895D+00
  0.331900D+01 -0.170352D+00
  0.905900D+00  0.140382D+00
  0.364300D+00  0.598684D+00
  0.128500D+00  0.395389D+00
   s     1 1.00
  0.905900D+00  0.100000D+01
   s     1 1.00
  0.364300D+00  0.100000D+01
   p     5 1.00
  0.187100D+02  0.140310D-01
  0.413300D+01  0.868660D-01
  0.120000D+01  0.290216D+00
  0.382700D+00  0.501008D+00
  0.120900D+00  0.343406D+00
   p     1 1.00
  0.382700D+00  0.100000D+01
   p     1 1.00
  0.120900D+00  0.100000D+01
   d     1 1.00
  0.109700D+01  0.100000D+01
   d     1 1.00
  0.318000D+00  0.100000D+01
   f     1 1.00
  0.761000D+00  0.100000D+01
  
  3  0
   s    10 1.00
  0.823600D+04  0.531000D-03
  0.123500D+04  0.410800D-02
  0.280800D+03  0.210870D-01
  0.792700D+02  0.818530D-01
  0.255900D+02  0.234817D+00
  0.899700D+01  0.434401D+00
  0.331900D+01  0.346129D+00
  0.905900D+00  0.393780D-01
  0.364300D+00 -0.898300D-02
  0.128500D+00  0.238500D-02
   s    10 1.00
  0.823600D+04 -0.113000D-03
  0.123500D+04 -0.878000D-03
  0.280800D+03 -0.454000D-02
  0.792700D+02 -0.181330D-01
  0.255900D+02 -0.557600D-01
  0.899700D+01 -0.126895D+00
  0.331900D+01 -0.170352D+00
  0.905900D+00  0.140382D+00
  0.364300D+00  0.598684D+00
  0.128500D+00  0.395389D+00
   s     1 1.00
  0.905900D+00  0.100000D+01
   s     1 1.00
  0.364300D+00  0.100000D+01
   p     5 1.00
  0.187100D+02  0.140310D-01
  0.413300D+01  0.868660D-01
  0.120000D+01  0.290216D+00
  0.382700D+00  0.501008D+00
  0.120900D+00  0.343406D+00
   p     1 1.00
  0.382700D+00  0.100000D+01
   p     1 1.00
  0.120900D+00  0.100000D+01
   d     1 1.00
  0.109700D+01  0.100000D+01
   d     1 1.00
  0.318000D+00  0.100000D+01
   f     1 1.00
  0.761000D+00  0.100000D+01
  
  4  0
   s    10 1.00
  0.823600D+04  0.531000D-03
  0.123500D+04  0.410800D-02
  0.280800D+03  0.210870D-01
  0.792700D+02  0.818530D-01
  0.255900D+02  0.234817D+00
  0.899700D+01  0.434401D+00
  0.331900D+01  0.346129D+00
  0.905900D+00  0.393780D-01
  0.364300D+00 -0.898300D-02
  0.128500D+00  0.238500D-02
   s    10 1.00
  0.823600D+04 -0.113000D-03
  0.123500D+04 -0.878000D-03
  0.280800D+03 -0.454000D-02
  0.792700D+02 -0.181330D-01
  0.255900D+02 -0.557600D-01
  0.899700D+01 -0.126895D+00
  0.331900D+01 -0.170352D+00
  0.905900D+00  0.140382D+00
  0.364300D+00  0.598684D+00
  0.128500D+00  0.395389D+00
   s     1 1.00
  0.905900D+00  0.100000D+01
   s     1 1.00
  0.364300D+00  0.100000D+01
   p     5 1.00
  0.187100D+02  0.140310D-01
  0.413300D+01  0.868660D-01
  0.120000D+01  0.290216D+00
  0.382700D+00  0.501008D+00
  0.120900D+00  0.343406D+00
   p     1 1.00
  0.382700D+00  0.100000D+01
   p     1 1.00
  0.120900D+00  0.100000D+01
   d     1 1.00
  0.109700D+01  0.100000D+01
   d     1 1.00
  0.318000D+00  0.100000D+01
   f     1 1.00
  0.761000D+00  0.100000D+01
  
  5  0
   s    10 1.00
  0.823600D+04  0.531000D-03
  0.123500D+04  0.410800D-02
  0.280800D+03  0.210870D-01
  0.792700D+02  0.818530D-01
  0.255900D+02  0.234817D+00
  0.899700D+01  0.434401D+00
  0.331900D+01  0.346129D+00
  0.905900D+00  0.393780D-01
  0.364300D+00 -0.898300D-02
  0.128500D+00  0.238500D-02
   s    10 1.00
  0.823600D+04 -0.113000D-03
  0.123500D+04 -0.878000D-03
  0.280800D+03 -0.454000D-02
  0.792700D+02 -0.181330D-01
  0.255900D+02 -0.557600D-01
  0.899700D+01 -0.126895D+00
  0.331900D+01 -0.170352D+00
  0.905900D+00  0.140382D+00
  0.364300D+00  0.598684D+00
  0.128500D+00  0.395389D+00
   s     1 1.00
  0.905900D+00  0.100000D+01
   s     1 1.00
  0.364300D+00  0.100000D+01
   p     5 1.00
  0.187100D+02  0.140310D-01
  0.413300D+01  0.868660D-01
  0.120000D+01  0.290216D+00
  0.382700D+00  0.501008D+00
  0.120900D+00  0.343406D+00
   p     1 1.00
  0.382700D+00  0.100000D+01
   p     1 1.00
  0.120900D+00  0.100000D+01
   d     1 1.00
  0.109700D+01  0.100000D+01
   d     1 1.00
  0.318000D+00  0.100000D+01
   f     1 1.00
  0.761000D+00  0.100000D+01
  
  6  0
   s    10 1.00
  0.823600D+04  0.531000D-03
  0.123500D+04  0.410800D-02
  0.280800D+03  0.210870D-01
  0.792700D+02  0.818530D-01
  0.255900D+02  0.234817D+00
  0.899700D+01  0.434401D+00
  0.331900D+01  0.346129D+00
  0.905900D+00  0.393780D-01
  0.364300D+00 -0.898300D-02
  0.128500D+00  0.238500D-02
   s    10 1.00
  0.823600D+04 -0.113000D-03
  0.123500D+04 -0.878000D-03
  0.280800D+03 -0.454000D-02
  0.792700D+02 -0.181330D-01
  0.255900D+02 -0.557600D-01
  0.899700D+01 -0.126895D+00
  0.331900D+01 -0.170352D+00
  0.905900D+00  0.140382D+00
  0.364300D+00  0.598684D+00
  0.128500D+00  0.395389D+00
   s     1 1.00
  0.905900D+00  0.100000D+01
   s     1 1.00
  0.364300D+00  0.100000D+01
   p     5 1.00
  0.187100D+02  0.140310D-01
  0.413300D+01  0.868660D-01
  0.120000D+01  0.290216D+00
  0.382700D+00  0.501008D+00
  0.120900D+00  0.343406D+00
   p     1 1.00
  0.382700D+00  0.100000D+01
   p     1 1.00
  0.120900D+00  0.100000D+01
   d     1 1.00
  0.109700D+01  0.100000D+01
   d     1 1.00
  0.318000D+00  0.100000D+01
   f     1 1.00
  0.761000D+00  0.100000D+01
  
  7  0
   s    10 1.00
  0.823600D+04  0.531000D-03
  0.123500D+04  0.410800D-02
  0.280800D+03  0.210870D-01
  0.792700D+02  0.818530D-01
  0.255900D+02  0.234817D+00
  0.899700D+01  0.434401D+00
  0.331900D+01  0.346129D+00
  0.905900D+00  0.393780D-01
  0.364300D+00 -0.898300D-02
  0.128500D+00  0.238500D-02
   s    10 1.00
  0.823600D+04 -0.113000D-03
  0.123500D+04 -0.878000D-03
  0.280800D+03 -0.454000D-02
  0.792700D+02 -0.181330D-01
  0.255900D+02 -0.557600D-01
  0.899700D+01 -0.126895D+00
  0.331900D+01 -0.170352D+00
  0.905900D+00  0.140382D+00
  0.364300D+00  0.598684D+00
  0.128500D+00  0.395389D+00
   s     1 1.00
  0.905900D+00  0.100000D+01
   s     1 1.00
  0.364300D+00  0.100000D+01
   p     5 1.00
  0.187100D+02  0.140310D-01
  0.413300D+01  0.868660D-01
  0.120000D+01  0.290216D+00
  0.382700D+00  0.501008D+00
  0.120900D+00  0.343406D+00
   p     1 1.00
  0.382700D+00  0.100000D+01
   p     1 1.00
  0.120900D+00  0.100000D+01
   d     1 1.00
  0.109700D+01  0.100000D+01
   d     1 1.00
  0.318000D+00  0.100000D+01
   f     1 1.00
  0.761000D+00  0.100000D+01
  
  8  0
   s     4 1.00
  0.130100D+02  0.196850D-01
  0.196200D+01  0.137977D+00
  0.444600D+00  0.478148D+00
  0.122000D+00  0.501240D+00
   s     1 1.00
  0.122000D+00  0.100000D+01
   p     1 1.00
  0.727000D+00  0.100000D+01
  
  9  0
   s     4 1.00
  0.130100D+02  0.196850D-01
  0.196200D+01  0.137977D+00
  0.444600D+00  0.478148D+00
  0.122000D+00  0.501240D+00
   s     1 1.00
  0.122000D+00  0.100000D+01
   p     1 1.00
  0.727000D+00  0.100000D+01
  
 10  0
   s     4 1.00
  0.130100D+02  0.196850D-01
  0.196200D+01  0.137977D+00
  0.444600D+00  0.478148D+00
  0.122000D+00  0.501240D+00
   s     1 1.00
  0.122000D+00  0.100000D+01
   p     1 1.00
  0.727000D+00  0.100000D+01
  
 11  0
   s     4 1.00
  0.130100D+02  0.196850D-01
  0.196200D+01  0.137977D+00
  0.444600D+00  0.478148D+00
  0.122000D+00  0.501240D+00
   s     1 1.00
  0.122000D+00  0.100000D+01
   p     1 1.00
  0.727000D+00  0.100000D+01
  
 12  0
   s     4 1.00
  0.130100D+02  0.196850D-01
  0.196200D+01  0.137977D+00
  0.444600D+00  0.478148D+00
  0.122000D+00  0.501240D+00
   s     1 1.00
  0.122000D+00  0.100000D+01
   p     1 1.00
  0.727000D+00  0.100000D+01
  
 13  0
   s     4 1.00
  0.130100D+02  0.196850D-01
  0.196200D+01  0.137977D+00
  0.444600D+00  0.478148D+00
  0.122000D+00  0.501240D+00
   s     1 1.00
  0.122000D+00  0.100000D+01
   p     1 1.00
  0.727000D+00  0.100000D+01
  
 14  0
   s     4 1.00
  0.130100D+02  0.196850D-01
  0.196200D+01  0.137977D+00
  0.444600D+00  0.478148D+00
  0.122000D+00  0.501240D+00
   s     1 1.00
  0.122000D+00  0.100000D+01
   p     1 1.00
  0.727000D+00  0.100000D+01
  
[MO]
 Sym= __1_A'_
 Ene=   1.00000000000000     
 Spin= Alpha
 Occup=    1.00000000000000     
                     1  7.228329801466163E-005
                     2  0.998355929600459     
                     3  2.926683848516950E-003
                     4  1.706832483228994E-003
                     5  5.024438771369735E-003
                     6  3.414977141428820E-003
                     7  6.305257834871548E-003
                     8  0.000000000000000E+000
                     9 -6.000704991646267E-004
                    10 -5.630807180645880E-004
                    11  0.000000000000000E+000
                    12 -2.362335396970313E-003
                    13 -1.551976053721945E-003
                    14  0.000000000000000E+000
                    15 -1.232779434110327E-004
                    16  0.000000000000000E+000
                    17  0.000000000000000E+000
                    18 -1.861334833819446E-004
                    19 -7.308992978112592E-005
                    20  1.177440110965197E-004
                    21  0.000000000000000E+000
                    22  0.000000000000000E+000
                    23 -3.424130145147966E-004
                    24  5.329819431020501E-004
                    25  0.000000000000000E+000
                    26 -1.281315637693666E-005
                    27 -6.448849114701828E-005
                    28  0.000000000000000E+000
                    29  0.000000000000000E+000
                    30  3.442374414174748E-005
                    31 -1.528024525697281E-004
                    32 -3.812277580481316E-004
                    33  1.427133063774577E-003
                    34  3.186979383324798E-004
                    35 -4.215092779573724E-004
                    36 -2.996463548897079E-004
                    37 -5.154038545530481E-003
                    38  0.000000000000000E+000
                    39  4.427535326231169E-004
                    40  5.155374560641107E-004
                    41  0.000000000000000E+000
                    42 -2.072083294667649E-003
                    43  5.473930234789932E-003
                    44  0.000000000000000E+000
                    45 -1.668072002925976E-005
                    46  0.000000000000000E+000
                    47  0.000000000000000E+000
                    48 -2.332082663423938E-004
                    49 -1.047429425766015E-005
                    50 -2.637110135948921E-004
                    51  0.000000000000000E+000
                    52  0.000000000000000E+000
                    53  5.092396122616666E-005
                    54  7.992319311761022E-004
                    55  0.000000000000000E+000
                    56 -1.217275644818330E-005
                    57 -5.517269893936353E-005
                    58  0.000000000000000E+000
                    59  0.000000000000000E+000
                    60  3.641492452811863E-005
                    61 -1.236056113343839E-004
                    62 -4.701462137790529E-004
                    63 -2.254613139959564E-003
                    64 -8.726568813727272E-005
                    65  2.033833654723590E-003
                    66 -7.052260057941896E-004
                    67  5.522913303804889E-004
                    68  0.000000000000000E+000
                    69  4.018668643939241E-004
                    70  8.382845152225110E-004
                    71  0.000000000000000E+000
                    72 -1.908313404723130E-003
                    73  8.645720029088601E-004
                    74  0.000000000000000E+000
                    75 -3.986009648562615E-005
                    76  0.000000000000000E+000
                    77  0.000000000000000E+000
                    78 -8.087450762825798E-005
                    79 -2.611301911350847E-005
                    80 -1.224140394185107E-004
                    81  0.000000000000000E+000
                    82  0.000000000000000E+000
                    83  2.739336804234260E-005
                    84  9.168588698023600E-005
                    85  0.000000000000000E+000
                    86  1.378113097053010E-005
                    87 -5.061714773375366E-005
                    88  0.000000000000000E+000
                    89  0.000000000000000E+000
                    90 -2.292934721976649E-005
                    91 -1.490543815825829E-004
                    92 -1.785473041134234E-004
                    93 -1.257411370994879E-003
                    94  2.064814521438185E-004
                    95 -1.785141298142921E-004
                    96  6.122299349862795E-004
                    97  7.661055290990677E-004
                    98  0.000000000000000E+000
                    99  4.085826411890430E-004
                   100  3.678057641490949E-004
                   101  0.000000000000000E+000
                   102  4.590282801878960E-004
                   103 -1.689182238721682E-003
                   104  0.000000000000000E+000
                   105  1.258692247394985E-006
                   106  0.000000000000000E+000
                   107  0.000000000000000E+000
                   108 -8.256586287780592E-005
                   109 -2.092526673185663E-005
                   110  9.578938890412332E-005
                   111  0.000000000000000E+000
                   112  0.000000000000000E+000
                   113 -1.634368780670078E-004
                   114 -3.268244142790769E-005
                   115  0.000000000000000E+000
                   116 -2.676628372684753E-005
                   117 -2.658971883454688E-005
                   118  0.000000000000000E+000
                   119  0.000000000000000E+000
                   120 -1.763922240071325E-005
                   121 -2.777267880425945E-005
                   122 -2.536550804239766E-004
                   123 -4.734197853573653E-004
                   124  1.731400132859481E-004
                   125  3.062248121296883E-004
                   126 -1.378048163237384E-005
                   127 -5.989025231931930E-004
                   128  0.000000000000000E+000
                   129  1.847608126533175E-004
                   130  6.420698324307353E-004
                   131  0.000000000000000E+000
                   132  5.751810745450095E-004
                   133  2.067960222930952E-003
                   134  0.000000000000000E+000
                   135  1.430429555345924E-005
                   136  0.000000000000000E+000
                   137  0.000000000000000E+000
                   138  3.906496891526348E-005
                   139  2.168843535080611E-006
                   140  1.841928374817814E-004
                   141  0.000000000000000E+000
                   142  0.000000000000000E+000
                   143  3.790016813033520E-004
                   144  2.386554714941926E-004
                   145  0.000000000000000E+000
                   146 -9.336887843699701E-006
                   147 -6.023667190974113E-005
                   148  0.000000000000000E+000
                   149  0.000000000000000E+000
                   150 -1.660572327024829E-005
                   151 -4.538078425469170E-005
                   152 -1.586972065540588E-004
                   153 -1.695579039027137E-004
                   154  5.600375064367980E-005
                   155  2.532493909742283E-004
                   156 -2.896967045998169E-005
                   157 -5.340953927347420E-004
                   158  0.000000000000000E+000
                   159  3.839727559314043E-005
                   160  6.121528457458780E-005
                   161  0.000000000000000E+000
                   162  7.979294494428747E-004
                   163 -3.366002797980269E-004
                   164  0.000000000000000E+000
                   165 -1.775480860743945E-006
                   166  0.000000000000000E+000
                   167  0.000000000000000E+000
                   168 -7.541422002243402E-006
                   169  1.133906540229111E-006
                   170  8.988325090659739E-005
                   171  0.000000000000000E+000
                   172  0.000000000000000E+000
                   173  2.386824620539412E-005
                   174 -1.588587276090587E-005
                   175  0.000000000000000E+000
                   176  1.032327722492898E-006
                   177 -9.912249056507454E-006
                   178  0.000000000000000E+000
                   179  0.000000000000000E+000
                   180 -1.454824866525032E-005
                   181 -1.875762115375680E-005
                   182 -1.632757169234681E-004
                   183 -4.766710592959978E-004
                   184  3.938129981935529E-005
                   185  2.357486045643572E-004
                   186 -4.526095119119885E-005
                   187 -4.629838152655892E-005
                   188  0.000000000000000E+000
                   189  2.467974622025156E-004
                   190  8.064199352252741E-005
                   191  0.000000000000000E+000
                   192  1.385865620355020E-003
                   193 -2.172968443614729E-004
                   194  0.000000000000000E+000
                   195  8.749829936380425E-007
                   196  0.000000000000000E+000
                   197  0.000000000000000E+000
                   198 -1.212202603686382E-005
                   199  3.488404358964287E-006
                   200 -7.717482309435169E-006
                   201  0.000000000000000E+000
                   202  0.000000000000000E+000
                   203 -8.150867151775924E-005
                   204 -1.941409955211611E-004
                   205  0.000000000000000E+000
                   206 -8.600194796957577E-006
                   207 -4.508243273643337E-006
                   208  0.000000000000000E+000
                   209  0.000000000000000E+000
                   210  7.898198950069091E-006
                   211 -8.115006252852725E-006
                   212  2.644147138513331E-005
                   213  6.554166452208660E-005
                   214  1.071882888174269E-004
                   215  1.118962778079096E-004
                   216  0.000000000000000E+000
                   217  1.710224612904742E-003
                   218 -1.727926361641134E-003
                   219 -4.460476925252881E-004
                   220  1.905740904882118E-004
                   221  0.000000000000000E+000
                   222 -4.720025122906900E-004
                   223 -6.804871124529565E-004
                   224 -3.071558293470176E-006
                   225 -6.480747073936927E-005
                   226  0.000000000000000E+000
                   227 -3.105603502314281E-004
                   228 -4.497938451906930E-004
                   229 -1.488965082333752E-005
                   230 -2.038599507799348E-005
                   231  0.000000000000000E+000
                   232 -1.059086283536694E-004
                   233 -4.610711599274722E-004
                   234  7.070824899142924E-007
                   235  2.263657769929076E-007
                   236  0.000000000000000E+000
                   237 -1.723109385502447E-004
                   238 -4.090557938324190E-004
                   239  3.685231632659555E-006
                   240 -7.329930102750774E-007
                   241  0.000000000000000E+000
                   242  8.908298800844649E-006
                   243  1.744742730542545E-005
                   244 -3.602958375623462E-007
                   245  2.702986560468190E-005
                   246  0.000000000000000E+000
 Sym= __2_A'_
 Ene=   2.00000000000000     
 Spin= Alpha
 Occup=    1.00000000000000     
                     1 -5.005725617538598E-005
                     2 -3.030496087776500E-004
                     3  2.627419902843761E-003
                     4  1.411126169915629E-004
                     5  1.401982721247033E-003
                     6 -3.539108441761796E-004
                     7  3.050305506517373E-003
                     8  0.000000000000000E+000
                     9 -3.542547424305973E-005
                    10 -1.142949524878191E-004
                    11  0.000000000000000E+000
                    12 -1.090239587054953E-005
                    13 -4.113422135950073E-004
                    14  0.000000000000000E+000
                    15  3.576283551399236E-005
                    16  0.000000000000000E+000
                    17  0.000000000000000E+000
                    18 -4.592832042692278E-005
                    19  2.015299664031734E-005
                    20 -1.197797920457484E-004
                    21  0.000000000000000E+000
                    22  0.000000000000000E+000
                    23  1.536393615719897E-004
                    24 -1.322911979368610E-004
                    25  0.000000000000000E+000
                    26 -1.788567516978238E-005
                    27  9.272686705503598E-005
                    28  0.000000000000000E+000
                    29  0.000000000000000E+000
                    30 -6.168131544844020E-005
                    31  1.378935622744269E-004
                    32   1.00100684692561     
                    33  9.311970984171062E-003
                    34  2.702576025516687E-003
                    35 -8.033881206888187E-003
                    36 -7.733914429721946E-006
                    37 -3.336865798482085E-003
                    38  0.000000000000000E+000
                    39 -1.987690731098083E-004
                    40  1.687231658179986E-004
                    41  0.000000000000000E+000
                    42 -1.353210789530018E-004
                    43  4.181208108911985E-003
                    44  0.000000000000000E+000
                    45 -5.607317226551935E-004
                    46  0.000000000000000E+000
                    47  0.000000000000000E+000
                    48 -2.305072524482504E-004
                    49  4.361613386632770E-005
                    50  5.221626550101439E-004
                    51  0.000000000000000E+000
                    52  0.000000000000000E+000
                    53 -6.825666614910118E-004
                    54 -3.675940859797489E-004
                    55  0.000000000000000E+000
                    56  1.256482213927775E-005
                    57  1.037709136703776E-004
                    58  0.000000000000000E+000
                    59  0.000000000000000E+000
                    60 -3.468688188272737E-005
                    61  3.993271641776271E-004
                    62  8.813552914763658E-003
                    63 -2.081621069926357E-003
                    64 -2.389700072262711E-004
                    65  2.709034412227433E-003
                    66 -1.144180601497416E-007
                    67  6.987212525228093E-005
                    68  0.000000000000000E+000
                    69  5.482031467196790E-004
                    70  1.372973306819775E-004
                    71  0.000000000000000E+000
                    72 -2.143218078225430E-003
                    73  2.862552342000822E-004
                    74  0.000000000000000E+000
                    75  3.477512108310679E-005
                    76  0.000000000000000E+000
                    77  0.000000000000000E+000
                    78 -4.153336935977620E-006
                    79  1.691676428428066E-006
                    80 -4.134291390395530E-004
                    81  0.000000000000000E+000
                    82  0.000000000000000E+000
                    83 -6.263271966693217E-004
                    84 -2.427216267575970E-004
                    85  0.000000000000000E+000
                    86  2.689572807212011E-005
                    87 -5.816919592326560E-005
                    88  0.000000000000000E+000
                    89  0.000000000000000E+000
                    90  4.182720403514019E-005
                    91  1.523879825183935E-004
                    92  1.046791798113157E-002
                    93 -2.078181968463151E-003
                    94 -3.156397424959767E-004
                    95  3.207375682127462E-003
                    96  5.862687365023935E-005
                    97  2.616277992422588E-005
                    98  0.000000000000000E+000
                    99 -9.419459518742542E-004
                   100  2.215852895578216E-005
                   101  0.000000000000000E+000
                   102  1.796952093369869E-003
                   103  2.520093741477699E-005
                   104  0.000000000000000E+000
                   105  2.191930957225774E-005
                   106  0.000000000000000E+000
                   107  0.000000000000000E+000
                   108 -1.503394358467277E-006
                   109  1.218986088056496E-005
                   110 -4.248582228171597E-004
                   111  0.000000000000000E+000
                   112  0.000000000000000E+000
                   113 -3.821755118020896E-004
                   114  2.680596592631846E-004
                   115  0.000000000000000E+000
                   116 -2.605238073903673E-005
                   117 -6.921983199781951E-005
                   118  0.000000000000000E+000
                   119  0.000000000000000E+000
                   120 -9.826434349617588E-006
                   121  1.347477798024584E-004
                   122 -1.850980682543757E-004
                   123 -7.064199326741076E-004
                   124  2.254154111316857E-004
                   125 -8.525620662407497E-005
                   126  7.009769403534543E-006
                   127 -3.433703417468341E-004
                   128  0.000000000000000E+000
                   129 -8.719386975864132E-005
                   130  5.899937696958150E-004
                   131  0.000000000000000E+000
                   132  3.703619978264217E-004
                   133  9.199939424208769E-004
                   134  0.000000000000000E+000
                   135  1.693218045448978E-005
                   136  0.000000000000000E+000
                   137  0.000000000000000E+000
                   138  3.580878217149622E-006
                   139  4.372600425483951E-005
                   140  1.321113494716871E-004
                   141  0.000000000000000E+000
                   142  0.000000000000000E+000
                   143  2.448384726649866E-004
                   144 -1.031937527689368E-004
                   145  0.000000000000000E+000
                   146  1.000076135168771E-005
                   147 -3.755552795789827E-005
                   148  0.000000000000000E+000
                   149  0.000000000000000E+000
                   150 -4.690085761914764E-005
                   151  3.777476400039961E-005
                   152 -1.163360718678122E-004
                   153 -6.954617778092684E-004
                   154  2.317203644501327E-004
                   155 -3.325400876649660E-005
                   156 -2.889957983638378E-005
                   157 -3.344347086220535E-004
                   158  0.000000000000000E+000
                   159  1.362519155933646E-004
                   160  5.362441940504803E-004