[Molden Format]
[Atoms] AU
  N     1    7    -0.0002181400   -0.0006562800   -4.2911052200        
  C     2    6    -0.0001515400   -0.0005481500   -1.7771535500        
  C     3    6     0.0067812600   -2.3393310200   -0.4110833300        
  C     4    6    -0.0070119700    2.3383522600   -0.4112841700        
  C     5    6     0.0110118500   -2.3001961800    2.1640074000        
  C     6    6    -0.0111060800    2.2994389500    2.1638101400        
  C     7    6    -0.0000123600   -0.0003222000    3.4754079600        
  H     8    1    -0.1133042300   -1.6497960300   -5.3105745500        
  H     9    1     0.1128139400    1.6483957600   -5.3107224200        
  H    10    1     0.0179638000   -4.0749124400   -1.4447225300        
  H    11    1    -0.0182492900    4.0738447400   -1.4450720800        
  H    12    1     0.0238365600   -4.0422884200    3.1965701800        
  H    13    1    -0.0238760600    4.0416200100    3.1962237300        
  H    14    1     0.0000413500   -0.0002350400    5.5019282500        
[5D]
[7F]
[GTO]
  1  0
   s    12 1.00
  0.114200D+05  0.172695D-04
  0.171200D+04  0.134411D-03
  0.389300D+03  0.694561D-03
  0.110000D+03  0.278531D-02
  0.355700D+02  0.863457D-02
  0.125400D+02  0.199805D-01
  0.464400D+01  0.262908D-01
  0.129300D+01 -0.243845D-01
  0.511800D+00 -0.924934D-01
  0.178700D+00 -0.339683D+00
  0.246240D-01  0.345111D+00
  0.112530D-01  0.752750D+00
   s    10 1.00
  0.114200D+05  0.523000D-03
  0.171200D+04  0.404500D-02
  0.389300D+03  0.207750D-01
  0.110000D+03  0.807269D-01
  0.355700D+02  0.233074D+00
  0.125400D+02  0.433501D+00
  0.464400D+01  0.347472D+00
  0.129300D+01  0.412620D-01
  0.511800D+00 -0.850799D-02
  0.178700D+00  0.238400D-02
   s    10 1.00
  0.114200D+05 -0.115000D-03
  0.171200D+04 -0.895000D-03
  0.389300D+03 -0.462400D-02
  0.110000D+03 -0.185280D-01
  0.355700D+02 -0.573390D-01
  0.125400D+02 -0.132076D+00
  0.464400D+01 -0.172510D+00
  0.129300D+01  0.151814D+00
  0.511800D+00  0.599944D+00
  0.178700D+00  0.387462D+00
   s     1 1.00
  0.129300D+01  0.100000D+01
   s     1 1.00
  0.178700D+00  0.100000D+01
   p     5 1.00
  0.266300D+02  0.146700D-01
  0.594800D+01  0.917640D-01
  0.174200D+01  0.298683D+00
  0.555000D+00  0.498487D+00
  0.172500D+00  0.337023D+00
   p     1 1.00
  0.174200D+01  0.100000D+01
   p     1 1.00
  0.555000D+00  0.100000D+01
   d     1 1.00
  0.165400D+01  0.100000D+01
   d     1 1.00
  0.469000D+00  0.100000D+01
   f     1 1.00
  0.109300D+01  0.100000D+01
  
  2  0
   s    10 1.00
  0.823600D+04  0.531000D-03
  0.123500D+04  0.410800D-02
  0.280800D+03  0.210870D-01
  0.792700D+02  0.818530D-01
  0.255900D+02  0.234817D+00
  0.899700D+01  0.434401D+00
  0.331900D+01  0.346129D+00
  0.905900D+00  0.393780D-01
  0.364300D+00 -0.898300D-02
  0.128500D+00  0.238500D-02
   s    10 1.00
  0.823600D+04 -0.113000D-03
  0.123500D+04 -0.878000D-03
  0.280800D+03 -0.454000D-02
  0.792700D+02 -0.181330D-01
  0.255900D+02 -0.557600D-01
  0.899700D+01 -0.126895D+00
  0.331900D+01 -0.170352D+00
  0.905900D+00  0.140382D+00
  0.364300D+00  0.598684D+00
  0.128500D+00  0.395389D+00
   s     1 1.00
  0.905900D+00  0.100000D+01
   s     1 1.00
  0.364300D+00  0.100000D+01
   p     5 1.00
  0.187100D+02  0.140310D-01
  0.413300D+01  0.868660D-01
  0.120000D+01  0.290216D+00
  0.382700D+00  0.501008D+00
  0.120900D+00  0.343406D+00
   p     1 1.00
  0.382700D+00  0.100000D+01
   p     1 1.00
  0.120900D+00  0.100000D+01
   d     1 1.00
  0.109700D+01  0.100000D+01
   d     1 1.00
  0.318000D+00  0.100000D+01
   f     1 1.00
  0.761000D+00  0.100000D+01
  
  3  0
   s    10 1.00
  0.823600D+04  0.531000D-03
  0.123500D+04  0.410800D-02
  0.280800D+03  0.210870D-01
  0.792700D+02  0.818530D-01
  0.255900D+02  0.234817D+00
  0.899700D+01  0.434401D+00
  0.331900D+01  0.346129D+00
  0.905900D+00  0.393780D-01
  0.364300D+00 -0.898300D-02
  0.128500D+00  0.238500D-02
   s    10 1.00
  0.823600D+04 -0.113000D-03
  0.123500D+04 -0.878000D-03
  0.280800D+03 -0.454000D-02
  0.792700D+02 -0.181330D-01
  0.255900D+02 -0.557600D-01
  0.899700D+01 -0.126895D+00
  0.331900D+01 -0.170352D+00
  0.905900D+00  0.140382D+00
  0.364300D+00  0.598684D+00
  0.128500D+00  0.395389D+00
   s     1 1.00
  0.905900D+00  0.100000D+01
   s     1 1.00
  0.364300D+00  0.100000D+01
   p     5 1.00
  0.187100D+02  0.140310D-01
  0.413300D+01  0.868660D-01
  0.120000D+01  0.290216D+00
  0.382700D+00  0.501008D+00
  0.120900D+00  0.343406D+00
   p     1 1.00
  0.382700D+00  0.100000D+01
   p     1 1.00
  0.120900D+00  0.100000D+01
   d     1 1.00
  0.109700D+01  0.100000D+01
   d     1 1.00
  0.318000D+00  0.100000D+01
   f     1 1.00
  0.761000D+00  0.100000D+01
  
  4  0
   s    10 1.00
  0.823600D+04  0.531000D-03
  0.123500D+04  0.410800D-02
  0.280800D+03  0.210870D-01
  0.792700D+02  0.818530D-01
  0.255900D+02  0.234817D+00
  0.899700D+01  0.434401D+00
  0.331900D+01  0.346129D+00
  0.905900D+00  0.393780D-01
  0.364300D+00 -0.898300D-02
  0.128500D+00  0.238500D-02
   s    10 1.00
  0.823600D+04 -0.113000D-03
  0.123500D+04 -0.878000D-03
  0.280800D+03 -0.454000D-02
  0.792700D+02 -0.181330D-01
  0.255900D+02 -0.557600D-01
  0.899700D+01 -0.126895D+00
  0.331900D+01 -0.170352D+00
  0.905900D+00  0.140382D+00
  0.364300D+00  0.598684D+00
  0.128500D+00  0.395389D+00
   s     1 1.00
  0.905900D+00  0.100000D+01
   s     1 1.00
  0.364300D+00  0.100000D+01
   p     5 1.00
  0.187100D+02  0.140310D-01
  0.413300D+01  0.868660D-01
  0.120000D+01  0.290216D+00
  0.382700D+00  0.501008D+00
  0.120900D+00  0.343406D+00
   p     1 1.00
  0.382700D+00  0.100000D+01
   p     1 1.00
  0.120900D+00  0.100000D+01
   d     1 1.00
  0.109700D+01  0.100000D+01
   d     1 1.00
  0.318000D+00  0.100000D+01
   f     1 1.00
  0.761000D+00  0.100000D+01
  
  5  0
   s    10 1.00
  0.823600D+04  0.531000D-03
  0.123500D+04  0.410800D-02
  0.280800D+03  0.210870D-01
  0.792700D+02  0.818530D-01
  0.255900D+02  0.234817D+00
  0.899700D+01  0.434401D+00
  0.331900D+01  0.346129D+00
  0.905900D+00  0.393780D-01
  0.364300D+00 -0.898300D-02
  0.128500D+00  0.238500D-02
   s    10 1.00
  0.823600D+04 -0.113000D-03
  0.123500D+04 -0.878000D-03
  0.280800D+03 -0.454000D-02
  0.792700D+02 -0.181330D-01
  0.255900D+02 -0.557600D-01
  0.899700D+01 -0.126895D+00
  0.331900D+01 -0.170352D+00
  0.905900D+00  0.140382D+00
  0.364300D+00  0.598684D+00
  0.128500D+00  0.395389D+00
   s     1 1.00
  0.905900D+00  0.100000D+01
   s     1 1.00
  0.364300D+00  0.100000D+01
   p     5 1.00
  0.187100D+02  0.140310D-01
  0.413300D+01  0.868660D-01
  0.120000D+01  0.290216D+00
  0.382700D+00  0.501008D+00
  0.120900D+00  0.343406D+00
   p     1 1.00
  0.382700D+00  0.100000D+01
   p     1 1.00
  0.120900D+00  0.100000D+01
   d     1 1.00
  0.109700D+01  0.100000D+01
   d     1 1.00
  0.318000D+00  0.100000D+01
   f     1 1.00
  0.761000D+00  0.100000D+01
  
  6  0
   s    10 1.00
  0.823600D+04  0.531000D-03
  0.123500D+04  0.410800D-02
  0.280800D+03  0.210870D-01
  0.792700D+02  0.818530D-01
  0.255900D+02  0.234817D+00
  0.899700D+01  0.434401D+00
  0.331900D+01  0.346129D+00
  0.905900D+00  0.393780D-01
  0.364300D+00 -0.898300D-02
  0.128500D+00  0.238500D-02
   s    10 1.00
  0.823600D+04 -0.113000D-03
  0.123500D+04 -0.878000D-03
  0.280800D+03 -0.454000D-02
  0.792700D+02 -0.181330D-01
  0.255900D+02 -0.557600D-01
  0.899700D+01 -0.126895D+00
  0.331900D+01 -0.170352D+00
  0.905900D+00  0.140382D+00
  0.364300D+00  0.598684D+00
  0.128500D+00  0.395389D+00
   s     1 1.00
  0.905900D+00  0.100000D+01
   s     1 1.00
  0.364300D+00  0.100000D+01
   p     5 1.00
  0.187100D+02  0.140310D-01
  0.413300D+01  0.868660D-01
  0.120000D+01  0.290216D+00
  0.382700D+00  0.501008D+00
  0.120900D+00  0.343406D+00
   p     1 1.00
  0.382700D+00  0.100000D+01
   p     1 1.00
  0.120900D+00  0.100000D+01
   d     1 1.00
  0.109700D+01  0.100000D+01
   d     1 1.00
  0.318000D+00  0.100000D+01
   f     1 1.00
  0.761000D+00  0.100000D+01
  
  7  0
   s    10 1.00
  0.823600D+04  0.531000D-03
  0.123500D+04  0.410800D-02
  0.280800D+03  0.210870D-01
  0.792700D+02  0.818530D-01
  0.255900D+02  0.234817D+00
  0.899700D+01  0.434401D+00
  0.331900D+01  0.346129D+00
  0.905900D+00  0.393780D-01
  0.364300D+00 -0.898300D-02
  0.128500D+00  0.238500D-02
   s    10 1.00
  0.823600D+04 -0.113000D-03
  0.123500D+04 -0.878000D-03
  0.280800D+03 -0.454000D-02
  0.792700D+02 -0.181330D-01
  0.255900D+02 -0.557600D-01
  0.899700D+01 -0.126895D+00
  0.331900D+01 -0.170352D+00
  0.905900D+00  0.140382D+00
  0.364300D+00  0.598684D+00
  0.128500D+00  0.395389D+00
   s     1 1.00
  0.905900D+00  0.100000D+01
   s     1 1.00
  0.364300D+00  0.100000D+01
   p     5 1.00
  0.187100D+02  0.140310D-01
  0.413300D+01  0.868660D-01
  0.120000D+01  0.290216D+00
  0.382700D+00  0.501008D+00
  0.120900D+00  0.343406D+00
   p     1 1.00
  0.382700D+00  0.100000D+01
   p     1 1.00
  0.120900D+00  0.100000D+01
   d     1 1.00
  0.109700D+01  0.100000D+01
   d     1 1.00
  0.318000D+00  0.100000D+01
   f     1 1.00
  0.761000D+00  0.100000D+01
  
  8  0
   s     4 1.00
  0.130100D+02  0.196850D-01
  0.196200D+01  0.137977D+00
  0.444600D+00  0.478148D+00
  0.122000D+00  0.501240D+00
   s     1 1.00
  0.122000D+00  0.100000D+01
   p     1 1.00
  0.727000D+00  0.100000D+01
  
  9  0
   s     4 1.00
  0.130100D+02  0.196850D-01
  0.196200D+01  0.137977D+00
  0.444600D+00  0.478148D+00
  0.122000D+00  0.501240D+00
   s     1 1.00
  0.122000D+00  0.100000D+01
   p     1 1.00
  0.727000D+00  0.100000D+01
  
 10  0
   s     4 1.00
  0.130100D+02  0.196850D-01
  0.196200D+01  0.137977D+00
  0.444600D+00  0.478148D+00
  0.122000D+00  0.501240D+00
   s     1 1.00
  0.122000D+00  0.100000D+01
   p     1 1.00
  0.727000D+00  0.100000D+01
  
 11  0
   s     4 1.00
  0.130100D+02  0.196850D-01
  0.196200D+01  0.137977D+00
  0.444600D+00  0.478148D+00
  0.122000D+00  0.501240D+00
   s     1 1.00
  0.122000D+00  0.100000D+01
   p     1 1.00
  0.727000D+00  0.100000D+01
  
 12  0
   s     4 1.00
  0.130100D+02  0.196850D-01
  0.196200D+01  0.137977D+00
  0.444600D+00  0.478148D+00
  0.122000D+00  0.501240D+00
   s     1 1.00
  0.122000D+00  0.100000D+01
   p     1 1.00
  0.727000D+00  0.100000D+01
  
 13  0
   s     4 1.00
  0.130100D+02  0.196850D-01
  0.196200D+01  0.137977D+00
  0.444600D+00  0.478148D+00
  0.122000D+00  0.501240D+00
   s     1 1.00
  0.122000D+00  0.100000D+01
   p     1 1.00
  0.727000D+00  0.100000D+01
  
 14  0
   s     4 1.00
  0.130100D+02  0.196850D-01
  0.196200D+01  0.137977D+00
  0.444600D+00  0.478148D+00
  0.122000D+00  0.501240D+00
   s     1 1.00
  0.122000D+00  0.100000D+01
   p     1 1.00
  0.727000D+00  0.100000D+01
  
[MO]
 Sym= __1_A__
 Ene=  0.000000000000000E+000
 Spin= Alpha
 Occup=    2.00000000000000     
                     1  4.183825337642115E-005
                     2  0.998069991712297     
                     3  9.264716897983848E-003
                     4  2.061765826477893E-003
                     5  1.529256712599976E-003
                     6  1.183507295050968E-007
                     7  1.810476312635008E-007
                     8  4.483948275769930E-003
                     9 -4.169041700962607E-009
                    10  6.023651012306831E-009
                    11 -1.193346401931802E-004
                    12 -3.315621065538726E-009
                    13 -3.586361105508453E-008
                    14 -8.176901376402610E-005
                    15  2.688550923464849E-004
                    16  1.499752909431082E-008
                    17  1.521327079839427E-008
                    18 -1.170913224630481E-004
                    19  1.245955753777569E-005
                    20  1.637395890116319E-004
                    21 -5.375196763374391E-009
                    22  1.369572648570416E-008
                    23  5.783473612546676E-004
                    24 -6.849255776659854E-005
                    25 -1.897077640112026E-004
                    26  9.287211611335958E-009
                    27  2.801948361122581E-008
                    28  9.136716947953356E-005
                    29 -7.247093483245908E-006
                    30 -3.259375437191404E-009
                    31  3.336119060374626E-009
                    32 -3.698723394302609E-004
                    33  2.714208427733728E-003
                    34  1.460422536353795E-004
                    35 -2.459766753802797E-004
                    36 -1.924880645827262E-007
                    37 -2.877089317239547E-007
                    38 -7.108738164039686E-003
                    39  1.285795431768826E-008
                    40 -3.344386829843987E-008
                    41  3.854202410812473E-004
                    42  1.172455764143497E-007
                    43  2.278661355792918E-007
                    44  4.408072082633127E-003
                    45  3.492302044041080E-004
                    46  1.243511631409935E-008
                    47  4.174781878634316E-008
                    48  1.383786449674753E-004
                    49 -2.174272550177679E-006
                    50  4.794734315032121E-005
                    51  1.459861257352815E-008
                    52 -1.587433209830280E-007
                    53 -4.576501993020022E-004
                    54  1.784197207786980E-005
                    55 -1.114071451789673E-004
                    56  4.225515432939341E-009
                    57  1.474974372064918E-008
                    58  7.800181113234426E-005
                    59 -3.498979898430671E-006
                    60 -2.570683367008306E-009
                    61  3.006459527008528E-010
                    62 -2.112875932019800E-004
                    63 -1.681238522310183E-003
                    64  6.003792806460907E-005
                    65  5.559043756939757E-004
                    66 -4.345204647087906E-006
                    67 -8.408892586198392E-004
                    68  1.015146023571584E-003
                    69  8.699740701434536E-006
                    70 -3.515520145418203E-005
                    71  6.221654474698191E-004
                    72  4.468759800637244E-006
                    73 -5.650847592078348E-004
                    74 -1.321549056849887E-004
                    75  9.252092783801946E-005
                    76  4.917175269436250E-007
                    77 -8.465620988153421E-006
                    78  4.195859468606250E-005
                    79 -9.588244867758082E-008
                    80 -2.440295809569940E-005
                    81 -6.461719279053152E-006
                    82  2.113415792457280E-004
                    83 -3.082838598670702E-005
                    84  5.169499845585858E-006
                    85 -9.333679746986756E-005
                    86  5.936201521403274E-007
                    87 -2.973421398304325E-005
                    88  2.001663562927924E-005
                    89 -1.267411765818580E-006
                    90  3.090649205673659E-007
                    91  1.285951078555483E-005
                    92 -2.112514719153848E-004
                    93 -1.681093059619715E-003
                    94  6.020316700856887E-005
                    95  5.553569227641802E-004
                    96  4.398049658905192E-006
                    97  8.409957502555523E-004
                    98  1.015181446273054E-003
                    99 -8.667190124922752E-006
                   100  3.506879609369643E-005
                   101  6.215303669268825E-004
                   102 -4.473229591382331E-006
                   103  5.644993754718007E-004
                   104 -1.320496443268288E-004
                   105  9.248705171441962E-005
                   106 -4.853939096234104E-007
                   107  8.499855520545536E-006
                   108  4.195987107238682E-005
                   109 -9.546990019682698E-008
                   110 -2.481348343425757E-005
                   111  6.460128760110620E-006
                   112 -2.114541904583252E-004
                   113 -3.089939864458586E-005
                   114  5.159541326594501E-006
                   115 -9.326343573917073E-005
                   116 -5.837114968414856E-007
                   117  2.975853240246992E-005
                   118  2.000953313708884E-005
                   119 -1.264437796834799E-006
                   120 -3.107354317082524E-007
                   121 -1.285672694407547E-005
                   122 -1.477565597972533E-004
                   123  6.869571694479144E-006
                   124  1.108235504915852E-004
                   125  1.284341122466287E-004
                   126 -4.606738134450254E-006
                   127  4.132318413338283E-005
                   128 -7.994098601873125E-004
                   129  4.234259641177168E-007
                   130  2.008309784864088E-005
                   131  3.507529906394719E-004
                   132  3.097246535447074E-006
                   133 -1.712687268375421E-004
                   134  7.079285563579516E-004
                   135 -1.733902134570452E-005
                   136  3.586261185314456E-007
                   137  1.816057520447303E-006
                   138  1.497767016795422E-006
                   139  2.689246657829705E-007
                   140 -1.888248001792028E-004
                   141 -3.327626812428969E-006
                   142  1.694358936061091E-004
                   143  1.272136113182774E-005
                   144 -1.620881187168915E-006
                   145 -3.924035993054102E-005
                   146  1.306243353442017E-007
                   147  1.369786345369490E-006
                   148 -9.667558263546452E-006
                   149 -2.566327804812921E-007
                   150 -1.329700890898739E-007
                   151 -3.632780512110289E-006
                   152 -1.482319953137085E-004
                   153  5.191425726615832E-006
                   154  1.103495892796694E-004
                   155  1.314420899202468E-004
                   156  4.559224753165839E-006
                   157 -4.133737320569379E-005
                   158 -7.993748070068957E-004
                   159 -3.958778421563662E-007
                   160 -2.039802556276584E-005
                   161  3.503912550243228E-004
                   162 -3.062194433376432E-006
                   163  1.718808155454978E-004
                   164  7.080798460403595E-004
                   165 -1.728470678490377E-005
                   166 -3.605269062585815E-007
                   167 -1.825824477825680E-006
                   168  1.446824458176465E-006
                   169  2.680823060020957E-007
                   170 -1.886625325901949E-004
                   171  3.308073390470248E-006
                   172 -1.697166947126976E-004
                   173  1.269423669329720E-005
                   174 -1.628576777825126E-006
                   175 -3.915406829990479E-005
                   176 -1.236255364341681E-007
                   177 -1.354976181383912E-006
                   178 -9.718119857022061E-006
                   179 -2.570778748659831E-007
                   180  1.333237071408122E-007
                   181  3.640709844563182E-006
                   182 -1.218782081156326E-004
                   183 -3.269462300549683E-004
                   184  3.223703663132191E-005
                   185  1.477783189718604E-004
                   186 -4.870564607441172E-009
                   187  8.325730820454356E-008
                   188 -4.077083273399604E-005
                   189  6.941998573566725E-009
                   190 -4.217020201685177E-007
                   191  1.805001562518729E-005
                   192  2.403669724935109E-009
                   193 -3.393025306571899E-008
                   194  5.368800323765577E-005
                   195  1.920105553062050E-005
                   196  3.797268730094624E-010
                   197  2.516338526114615E-008
                   198  9.126554545665015E-006
                   199  1.192119681147646E-007
                   200  5.908096018513417E-005
                   201  6.877223789723745E-010
                   202  2.132162347073223E-007
                   203  4.986447548501536E-005
                   204 -1.292049626671482E-006
                   205 -1.164845562205012E-005
                   206  7.618818618873343E-010
                   207 -6.721864425818325E-009
                   208  3.176339656035100E-006
                   209  3.307831006967719E-007
                   210  3.970829891910363E-010
                   211  2.689132858644082E-008
                   212  3.854964561750703E-003
                   213 -2.325218199488467E-003
                   214  3.528115276988096E-005
                   215  4.664233837922117E-004
                   216  3.802148652776248E-004
                   217  3.854944684591308E-003
                   218 -2.325208852015042E-003
                   219 -3.526143297788719E-005
                   220 -4.663893585342029E-004
                   221  3.802609929050778E-004
                   222 -6.689535785396341E-004
                   223 -1.215092643312527E-004
                   224  2.830923210865176E-007
                   225 -1.708474592472891E-005
                   226 -4.520313162742746E-005
                   227 -6.690226440181342E-004
                   228 -1.211385317444503E-004
                   229 -2.857981183167677E-007
                   230  1.706275372736736E-005
                   231 -4.523114495104106E-005
                   232 -2.338288573569553E-004
                   233 -4.086469433271786E-004
                   234 -3.868971070471168E-007
                   235 -5.700236295204420E-006
                   236  5.885738584260250E-006
                   237 -2.338680670130097E-004
                   238 -4.088078050762603E-004
                   239  3.864704012122861E-007
                   240  5.746884607276930E-006
                   241  5.931734661230050E-006
                   242  6.900807490366940E-005
                   243 -1.301897919282370E-004
                   244  7.983097922250435E-011
                   245 -2.011816266325997E-008
                   246  1.440496098467339E-005
 Sym= __2_A__
 Ene=  0.000000000000000E+000
 Spin= Alpha
 Occup=    2.00000000000000     
                     1 -4.648645438649833E-005
                     2 -2.151525511501476E-004
                     3  2.292178726130700E-003
                     4  1.016562877938908E-004
                     5  1.263868936806687E-003
                     6  8.047758626471005E-008
                     7  1.357273936697345E-007
                     8  3.007670165277641E-003
                     9 -1.532253076542824E-009
                    10 -6.820765037660451E-009
                    11 -5.021472068688616E-005
                    12 -1.371151896864469E-008
                    13 -1.706072459701080E-008
                    14 -5.456593330486901E-004
                    15  4.272268474712811E-005
                    16  3.458466874542689E-010
                    17  6.529364015400444E-009
                    18  6.500035604315939E-005
                    19 -4.535549481910759E-006
                    20 -2.845446170031625E-004
                    21 -4.685634619711687E-009
                    22 -3.761900989476931E-008
                    23 -3.344751169436498E-004
                    24  2.642815134293276E-005
                    25  1.802909643188158E-004
                    26 -1.046115016465656E-008
                    27 -1.813418626477311E-008
                    28 -1.015480914867442E-006
                    29 -5.556091721103145E-006
                    30 -1.226087683191897E-010
                    31  3.405662633669564E-010
                    32   1.00106029688223     
                    33  9.287621731200990E-003
                    34  2.631677509486686E-003
                    35 -7.762848518353041E-003
                    36 -1.104102302166267E-007
                    37 -1.827685035938613E-007
                    38 -4.147049938512506E-003
                    39  2.677116065305933E-008
                    40  4.231811147199562E-008
                    41  1.006288870424126E-003
                    42  1.185082899410670E-007
                    43  1.247224406037288E-007
                    44  4.445971930913023E-003
                    45  4.758649589778910E-004
                    46  3.321511376292099E-008
                    47  1.424724296210279E-008
                    48 -4.309892321135918E-004
                    49  3.339314980996232E-006
                    50  5.805702276270174E-004
                    51  2.735982107100808E-009
                    52  9.095285205720523E-008
                    53  9.382003082108162E-004
                    54 -6.016816737047315E-006
                    55  3.865030563505665E-004
                    56 -1.711582280968005E-008
                    57 -5.641869660746646E-008
                    58 -2.061072790476722E-004
                    59  2.413309200915007E-006
                    60  6.873152452460938E-009
                    61 -9.208209685158985E-009
                    62  7.203671047054108E-003
                    63 -2.057659389499397E-003
                    64 -2.762060032824871E-004
                    65  3.039160656315919E-003
                    66  1.657149705795428E-006
                    67  9.456763997530158E-005
                    68 -8.244703380392260E-006
                    69 -6.640974384930914E-006
                    70  6.006051694477470E-004
                    71  1.790559098641876E-005
                    72  1.091700367894512E-005
                    73 -2.096643166311186E-003
                    74  9.606061964210074E-005
                    75 -1.505160103775367E-005
                    76  1.881373591673310E-007
                    77  1.373549285808095E-005
                    78  2.898599685966220E-005
                    79  3.668152438490403E-007
                    80  7.633770154325030E-004
                    81  5.080181417714084E-006
                    82 -4.227144815276207E-004
                    83 -1.145182012882483E-005
                    84 -3.311076637138634E-006
                    85  7.328261012584482E-005
                    86 -1.080276641887444E-007
                    87  4.607395812459383E-005
                    88 -1.271393910485972E-004
                    89  4.268094683938160E-007
                    90  2.417439005701823E-007
                    91  5.015048795979976E-005
                    92  7.203644342171427E-003
                    93 -2.057743103648927E-003
                    94 -2.762455688505140E-004
                    95  3.039352680603804E-003
                    96 -1.657063174202296E-006
                    97 -9.456862896471533E-005
                    98 -8.257441581451141E-006
                    99  6.641342691858815E-006
                   100 -6.006062961433289E-004
                   101  1.807550066141204E-005
                   102 -1.091281424731261E-005
                   103  2.096766539657328E-003
                   104  9.572886210542634E-005
                   105 -1.503619966024783E-005
                   106 -1.910938111130097E-007
                   107 -1.374104720019061E-005
                   108  2.898559243221978E-005
                   109  3.660673763531055E-007
                   110  7.633671838167877E-004
                   111 -5.009744300991103E-006
                   112  4.228736437629385E-004
                   113 -1.147157907840518E-005
                   114 -3.288946410068739E-006
                   115  7.326087770509265E-005
                   116  1.089729142948694E-007
                   117 -4.610367850919318E-005
                   118 -1.271255386357881E-004
                   119  4.262312806476692E-007
                   120 -2.333582330501566E-007
                   121 -5.016208762746117E-005
                   122 -2.330944796637720E-004
                   123 -7.540043834345058E-004
                   124  2.243913066869721E-004
                   125 -1.097920126666263E-004
                   126 -8.052224370055685E-007
                   127 -1.812598359219133E-005
                   128 -2.556353353909018E-004
                   129  1.432299119499240E-006
                   130 -9.372947522249922E-006
                   131  5.354231717344522E-004
                   132 -2.339557667607562E-006
                   133  3.283868655002824E-004
                   134  7.510671371030121E-004
                   135 -1.393661368539639E-005
                   136 -4.613935835587428E-007
                   137  5.165200771641996E-005
                   138  1.391041643072317E-005
                   139  2.435179212284967E-007
                   140 -2.893054357723643E-004
                   141  1.155022690471539E-006
                   142 -2.183979774640998E-004
                   143 -1.308557937501983E-005
                   144 -8.756396038540599E-007
                   145  1.252393699890201E-006
                   146  3.792804783656309E-007
                   147 -4.119367917056518E-005
                   148 -3.980646726056632E-005
                   149 -4.051246894984029E-007
                   150  1.818680566176675E-007
                   151 -5.541349023474104E-006
                   152 -2.328163863328649E-004
                   153 -7.530818542982374E-004
                   154  2.244434728433139E-004
                   155 -1.107384813917416E-004
                   156  7.913985804646646E-007
                   157  1.809628281188990E-005
                   158 -2.556401557868726E-004
                   159 -1.403934236637024E-006
                   160  9.452840334109354E-006