[Molden Format]
[Atoms] AU
  N     1    7     0.0000000000   -4.2907334100    0.0000000000        
  C     2    6     0.0000000000   -1.7772236300    0.0000000000        
  C     3    6    -2.3389203600   -0.4111016300    0.0000000000        
  C     4    6     2.3389203600   -0.4111016300    0.0000000000        
  C     5    6    -2.2998668500    2.1639215300    0.0000000000        
  C     6    6     2.2998668500    2.1639215300    0.0000000000        
  C     7    6     0.0000000000    3.4755251800    0.0000000000        
  H     8    1    -2.4124509000   -5.7790131500    0.0000000000        
  H     9    1     2.0907907800   -5.5805758500    0.0000000000        
  H    10    1    -4.0745407300   -1.4447408500    0.0000000000        
  H    11    1     4.0745407300   -1.4447408500    0.0000000000        
  H    12    1    -4.0420632100    3.1963889500    0.0000000000        
  H    13    1     4.0420632100    3.1963889500    0.0000000000        
  H    14    1     0.0000000000    5.5020335600    0.0000000000        
[5D]
[7F]
[GTO]
  1  0
   s    12 1.00
  0.114200D+05  0.172695D-04
  0.171200D+04  0.134411D-03
  0.389300D+03  0.694561D-03
  0.110000D+03  0.278531D-02
  0.355700D+02  0.863457D-02
  0.125400D+02  0.199805D-01
  0.464400D+01  0.262908D-01
  0.129300D+01 -0.243845D-01
  0.511800D+00 -0.924934D-01
  0.178700D+00 -0.339683D+00
  0.246240D-01  0.345111D+00
  0.112530D-01  0.752750D+00
   s    10 1.00
  0.114200D+05  0.523000D-03
  0.171200D+04  0.404500D-02
  0.389300D+03  0.207750D-01
  0.110000D+03  0.807269D-01
  0.355700D+02  0.233074D+00
  0.125400D+02  0.433501D+00
  0.464400D+01  0.347472D+00
  0.129300D+01  0.412620D-01
  0.511800D+00 -0.850799D-02
  0.178700D+00  0.238400D-02
   s    10 1.00
  0.114200D+05 -0.115000D-03
  0.171200D+04 -0.895000D-03
  0.389300D+03 -0.462400D-02
  0.110000D+03 -0.185280D-01
  0.355700D+02 -0.573390D-01
  0.125400D+02 -0.132076D+00
  0.464400D+01 -0.172510D+00
  0.129300D+01  0.151814D+00
  0.511800D+00  0.599944D+00
  0.178700D+00  0.387462D+00
   s     1 1.00
  0.129300D+01  0.100000D+01
   s     1 1.00
  0.178700D+00  0.100000D+01
   p     5 1.00
  0.266300D+02  0.146700D-01
  0.594800D+01  0.917640D-01
  0.174200D+01  0.298683D+00
  0.555000D+00  0.498487D+00
  0.172500D+00  0.337023D+00
   p     1 1.00
  0.174200D+01  0.100000D+01
   p     1 1.00
  0.555000D+00  0.100000D+01
   d     1 1.00
  0.165400D+01  0.100000D+01
   d     1 1.00
  0.469000D+00  0.100000D+01
   f     1 1.00
  0.109300D+01  0.100000D+01
  
  2  0
   s    10 1.00
  0.823600D+04  0.531000D-03
  0.123500D+04  0.410800D-02
  0.280800D+03  0.210870D-01
  0.792700D+02  0.818530D-01
  0.255900D+02  0.234817D+00
  0.899700D+01  0.434401D+00
  0.331900D+01  0.346129D+00
  0.905900D+00  0.393780D-01
  0.364300D+00 -0.898300D-02
  0.128500D+00  0.238500D-02
   s    10 1.00
  0.823600D+04 -0.113000D-03
  0.123500D+04 -0.878000D-03
  0.280800D+03 -0.454000D-02
  0.792700D+02 -0.181330D-01
  0.255900D+02 -0.557600D-01
  0.899700D+01 -0.126895D+00
  0.331900D+01 -0.170352D+00
  0.905900D+00  0.140382D+00
  0.364300D+00  0.598684D+00
  0.128500D+00  0.395389D+00
   s     1 1.00
  0.905900D+00  0.100000D+01
   s     1 1.00
  0.364300D+00  0.100000D+01
   p     5 1.00
  0.187100D+02  0.140310D-01
  0.413300D+01  0.868660D-01
  0.120000D+01  0.290216D+00
  0.382700D+00  0.501008D+00
  0.120900D+00  0.343406D+00
   p     1 1.00
  0.382700D+00  0.100000D+01
   p     1 1.00
  0.120900D+00  0.100000D+01
   d     1 1.00
  0.109700D+01  0.100000D+01
   d     1 1.00
  0.318000D+00  0.100000D+01
   f     1 1.00
  0.761000D+00  0.100000D+01
  
  3  0
   s    10 1.00
  0.823600D+04  0.531000D-03
  0.123500D+04  0.410800D-02
  0.280800D+03  0.210870D-01
  0.792700D+02  0.818530D-01
  0.255900D+02  0.234817D+00
  0.899700D+01  0.434401D+00
  0.331900D+01  0.346129D+00
  0.905900D+00  0.393780D-01
  0.364300D+00 -0.898300D-02
  0.128500D+00  0.238500D-02
   s    10 1.00
  0.823600D+04 -0.113000D-03
  0.123500D+04 -0.878000D-03
  0.280800D+03 -0.454000D-02
  0.792700D+02 -0.181330D-01
  0.255900D+02 -0.557600D-01
  0.899700D+01 -0.126895D+00
  0.331900D+01 -0.170352D+00
  0.905900D+00  0.140382D+00
  0.364300D+00  0.598684D+00
  0.128500D+00  0.395389D+00
   s     1 1.00
  0.905900D+00  0.100000D+01
   s     1 1.00
  0.364300D+00  0.100000D+01
   p     5 1.00
  0.187100D+02  0.140310D-01
  0.413300D+01  0.868660D-01
  0.120000D+01  0.290216D+00
  0.382700D+00  0.501008D+00
  0.120900D+00  0.343406D+00
   p     1 1.00
  0.382700D+00  0.100000D+01
   p     1 1.00
  0.120900D+00  0.100000D+01
   d     1 1.00
  0.109700D+01  0.100000D+01
   d     1 1.00
  0.318000D+00  0.100000D+01
   f     1 1.00
  0.761000D+00  0.100000D+01
  
  4  0
   s    10 1.00
  0.823600D+04  0.531000D-03
  0.123500D+04  0.410800D-02
  0.280800D+03  0.210870D-01
  0.792700D+02  0.818530D-01
  0.255900D+02  0.234817D+00
  0.899700D+01  0.434401D+00
  0.331900D+01  0.346129D+00
  0.905900D+00  0.393780D-01
  0.364300D+00 -0.898300D-02
  0.128500D+00  0.238500D-02
   s    10 1.00
  0.823600D+04 -0.113000D-03
  0.123500D+04 -0.878000D-03
  0.280800D+03 -0.454000D-02
  0.792700D+02 -0.181330D-01
  0.255900D+02 -0.557600D-01
  0.899700D+01 -0.126895D+00
  0.331900D+01 -0.170352D+00
  0.905900D+00  0.140382D+00
  0.364300D+00  0.598684D+00
  0.128500D+00  0.395389D+00
   s     1 1.00
  0.905900D+00  0.100000D+01
   s     1 1.00
  0.364300D+00  0.100000D+01
   p     5 1.00
  0.187100D+02  0.140310D-01
  0.413300D+01  0.868660D-01
  0.120000D+01  0.290216D+00
  0.382700D+00  0.501008D+00
  0.120900D+00  0.343406D+00
   p     1 1.00
  0.382700D+00  0.100000D+01
   p     1 1.00
  0.120900D+00  0.100000D+01
   d     1 1.00
  0.109700D+01  0.100000D+01
   d     1 1.00
  0.318000D+00  0.100000D+01
   f     1 1.00
  0.761000D+00  0.100000D+01
  
  5  0
   s    10 1.00
  0.823600D+04  0.531000D-03
  0.123500D+04  0.410800D-02
  0.280800D+03  0.210870D-01
  0.792700D+02  0.818530D-01
  0.255900D+02  0.234817D+00
  0.899700D+01  0.434401D+00
  0.331900D+01  0.346129D+00
  0.905900D+00  0.393780D-01
  0.364300D+00 -0.898300D-02
  0.128500D+00  0.238500D-02
   s    10 1.00
  0.823600D+04 -0.113000D-03
  0.123500D+04 -0.878000D-03
  0.280800D+03 -0.454000D-02
  0.792700D+02 -0.181330D-01
  0.255900D+02 -0.557600D-01
  0.899700D+01 -0.126895D+00
  0.331900D+01 -0.170352D+00
  0.905900D+00  0.140382D+00
  0.364300D+00  0.598684D+00
  0.128500D+00  0.395389D+00
   s     1 1.00
  0.905900D+00  0.100000D+01
   s     1 1.00
  0.364300D+00  0.100000D+01
   p     5 1.00
  0.187100D+02  0.140310D-01
  0.413300D+01  0.868660D-01
  0.120000D+01  0.290216D+00
  0.382700D+00  0.501008D+00
  0.120900D+00  0.343406D+00
   p     1 1.00
  0.382700D+00  0.100000D+01
   p     1 1.00
  0.120900D+00  0.100000D+01
   d     1 1.00
  0.109700D+01  0.100000D+01
   d     1 1.00
  0.318000D+00  0.100000D+01
   f     1 1.00
  0.761000D+00  0.100000D+01
  
  6  0
   s    10 1.00
  0.823600D+04  0.531000D-03
  0.123500D+04  0.410800D-02
  0.280800D+03  0.210870D-01
  0.792700D+02  0.818530D-01
  0.255900D+02  0.234817D+00
  0.899700D+01  0.434401D+00
  0.331900D+01  0.346129D+00
  0.905900D+00  0.393780D-01
  0.364300D+00 -0.898300D-02
  0.128500D+00  0.238500D-02
   s    10 1.00
  0.823600D+04 -0.113000D-03
  0.123500D+04 -0.878000D-03
  0.280800D+03 -0.454000D-02
  0.792700D+02 -0.181330D-01
  0.255900D+02 -0.557600D-01
  0.899700D+01 -0.126895D+00
  0.331900D+01 -0.170352D+00
  0.905900D+00  0.140382D+00
  0.364300D+00  0.598684D+00
  0.128500D+00  0.395389D+00
   s     1 1.00
  0.905900D+00  0.100000D+01
   s     1 1.00
  0.364300D+00  0.100000D+01
   p     5 1.00
  0.187100D+02  0.140310D-01
  0.413300D+01  0.868660D-01
  0.120000D+01  0.290216D+00
  0.382700D+00  0.501008D+00
  0.120900D+00  0.343406D+00
   p     1 1.00
  0.382700D+00  0.100000D+01
   p     1 1.00
  0.120900D+00  0.100000D+01
   d     1 1.00
  0.109700D+01  0.100000D+01
   d     1 1.00
  0.318000D+00  0.100000D+01
   f     1 1.00
  0.761000D+00  0.100000D+01
  
  7  0
   s    10 1.00
  0.823600D+04  0.531000D-03
  0.123500D+04  0.410800D-02
  0.280800D+03  0.210870D-01
  0.792700D+02  0.818530D-01
  0.255900D+02  0.234817D+00
  0.899700D+01  0.434401D+00
  0.331900D+01  0.346129D+00
  0.905900D+00  0.393780D-01
  0.364300D+00 -0.898300D-02
  0.128500D+00  0.238500D-02
   s    10 1.00
  0.823600D+04 -0.113000D-03
  0.123500D+04 -0.878000D-03
  0.280800D+03 -0.454000D-02
  0.792700D+02 -0.181330D-01
  0.255900D+02 -0.557600D-01
  0.899700D+01 -0.126895D+00
  0.331900D+01 -0.170352D+00
  0.905900D+00  0.140382D+00
  0.364300D+00  0.598684D+00
  0.128500D+00  0.395389D+00
   s     1 1.00
  0.905900D+00  0.100000D+01
   s     1 1.00
  0.364300D+00  0.100000D+01
   p     5 1.00
  0.187100D+02  0.140310D-01
  0.413300D+01  0.868660D-01
  0.120000D+01  0.290216D+00
  0.382700D+00  0.501008D+00
  0.120900D+00  0.343406D+00
   p     1 1.00
  0.382700D+00  0.100000D+01
   p     1 1.00
  0.120900D+00  0.100000D+01
   d     1 1.00
  0.109700D+01  0.100000D+01
   d     1 1.00
  0.318000D+00  0.100000D+01
   f     1 1.00
  0.761000D+00  0.100000D+01
  
  8  0
   s     4 1.00
  0.130100D+02  0.196850D-01
  0.196200D+01  0.137977D+00
  0.444600D+00  0.478148D+00
  0.122000D+00  0.501240D+00
   s     1 1.00
  0.122000D+00  0.100000D+01
   p     1 1.00
  0.727000D+00  0.100000D+01
  
  9  0
   s     4 1.00
  0.130100D+02  0.196850D-01
  0.196200D+01  0.137977D+00
  0.444600D+00  0.478148D+00
  0.122000D+00  0.501240D+00
   s     1 1.00
  0.122000D+00  0.100000D+01
   p     1 1.00
  0.727000D+00  0.100000D+01
  
 10  0
   s     4 1.00
  0.130100D+02  0.196850D-01
  0.196200D+01  0.137977D+00
  0.444600D+00  0.478148D+00
  0.122000D+00  0.501240D+00
   s     1 1.00
  0.122000D+00  0.100000D+01
   p     1 1.00
  0.727000D+00  0.100000D+01
  
 11  0
   s     4 1.00
  0.130100D+02  0.196850D-01
  0.196200D+01  0.137977D+00
  0.444600D+00  0.478148D+00
  0.122000D+00  0.501240D+00
   s     1 1.00
  0.122000D+00  0.100000D+01
   p     1 1.00
  0.727000D+00  0.100000D+01
  
 12  0
   s     4 1.00
  0.130100D+02  0.196850D-01
  0.196200D+01  0.137977D+00
  0.444600D+00  0.478148D+00
  0.122000D+00  0.501240D+00
   s     1 1.00
  0.122000D+00  0.100000D+01
   p     1 1.00
  0.727000D+00  0.100000D+01
  
 13  0
   s     4 1.00
  0.130100D+02  0.196850D-01
  0.196200D+01  0.137977D+00
  0.444600D+00  0.478148D+00
  0.122000D+00  0.501240D+00
   s     1 1.00
  0.122000D+00  0.100000D+01
   p     1 1.00
  0.727000D+00  0.100000D+01
  
 14  0
   s     4 1.00
  0.130100D+02  0.196850D-01
  0.196200D+01  0.137977D+00
  0.444600D+00  0.478148D+00
  0.122000D+00  0.501240D+00
   s     1 1.00
  0.122000D+00  0.100000D+01
   p     1 1.00
  0.727000D+00  0.100000D+01
  
[MO]
 Sym= __1_A'_
 Ene=   1.00000000000000     
 Spin= Alpha
 Occup=    1.00000000000000     
                     1  2.884473428599024E-005
                     2  0.998719267311362     
                     3  1.466477086215739E-003
                     4  1.339228594616024E-003
                     5  4.567417591797370E-003
                     6  2.906968328009957E-003
                     7  6.364176145212424E-003
                     8  0.000000000000000E+000
                     9 -6.735206058068958E-004
                    10 -5.419376747879978E-004
                    11  0.000000000000000E+000
                    12 -1.911914740848037E-003
                    13 -1.907722831361397E-003
                    14  0.000000000000000E+000
                    15 -6.595804103871519E-005
                    16  0.000000000000000E+000
                    17  0.000000000000000E+000
                    18 -2.393198216929936E-004
                    19 -1.136174837458306E-005
                    20  2.063177123532273E-004
                    21  0.000000000000000E+000
                    22  0.000000000000000E+000
                    23 -2.387082538860482E-004
                    24  3.280900571992350E-004
                    25  0.000000000000000E+000
                    26 -3.299970523111917E-006
                    27 -5.211565926100738E-005
                    28  0.000000000000000E+000
                    29  0.000000000000000E+000
                    30  1.836049166022579E-005
                    31 -1.006087992226109E-004
                    32 -2.863162137414359E-004
                    33  1.317996793965210E-003
                    34  2.381448257100867E-004
                    35 -2.757986403707475E-004
                    36 -1.489368311181005E-004
                    37 -4.292642571371970E-003
                    38  0.000000000000000E+000
                    39  4.560045835970179E-004
                    40  6.819740098154828E-005
                    41  0.000000000000000E+000
                    42 -1.930135726627022E-003
                    43  5.314029774556910E-003
                    44  0.000000000000000E+000
                    45 -2.338440668034545E-005
                    46  0.000000000000000E+000
                    47  0.000000000000000E+000
                    48 -2.272340180424668E-004
                    49 -8.005802920021330E-006
                    50 -2.769738980839864E-004
                    51  0.000000000000000E+000
                    52  0.000000000000000E+000
                    53 -4.113462181991792E-005
                    54  5.770510236680763E-004
                    55  0.000000000000000E+000
                    56 -1.415035486741860E-005
                    57 -3.880425073921274E-005
                    58  0.000000000000000E+000
                    59  0.000000000000000E+000
                    60  1.500871752644443E-007
                    61 -1.104423590847198E-004
                    62 -4.761768400361802E-004
                    63 -2.085429125190181E-003
                    64 -6.866424643096533E-005
                    65  1.903365205004422E-003
                    66 -5.986398404418486E-004
                    67  3.983602126484019E-004
                    68  0.000000000000000E+000
                    69  3.642738006853831E-004
                    70  7.229989630605465E-004
                    71  0.000000000000000E+000
                    72 -1.650567099773187E-003
                    73  5.835857057881812E-004
                    74  0.000000000000000E+000
                    75 -3.875641923726503E-005
                    76  0.000000000000000E+000
                    77  0.000000000000000E+000
                    78 -7.336286682114240E-005
                    79 -2.523881133961596E-005
                    80 -1.323838687547659E-004
                    81  0.000000000000000E+000
                    82  0.000000000000000E+000
                    83  4.151306504903584E-005
                    84  4.196326097457442E-005
                    85  0.000000000000000E+000
                    86  6.541600566603721E-006
                    87 -4.350267698251682E-005
                    88  0.000000000000000E+000
                    89  0.000000000000000E+000
                    90 -1.638198351308972E-005
                    91 -1.437233696521480E-004
                    92 -1.520148459619982E-004
                    93 -9.920823094988181E-004
                    94  1.776030936433075E-004
                    95 -9.398770993633524E-005
                    96  4.970793450398645E-004
                    97  5.347422783740034E-004
                    98  0.000000000000000E+000
                    99  3.257153290620240E-004
                   100  3.066777365666220E-004
                   101  0.000000000000000E+000
                   102  6.130017214027441E-004
                   103 -1.226474959474463E-003
                   104  0.000000000000000E+000
                   105 -9.764945251871993E-006
                   106  0.000000000000000E+000
                   107  0.000000000000000E+000
                   108 -5.844237369922838E-005
                   109 -1.303129313843993E-005
                   110  1.193303235100506E-004
                   111  0.000000000000000E+000
                   112  0.000000000000000E+000
                   113 -1.040195312166030E-004
                   114 -2.716530579939088E-005
                   115  0.000000000000000E+000
                   116 -2.400875597388235E-005
                   117 -3.419950870219164E-005
                   118  0.000000000000000E+000
                   119  0.000000000000000E+000
                   120  1.740578982097574E-005
                   121 -3.860473937838187E-005
                   122 -2.743168716053956E-004
                   123 -6.116749906996528E-004
                   124  1.604661373890076E-004
                   125  4.228048415329776E-004
                   126 -1.593435410857651E-005
                   127 -4.723914803580159E-004
                   128  0.000000000000000E+000
                   129  2.067178456518775E-004
                   130  5.557896702987139E-004
                   131  0.000000000000000E+000
                   132  2.564292606250447E-004
                   133  1.820124302945780E-003
                   134  0.000000000000000E+000
                   135  9.305066956760858E-006
                   136  0.000000000000000E+000
                   137  0.000000000000000E+000
                   138  4.050464461402104E-005
                   139 -1.412428966138969E-006
                   140  1.937405964184949E-004
                   141  0.000000000000000E+000
                   142  0.000000000000000E+000
                   143  3.223594359273996E-004
                   144  2.200024043180576E-004
                   145  0.000000000000000E+000
                   146 -8.913779649487598E-006
                   147 -5.556192195014105E-005
                   148  0.000000000000000E+000
                   149  0.000000000000000E+000
                   150 -1.410879445251244E-005
                   151 -4.380633566063356E-005
                   152 -1.959854768994808E-004
                   153 -3.707199882267086E-004
                   154  4.703426481732907E-005
                   155  4.292040050914940E-004
                   156 -2.148152693266020E-005
                   157 -4.117705016837328E-004
                   158  0.000000000000000E+000
                   159 -9.925535480011024E-006
                   160  7.940064845209552E-005
                   161  0.000000000000000E+000
                   162  6.182389648068773E-004
                   163 -1.020971316560275E-004
                   164  0.000000000000000E+000
                   165 -1.623113149861478E-006
                   166  0.000000000000000E+000
                   167  0.000000000000000E+000
                   168 -1.372519760338271E-006
                   169  6.001552891868036E-006
                   170  6.746518404704188E-005
                   171  0.000000000000000E+000
                   172  0.000000000000000E+000
                   173  3.133808286006318E-005
                   174 -3.926096248036944E-005
                   175  0.000000000000000E+000
                   176  5.455696399849966E-006
                   177 -1.197002507026463E-005
                   178  0.000000000000000E+000
                   179  0.000000000000000E+000
                   180 -2.137961664706824E-005
                   181 -1.110505059464992E-005
                   182 -1.727164114746908E-004
                   183 -4.961091034911615E-004
                   184  5.384408398623318E-005
                   185  2.561719688434251E-004
                   186 -3.258950484059081E-005
                   187 -5.136112880716050E-005
                   188  0.000000000000000E+000
                   189  1.698319921660015E-004
                   190  6.075289057669113E-005
                   191  0.000000000000000E+000
                   192  1.079542846071650E-003
                   193 -1.368191056755012E-004
                   194  0.000000000000000E+000
                   195 -1.857485269323328E-006
                   196  0.000000000000000E+000
                   197  0.000000000000000E+000
                   198 -1.372756029170315E-005
                   199  5.540599002093376E-006
                   200  3.000482875433617E-005
                   201  0.000000000000000E+000
                   202  0.000000000000000E+000
                   203 -8.163913780818034E-005
                   204 -1.534095397401030E-004
                   205  0.000000000000000E+000
                   206 -5.105793493060102E-006
                   207 -6.725460449699521E-006
                   208  0.000000000000000E+000
                   209  0.000000000000000E+000
                   210  8.892921714648958E-006
                   211 -1.563684410067448E-006
                   212  2.685080018452125E-005
                   213 -6.682032133537383E-006
                   214  1.684974193745151E-004
                   215  1.544136738797012E-004
                   216  0.000000000000000E+000
                   217 -9.676679448851251E-005
                   218 -5.041196873240852E-004
                   219 -2.860383586079244E-004
                   220  1.585686424600701E-004
                   221  0.000000000000000E+000
                   222 -3.578877375798922E-004
                   223 -6.530735031917095E-004
                   224  3.629709258243826E-006
                   225 -6.117807586335549E-005
                   226  0.000000000000000E+000
                   227 -2.108747791131473E-004
                   228 -5.149029669225516E-004
                   229 -5.488062526043359E-006
                   230 -2.036779013928728E-005
                   231  0.000000000000000E+000
                   232 -5.262457515635378E-005
                   233 -5.545771991608453E-004
                   234  6.468052193782899E-006
                   235 -4.588772025875986E-006
                   236  0.000000000000000E+000
                   237 -1.335716198877999E-004
                   238 -3.959631578675872E-004
                   239  5.813170133489425E-006
                   240  2.338939639438888E-006
                   241  0.000000000000000E+000
                   242  1.530097470317592E-005
                   243 -4.984904116644425E-005
                   244  1.735067202937214E-007
                   245  2.014636566429801E-005
                   246  0.000000000000000E+000
 Sym= __2_A'_
 Ene=   2.00000000000000     
 Spin= Alpha
 Occup=    1.00000000000000     
                     1 -5.596995762182048E-005
                     2 -3.530943214261295E-004
                     3  2.958499152884618E-003
                     4  1.667075276391645E-004
                     5  1.319114567230049E-003
                     6 -1.140160166027041E-004
                     7  2.977696621656619E-003
                     8  0.000000000000000E+000
                     9 -2.233238868906691E-005
                    10 -1.166950938738100E-004
                    11  0.000000000000000E+000
                    12  3.161796320375199E-005
                    13 -4.065274130194785E-004
                    14  0.000000000000000E+000
                    15  3.433638226105915E-005
                    16  0.000000000000000E+000
                    17  0.000000000000000E+000
                    18 -5.415127655999440E-005
                    19  7.280461989904830E-006
                    20 -1.203539114973254E-004
                    21  0.000000000000000E+000
                    22  0.000000000000000E+000
                    23  1.390437717275302E-004
                    24  1.611823737522976E-006
                    25  0.000000000000000E+000
                    26 -6.238756743341289E-006
                    27  9.014783167998960E-005
                    28  0.000000000000000E+000
                    29  0.000000000000000E+000
                    30 -4.291139672683956E-006
                    31  1.502971241797584E-004
                    32   1.00100810369105     
                    33  9.327376452661677E-003
                    34  2.747057786354016E-003
                    35 -8.105599607400035E-003
                    36 -9.714937756728827E-005
                    37 -3.743979461224035E-003
                    38  0.000000000000000E+000
                    39  1.145037192472307E-004
                    40  5.715527856431716E-004
                    41  0.000000000000000E+000
                    42  3.539512634263757E-005
                    43  4.271521687928425E-003
                    44  0.000000000000000E+000
                    45 -5.760320483782070E-004
                    46  0.000000000000000E+000
                    47  0.000000000000000E+000
                    48 -2.035340423596420E-004
                    49 -5.441459609482644E-008
                    50  5.483470479041142E-004
                    51  0.000000000000000E+000
                    52  0.000000000000000E+000
                    53 -8.819709138972150E-004
                    54  3.806703190038446E-005
                    55  0.000000000000000E+000
                    56 -4.307202472103627E-006
                    57  9.183270672905296E-005
                    58  0.000000000000000E+000
                    59  0.000000000000000E+000
                    60  3.846034564290913E-006
                    61  4.033686225437730E-004
                    62  9.085067226714443E-003
                    63 -2.088768676169158E-003
                    64 -2.919977775801749E-004
                    65  3.067721588520688E-003
                    66 -1.264278035409288E-005
                    67  9.697119868310255E-005
                    68  0.000000000000000E+000
                    69  7.152232122836664E-004
                    70  5.384853805189970E-006
                    71  0.000000000000000E+000
                    72 -2.053768856588322E-003
                    73  7.802329507790157E-005
                    74  0.000000000000000E+000
                    75  2.757049282005214E-005
                    76  0.000000000000000E+000
                    77  0.000000000000000E+000
                    78 -3.249888637860880E-006
                    79  3.464736270304728E-006
                    80 -4.098896481761392E-004
                    81  0.000000000000000E+000
                    82  0.000000000000000E+000
                    83 -5.912749317222604E-004
                    84 -3.771403891764433E-004
                    85  0.000000000000000E+000
                    86  3.279566378275665E-005
                    87 -5.833757603525694E-005
                    88  0.000000000000000E+000
                    89  0.000000000000000E+000
                    90  5.211804244966173E-005
                    91  1.400364130772300E-004
                    92  9.447219643638666E-003
                    93 -2.078859491760653E-003
                    94 -2.768230804082468E-004
                    95  3.009615880639686E-003
                    96  5.354417568208600E-006
                    97  8.453324340263424E-005
                    98  0.000000000000000E+000
                    99 -6.543000703955874E-004
                   100  5.419185567740322E-005
                   101  0.000000000000000E+000
                   102  2.054907115982140E-003
                   103  7.710663475799758E-005
                   104  0.000000000000000E+000
                   105  3.110452942765552E-005
                   106  0.000000000000000E+000
                   107  0.000000000000000E+000
                   108 -5.591153314022570E-006
                   109 -7.694788494895257E-006
                   110 -4.072961550699964E-004
                   111  0.000000000000000E+000
                   112  0.000000000000000E+000
                   113 -6.156542097708192E-004
                   114  3.612862882389046E-004
                   115  0.000000000000000E+000
                   116 -3.327349095732488E-005
                   117 -5.938088285892835E-005
                   118  0.000000000000000E+000
                   119  0.000000000000000E+000
                   120 -5.108354313335162E-005
                   121  1.387201427786636E-004
                   122 -1.714075523963394E-004
                   123 -6.846395104310797E-004
                   124  2.263027730567851E-004
                   125 -1.092832161333891E-004
                   126 -2.105499612750284E-006
                   127 -3.340434220834641E-004
                   128  0.000000000000000E+000
                   129 -5.867464668318836E-005
                   130  5.380031790692209E-004
                   131  0.000000000000000E+000
                   132  3.194224327719687E-004
                   133  7.542193317897932E-004
                   134  0.000000000000000E+000
                   135  1.906987607660206E-005
                   136  0.000000000000000E+000
                   137  0.000000000000000E+000
                   138  3.669513418131164E-006
                   139  5.299414749263041E-005
                   140  1.360720429880180E-004
                   141  0.000000000000000E+000
                   142  0.000000000000000E+000
                   143  2.442682921351302E-004
                   144 -1.861129159173859E-004
                   145  0.000000000000000E+000
                   146  7.013501252674804E-006
                   147 -3.326807893747522E-005
                   148  0.000000000000000E+000
                   149  0.000000000000000E+000
                   150 -4.701831908129133E-005
                   151  2.810824015678532E-005
                   152 -1.569457926581622E-004
                   153 -6.857746637935026E-004
                   154  2.290459711133500E-004
                   155 -1.290758124386269E-004
                   156  2.311710664394130E-006
                   157 -3.334410300466784E-004
                   158  0.000000000000000E+000
                   159  4.880082754663854E-005
                   160  5.596143933596911E-004