[Molden Format]
[Atoms] AU
  N     1    7    -0.0029026500   -0.0026920100   -4.3554729600        
  C     2    6    -0.0020348800   -0.0038702000   -1.7386868400        
  C     3    6     0.1016630700   -2.3231132900   -0.4140385600        
  C     4    6    -0.1048535500    2.3141790800   -0.4118821600        
  C     5    6     0.1779239000   -2.2915836800    2.1783822300        
  C     6    6    -0.1793949700    2.2803150300    2.1805591900        
  C     7    6    -0.0003062300   -0.0062172000    3.4740350900        
  H     8    1    -1.4328911700   -0.8675963600   -5.3689202300        
  H     9    1     1.4264136600    0.8631250000   -5.3690891700        
  H    10    1     0.2067909300   -4.0495537600   -1.4570210000        
  H    11    1    -0.2106726200    4.0415580100   -1.4532395800        
  H    12    1     0.3533159900   -4.0254823400    3.2094006900        
  H    13    1    -0.3541026800    4.0132845100    3.2132546900        
  H    14    1     0.0003664500   -0.0071305200    5.5025494900        
[5D]
[7F]
[GTO]
  1  0
   s    12 1.00
  0.114200D+05  0.172695D-04
  0.171200D+04  0.134411D-03
  0.389300D+03  0.694561D-03
  0.110000D+03  0.278531D-02
  0.355700D+02  0.863457D-02
  0.125400D+02  0.199805D-01
  0.464400D+01  0.262908D-01
  0.129300D+01 -0.243845D-01
  0.511800D+00 -0.924934D-01
  0.178700D+00 -0.339683D+00
  0.246240D-01  0.345111D+00
  0.112530D-01  0.752750D+00
   s    10 1.00
  0.114200D+05  0.523000D-03
  0.171200D+04  0.404500D-02
  0.389300D+03  0.207750D-01
  0.110000D+03  0.807269D-01
  0.355700D+02  0.233074D+00
  0.125400D+02  0.433501D+00
  0.464400D+01  0.347472D+00
  0.129300D+01  0.412620D-01
  0.511800D+00 -0.850799D-02
  0.178700D+00  0.238400D-02
   s    10 1.00
  0.114200D+05 -0.115000D-03
  0.171200D+04 -0.895000D-03
  0.389300D+03 -0.462400D-02
  0.110000D+03 -0.185280D-01
  0.355700D+02 -0.573390D-01
  0.125400D+02 -0.132076D+00
  0.464400D+01 -0.172510D+00
  0.129300D+01  0.151814D+00
  0.511800D+00  0.599944D+00
  0.178700D+00  0.387462D+00
   s     1 1.00
  0.129300D+01  0.100000D+01
   s     1 1.00
  0.178700D+00  0.100000D+01
   p     5 1.00
  0.266300D+02  0.146700D-01
  0.594800D+01  0.917640D-01
  0.174200D+01  0.298683D+00
  0.555000D+00  0.498487D+00
  0.172500D+00  0.337023D+00
   p     1 1.00
  0.174200D+01  0.100000D+01
   p     1 1.00
  0.555000D+00  0.100000D+01
   d     1 1.00
  0.165400D+01  0.100000D+01
   d     1 1.00
  0.469000D+00  0.100000D+01
   f     1 1.00
  0.109300D+01  0.100000D+01
  
  2  0
   s    10 1.00
  0.823600D+04  0.531000D-03
  0.123500D+04  0.410800D-02
  0.280800D+03  0.210870D-01
  0.792700D+02  0.818530D-01
  0.255900D+02  0.234817D+00
  0.899700D+01  0.434401D+00
  0.331900D+01  0.346129D+00
  0.905900D+00  0.393780D-01
  0.364300D+00 -0.898300D-02
  0.128500D+00  0.238500D-02
   s    10 1.00
  0.823600D+04 -0.113000D-03
  0.123500D+04 -0.878000D-03
  0.280800D+03 -0.454000D-02
  0.792700D+02 -0.181330D-01
  0.255900D+02 -0.557600D-01
  0.899700D+01 -0.126895D+00
  0.331900D+01 -0.170352D+00
  0.905900D+00  0.140382D+00
  0.364300D+00  0.598684D+00
  0.128500D+00  0.395389D+00
   s     1 1.00
  0.905900D+00  0.100000D+01
   s     1 1.00
  0.364300D+00  0.100000D+01
   p     5 1.00
  0.187100D+02  0.140310D-01
  0.413300D+01  0.868660D-01
  0.120000D+01  0.290216D+00
  0.382700D+00  0.501008D+00
  0.120900D+00  0.343406D+00
   p     1 1.00
  0.382700D+00  0.100000D+01
   p     1 1.00
  0.120900D+00  0.100000D+01
   d     1 1.00
  0.109700D+01  0.100000D+01
   d     1 1.00
  0.318000D+00  0.100000D+01
   f     1 1.00
  0.761000D+00  0.100000D+01
  
  3  0
   s    10 1.00
  0.823600D+04  0.531000D-03
  0.123500D+04  0.410800D-02
  0.280800D+03  0.210870D-01
  0.792700D+02  0.818530D-01
  0.255900D+02  0.234817D+00
  0.899700D+01  0.434401D+00
  0.331900D+01  0.346129D+00
  0.905900D+00  0.393780D-01
  0.364300D+00 -0.898300D-02
  0.128500D+00  0.238500D-02
   s    10 1.00
  0.823600D+04 -0.113000D-03
  0.123500D+04 -0.878000D-03
  0.280800D+03 -0.454000D-02
  0.792700D+02 -0.181330D-01
  0.255900D+02 -0.557600D-01
  0.899700D+01 -0.126895D+00
  0.331900D+01 -0.170352D+00
  0.905900D+00  0.140382D+00
  0.364300D+00  0.598684D+00
  0.128500D+00  0.395389D+00
   s     1 1.00
  0.905900D+00  0.100000D+01
   s     1 1.00
  0.364300D+00  0.100000D+01
   p     5 1.00
  0.187100D+02  0.140310D-01
  0.413300D+01  0.868660D-01
  0.120000D+01  0.290216D+00
  0.382700D+00  0.501008D+00
  0.120900D+00  0.343406D+00
   p     1 1.00
  0.382700D+00  0.100000D+01
   p     1 1.00
  0.120900D+00  0.100000D+01
   d     1 1.00
  0.109700D+01  0.100000D+01
   d     1 1.00
  0.318000D+00  0.100000D+01
   f     1 1.00
  0.761000D+00  0.100000D+01
  
  4  0
   s    10 1.00
  0.823600D+04  0.531000D-03
  0.123500D+04  0.410800D-02
  0.280800D+03  0.210870D-01
  0.792700D+02  0.818530D-01
  0.255900D+02  0.234817D+00
  0.899700D+01  0.434401D+00
  0.331900D+01  0.346129D+00
  0.905900D+00  0.393780D-01
  0.364300D+00 -0.898300D-02
  0.128500D+00  0.238500D-02
   s    10 1.00
  0.823600D+04 -0.113000D-03
  0.123500D+04 -0.878000D-03
  0.280800D+03 -0.454000D-02
  0.792700D+02 -0.181330D-01
  0.255900D+02 -0.557600D-01
  0.899700D+01 -0.126895D+00
  0.331900D+01 -0.170352D+00
  0.905900D+00  0.140382D+00
  0.364300D+00  0.598684D+00
  0.128500D+00  0.395389D+00
   s     1 1.00
  0.905900D+00  0.100000D+01
   s     1 1.00
  0.364300D+00  0.100000D+01
   p     5 1.00
  0.187100D+02  0.140310D-01
  0.413300D+01  0.868660D-01
  0.120000D+01  0.290216D+00
  0.382700D+00  0.501008D+00
  0.120900D+00  0.343406D+00
   p     1 1.00
  0.382700D+00  0.100000D+01
   p     1 1.00
  0.120900D+00  0.100000D+01
   d     1 1.00
  0.109700D+01  0.100000D+01
   d     1 1.00
  0.318000D+00  0.100000D+01
   f     1 1.00
  0.761000D+00  0.100000D+01
  
  5  0
   s    10 1.00
  0.823600D+04  0.531000D-03
  0.123500D+04  0.410800D-02
  0.280800D+03  0.210870D-01
  0.792700D+02  0.818530D-01
  0.255900D+02  0.234817D+00
  0.899700D+01  0.434401D+00
  0.331900D+01  0.346129D+00
  0.905900D+00  0.393780D-01
  0.364300D+00 -0.898300D-02
  0.128500D+00  0.238500D-02
   s    10 1.00
  0.823600D+04 -0.113000D-03
  0.123500D+04 -0.878000D-03
  0.280800D+03 -0.454000D-02
  0.792700D+02 -0.181330D-01
  0.255900D+02 -0.557600D-01
  0.899700D+01 -0.126895D+00
  0.331900D+01 -0.170352D+00
  0.905900D+00  0.140382D+00
  0.364300D+00  0.598684D+00
  0.128500D+00  0.395389D+00
   s     1 1.00
  0.905900D+00  0.100000D+01
   s     1 1.00
  0.364300D+00  0.100000D+01
   p     5 1.00
  0.187100D+02  0.140310D-01
  0.413300D+01  0.868660D-01
  0.120000D+01  0.290216D+00
  0.382700D+00  0.501008D+00
  0.120900D+00  0.343406D+00
   p     1 1.00
  0.382700D+00  0.100000D+01
   p     1 1.00
  0.120900D+00  0.100000D+01
   d     1 1.00
  0.109700D+01  0.100000D+01
   d     1 1.00
  0.318000D+00  0.100000D+01
   f     1 1.00
  0.761000D+00  0.100000D+01
  
  6  0
   s    10 1.00
  0.823600D+04  0.531000D-03
  0.123500D+04  0.410800D-02
  0.280800D+03  0.210870D-01
  0.792700D+02  0.818530D-01
  0.255900D+02  0.234817D+00
  0.899700D+01  0.434401D+00
  0.331900D+01  0.346129D+00
  0.905900D+00  0.393780D-01
  0.364300D+00 -0.898300D-02
  0.128500D+00  0.238500D-02
   s    10 1.00
  0.823600D+04 -0.113000D-03
  0.123500D+04 -0.878000D-03
  0.280800D+03 -0.454000D-02
  0.792700D+02 -0.181330D-01
  0.255900D+02 -0.557600D-01
  0.899700D+01 -0.126895D+00
  0.331900D+01 -0.170352D+00
  0.905900D+00  0.140382D+00
  0.364300D+00  0.598684D+00
  0.128500D+00  0.395389D+00
   s     1 1.00
  0.905900D+00  0.100000D+01
   s     1 1.00
  0.364300D+00  0.100000D+01
   p     5 1.00
  0.187100D+02  0.140310D-01
  0.413300D+01  0.868660D-01
  0.120000D+01  0.290216D+00
  0.382700D+00  0.501008D+00
  0.120900D+00  0.343406D+00
   p     1 1.00
  0.382700D+00  0.100000D+01
   p     1 1.00
  0.120900D+00  0.100000D+01
   d     1 1.00
  0.109700D+01  0.100000D+01
   d     1 1.00
  0.318000D+00  0.100000D+01
   f     1 1.00
  0.761000D+00  0.100000D+01
  
  7  0
   s    10 1.00
  0.823600D+04  0.531000D-03
  0.123500D+04  0.410800D-02
  0.280800D+03  0.210870D-01
  0.792700D+02  0.818530D-01
  0.255900D+02  0.234817D+00
  0.899700D+01  0.434401D+00
  0.331900D+01  0.346129D+00
  0.905900D+00  0.393780D-01
  0.364300D+00 -0.898300D-02
  0.128500D+00  0.238500D-02
   s    10 1.00
  0.823600D+04 -0.113000D-03
  0.123500D+04 -0.878000D-03
  0.280800D+03 -0.454000D-02
  0.792700D+02 -0.181330D-01
  0.255900D+02 -0.557600D-01
  0.899700D+01 -0.126895D+00
  0.331900D+01 -0.170352D+00
  0.905900D+00  0.140382D+00
  0.364300D+00  0.598684D+00
  0.128500D+00  0.395389D+00
   s     1 1.00
  0.905900D+00  0.100000D+01
   s     1 1.00
  0.364300D+00  0.100000D+01
   p     5 1.00
  0.187100D+02  0.140310D-01
  0.413300D+01  0.868660D-01
  0.120000D+01  0.290216D+00
  0.382700D+00  0.501008D+00
  0.120900D+00  0.343406D+00
   p     1 1.00
  0.382700D+00  0.100000D+01
   p     1 1.00
  0.120900D+00  0.100000D+01
   d     1 1.00
  0.109700D+01  0.100000D+01
   d     1 1.00
  0.318000D+00  0.100000D+01
   f     1 1.00
  0.761000D+00  0.100000D+01
  
  8  0
   s     4 1.00
  0.130100D+02  0.196850D-01
  0.196200D+01  0.137977D+00
  0.444600D+00  0.478148D+00
  0.122000D+00  0.501240D+00
   s     1 1.00
  0.122000D+00  0.100000D+01
   p     1 1.00
  0.727000D+00  0.100000D+01
  
  9  0
   s     4 1.00
  0.130100D+02  0.196850D-01
  0.196200D+01  0.137977D+00
  0.444600D+00  0.478148D+00
  0.122000D+00  0.501240D+00
   s     1 1.00
  0.122000D+00  0.100000D+01
   p     1 1.00
  0.727000D+00  0.100000D+01
  
 10  0
   s     4 1.00
  0.130100D+02  0.196850D-01
  0.196200D+01  0.137977D+00
  0.444600D+00  0.478148D+00
  0.122000D+00  0.501240D+00
   s     1 1.00
  0.122000D+00  0.100000D+01
   p     1 1.00
  0.727000D+00  0.100000D+01
  
 11  0
   s     4 1.00
  0.130100D+02  0.196850D-01
  0.196200D+01  0.137977D+00
  0.444600D+00  0.478148D+00
  0.122000D+00  0.501240D+00
   s     1 1.00
  0.122000D+00  0.100000D+01
   p     1 1.00
  0.727000D+00  0.100000D+01
  
 12  0
   s     4 1.00
  0.130100D+02  0.196850D-01
  0.196200D+01  0.137977D+00
  0.444600D+00  0.478148D+00
  0.122000D+00  0.501240D+00
   s     1 1.00
  0.122000D+00  0.100000D+01
   p     1 1.00
  0.727000D+00  0.100000D+01
  
 13  0
   s     4 1.00
  0.130100D+02  0.196850D-01
  0.196200D+01  0.137977D+00
  0.444600D+00  0.478148D+00
  0.122000D+00  0.501240D+00
   s     1 1.00
  0.122000D+00  0.100000D+01
   p     1 1.00
  0.727000D+00  0.100000D+01
  
 14  0
   s     4 1.00
  0.130100D+02  0.196850D-01
  0.196200D+01  0.137977D+00
  0.444600D+00  0.478148D+00
  0.122000D+00  0.501240D+00
   s     1 1.00
  0.122000D+00  0.100000D+01
   p     1 1.00
  0.727000D+00  0.100000D+01
  
[MO]
 Sym= __1_a__
 Ene=  0.000000000000000E+000
 Spin= Alpha
 Occup=    2.00000000000000     
                     1  6.189137534139660E-005
                     2  0.997772800240923     
                     3  1.230594110167970E-002
                     4  2.159474307729680E-003
                     5  1.003030668239190E-003
                     6  1.136406121819240E-006
                     7 -1.544809046238700E-006
                     8  3.397328571250530E-003
                     9 -9.512273246160811E-008
                    10  1.331637400029130E-007
                    11 -2.716418369584980E-004
                    12 -1.721438293672410E-007
                    13  2.007573266761410E-007
                    14 -5.119924720942700E-004
                    15  1.662177895786175E-004
                    16  1.294770715629400E-007
                    17 -1.747762600654220E-007
                    18  3.041691864288000E-005
                    19  9.594763763820710E-005
                    20  6.455972388910796E-005
                    21 -1.018815610155560E-007
                    22  1.835134406517410E-007
                    23 -2.299461159352360E-004
                    24 -4.644480612513760E-004
                    25 -1.772718791113340E-004
                    26  9.974130764313706E-008
                    27 -1.556518652357761E-007
                    28 -8.492890894221060E-006
                    29 -6.754647139117710E-005
                    30  4.102434397298515E-008
                    31 -2.305649115188075E-008
                    32 -2.133837675753700E-004
                    33  2.803344730758850E-003
                    34  1.000876448347820E-004
                    35 -5.456219129534010E-004
                    36 -2.233942750405260E-006
                    37  3.045741547876390E-006
                    38 -6.721793730260790E-003
                    39 -3.495128712495240E-008
                    40  5.858814275514090E-009
                    41 -1.395030452216390E-004
                    42  1.252485771790190E-006
                    43 -1.665522766149830E-006
                    44  3.807330829670210E-003
                    45  3.797741757352416E-004
                    46  1.801284404939870E-007
                    47 -3.298158445102770E-007
                    48  1.037153935963722E-004
                    49 -9.146196269313910E-006
                    50  6.199512590945051E-004
                    51  3.945362014779810E-007
                    52 -6.771527123437560E-007
                    53  2.583804666174380E-005
                    54  1.051777313329680E-004
                    55 -5.928632059937136E-005
                    56  1.072233056696222E-008
                    57 -9.197283394728458E-008
                    58  4.684787098200700E-005
                    59 -1.934700837364930E-005
                    60 -8.451761230263053E-009
                    61 -3.753424296068746E-008
                    62 -1.891539622602690E-004
                    63 -1.703279802004980E-003
                    64  2.119281969245520E-006
                    65  7.926983317868200E-004
                    66  4.296123404268370E-006
                    67 -8.867773868777629E-004
                    68  1.203017434826310E-003
                    69  4.841931656445630E-005
                    70  9.785762771202640E-005
                    71  1.848412461852210E-004
                    72  4.501844619581710E-005
                    73 -5.965097306145310E-004
                    74 -2.968442502419320E-004
                    75  9.205872130529081E-005
                    76  2.670929939894760E-006
                    77 -1.277573068320830E-005
                    78  3.420551366611200E-005
                    79  1.017380668251380E-006
                    80  4.050156394179745E-005
                    81 -1.826310775510290E-005
                    82  1.027642195111780E-005
                    83  1.173617661121870E-005
                    84  3.029708355550370E-005
                    85 -7.599346434303301E-005
                    86  6.786899167158973E-006
                    87 -7.152240107227494E-006
                    88  2.130264500387360E-005
                    89 -4.988810613221260E-006
                    90  2.447612172031348E-006
                    91  2.232805183267095E-005
                    92 -1.891163114445770E-004
                    93 -1.703129274987950E-003
                    94  2.288600646676050E-006
                    95  7.921653358986060E-004
                    96 -3.501436713450790E-006
                    97  8.857141200809650E-004
                    98  1.203931406118230E-003
                    99 -4.827276008043660E-005
                   100 -9.817324020963850E-005
                   101  1.841523269283080E-004
                   102 -4.517288021962090E-005
                   103  5.961829006001200E-004
                   104 -2.960989062285050E-004
                   105  9.204888385084264E-005
                   106 -2.586005452777080E-006
                   107  1.261827427568710E-005
                   108  3.421687103183960E-005
                   109  1.027421311742050E-006
                   110  4.000721360629070E-005
                   111  1.835101547402440E-005
                   112 -1.048420752783370E-005
                   113  1.164760209326404E-005
                   114  3.027000296919770E-005
                   115 -7.594898225585757E-005
                   116 -6.689025849844541E-006
                   117  6.962866065622143E-006
                   118  2.127421825275140E-005
                   119 -4.957620792029280E-006
                   120 -2.459908068155288E-006
                   121 -2.235440588164657E-005
                   122 -1.533618831797810E-004
                   123  2.826216851690940E-005
                   124  8.063457157219061E-005
                   125  2.459334601421900E-004
                   126 -7.303543293060489E-005
                   127  5.184325931302570E-005
                   128 -8.562503836996880E-004
                   129 -3.705605459803150E-006
                   130  2.110856420273840E-005
                   131  2.216012457204560E-004
                   132  1.661899509255500E-005
                   133 -4.435689313624800E-005
                   134  5.662590641175410E-004
                   135 -2.263351615682628E-006
                   136  1.845266373258160E-006
                   137  5.544627185232600E-006
                   138 -1.553643569333052E-006
                   139  1.603603714495160E-006
                   140 -1.333099466559722E-004
                   141 -1.332632901742230E-005
                   142  1.027319185033670E-004
                   143  3.355227095650140E-005
                   144 -5.920809810135730E-006
                   145 -2.564959578313842E-005
                   146 -4.271860292113946E-007
                   147 -4.928780126481655E-006
                   148 -8.227387271317319E-006
                   149 -1.455808062017810E-006
                   150 -9.964146423229310E-007
                   151 -2.446028176017698E-006
                   152 -1.538571917270910E-004
                   153  2.650420709438280E-005
                   154  8.011661661170430E-005
                   155  2.491383611059890E-004
                   156  7.245501988030290E-005
                   157 -5.100746978167350E-005
                   158 -8.563154880547070E-004
                   159  3.912907676320410E-006
                   160 -2.172412173031640E-005
                   161  2.212454376011820E-004
                   162 -1.629693228424210E-005
                   163  4.439890842652860E-005
                   164  5.664957667382230E-004
                   165 -2.214530697769814E-006
                   166 -1.848338009036470E-006
                   167 -5.550908057686970E-006
                   168 -1.615505512538454E-006
                   169  1.591409974139150E-006
                   170 -1.333620195789068E-004
                   171  1.315383001307050E-005
                   172 -1.028282527281830E-004
                   173  3.340831893042700E-005
                   174 -6.004634540353090E-006
                   175 -2.556726145785095E-005
                   176  4.803154236360076E-007
                   177  4.891352286088862E-006
                   178 -8.272483995870220E-006
                   179 -1.461700945016640E-006
                   180  1.006183689155780E-006
                   181  2.465019273294089E-006
                   182 -1.282245292642770E-004
                   183 -3.490813928260820E-004
                   184  2.423315935063170E-005
                   185  2.350744018825040E-004
                   186 -2.500374206672890E-008
                   187  1.151990865262670E-007
                   188 -4.321543312733760E-005
                   189  4.729355238745720E-008
                   190 -4.975748502178990E-007
                   191  1.030699654583860E-005
                   192 -4.999526831732860E-009
                   193 -3.574672949905810E-008
                   194 -3.632374000320390E-005
                   195  2.127804991540772E-005
                   196  8.136456848054049E-009
                   197  6.059701973346110E-009
                   198  7.674717999684079E-006
                   199  2.236089787792980E-006
                   200  3.123667156049874E-005
                   201 -7.275015246235980E-009
                   202  2.044142894887540E-007
                   203  2.357830933411940E-005
                   204 -5.556111472898960E-007
                   205 -1.097611708457268E-005
                   206  9.691250053465890E-009
                   207 -2.237081313684821E-008
                   208  2.528454627600340E-006
                   209  1.750405035866800E-006
                   210  4.862204729722828E-009
                   211  2.920319362554792E-008
                   212  5.746358159584570E-003
                   213 -3.178856688714890E-003
                   214  5.334335249540620E-004
                   215  3.095188879529610E-004
                   216  4.209382504067330E-004
                   217  5.746326614807140E-003
                   218 -3.178844377180030E-003
                   219 -5.331508174192770E-004
                   220 -3.098991283593400E-004
                   221  4.210113898736530E-004
                   222 -6.801169535247910E-004
                   223 -1.852865160879930E-004
                   224  4.470357332796160E-006
                   225 -3.754455167287230E-005
                   226 -4.486035293253230E-005
                   227 -6.801849232376150E-004
                   228 -1.848977474371410E-004
                   229 -4.499766298618420E-006
                   230  3.756572745448890E-005
                   231 -4.485104435085070E-005
                   232 -2.690494716659120E-004
                   233 -2.460517904265550E-004
                   234 -2.815521613048660E-006
                   235 -1.356629087068620E-005
                   236 -8.992583273610710E-007
                   237 -2.690944566208350E-004
                   238 -2.462103825201770E-004
                   239  2.809761635070260E-006
                   240  1.361518248085150E-005
                   241 -8.370050020490021E-007
                   242  1.063301971060360E-004
                   243 -3.467742857855990E-005
                   244  5.555462247897470E-009
                   245 -3.039254459046690E-008
                   246  1.393337095362920E-005
 Sym= __2_a__
 Ene=  0.000000000000000E+000
 Spin= Alpha
 Occup=    2.00000000000000     
                     1 -1.596744840841200E-005
                     2 -8.088219673964841E-005
                     3  1.937881739769540E-003
                     4  3.817563855806400E-005
                     5  1.140039742906830E-003
                     6  6.942474825140560E-007
                     7 -9.509339993725840E-007
                     8  2.117620961431510E-003
                     9 -3.162690333394890E-008
                    10  4.520258540044860E-008
                    11 -1.053286636835390E-004
                    12 -1.464248199763710E-008
                    13  2.892058067196270E-008
                    14 -5.469083522755650E-005
                    15  5.624012023901840E-005
                    16  1.664026110260330E-008
                    17 -4.286557564827440E-008
                    18  1.539173378940192E-005
                    19 -2.251617891521840E-005
                    20 -1.040277711601642E-004
                    21  6.218476346239870E-009
                    22  7.550342566081650E-008
                    23 -5.765012511415140E-005
                    24  9.891827093935090E-005
                    25  1.940810612518759E-004
                    26 -1.490884998505301E-007
                    27  2.605071020241524E-007
                    28 -4.856036186362720E-005
                    29 -2.530142302248530E-005
                    30  3.370526740708106E-008
                    31  1.690434877122272E-008
                    32   1.00101245294266     
                    33  8.934672578688220E-003
                    34  2.634639243169260E-003
                    35 -7.987909780407639E-003
                    36 -1.058521815406870E-006
                    37  1.430179244703910E-006
                    38 -3.190363882728240E-003
                    39  4.284685148056280E-007
                    40 -5.776608617792640E-007
                    41  1.295848163894210E-003
                    42  1.225962701866350E-006
                    43 -1.723291652784780E-006
                    44  3.675083597974060E-003
                    45  2.845821477206217E-004
                    46  2.954665748779840E-007
                    47 -4.396378738941310E-008
                    48 -4.006503851039680E-004
                    49 -1.618862804275340E-006
                    50  4.060265937596729E-004
                    51 -3.501331061257120E-008
                    52 -7.027221002178570E-007
                    53  8.653873273601500E-004
                    54  3.837518717832090E-005
                    55  2.979899120482538E-004
                    56 -1.457204964943602E-007
                    57  4.558173124280869E-007
                    58 -1.801469056846764E-004
                    59  3.496263417655290E-006
                    60  7.142909467261313E-008
                    61  1.025489683106325E-007
                    62  1.237078375328680E-002
                    63 -1.819041286641670E-003
                    64 -2.808439238349000E-004
                    65  2.962913680710030E-003
                    66 -5.482523111872020E-006
                    67  2.379904673391480E-004
                    68 -1.101049372035010E-004
                    69 -2.778708678988700E-005
                    70  4.969841308774090E-004
                    71  6.522623427019190E-005
                    72  1.105361803122860E-004
                    73 -1.867219595327220E-003
                    74  1.257224144666100E-004
                    75 -2.436035304365747E-005
                    76  1.928860266669240E-006
                    77  2.206758948630270E-005
                    78  2.458740554782240E-005
                    79  2.187080082534060E-006
                    80  8.069910097428111E-004
                    81  4.156348676196630E-005
                    82 -4.672274174967030E-004
                    83 -7.133219152803200E-006
                    84 -1.535106847172860E-005
                    85  5.041416850264097E-005
                    86  5.178441536423849E-007
                    87  3.194668364015601E-005
                    88 -1.070988273083228E-004
                    89 -3.708514357387520E-006
                    90  6.654211161377156E-006
                    91  5.338686136007381E-005
                    92  1.237075497751220E-002
                    93 -1.819121024787290E-003
                    94 -2.808915640152560E-004
                    95  2.963115424879980E-003
                    96  5.410022616686350E-006
                    97 -2.378931564403970E-004
                    98 -1.103503953883640E-004
                    99  2.782529292394540E-005
                   100 -4.970332126169240E-004
                   101  6.491034285340561E-005
                   102 -1.104636771180700E-004
                   103  1.867253691548880E-003
                   104  1.273222736946700E-004
                   105 -2.437842493101608E-005
                   106 -1.971651140093190E-006
                   107 -2.205948275598330E-005
                   108  2.456486203832660E-005
                   109  2.174490635316110E-006
                   110  8.078488278220876E-004
                   111 -4.065063016962500E-005
                   112  4.660333384677110E-004
                   113 -6.717579917669740E-006
                   114 -1.500337511858310E-005
                   115  5.046709631237394E-005
                   116 -4.937607184846769E-007
                   117 -3.167771252454559E-005
                   118 -1.072065754557028E-004
                   119 -3.704766337619070E-006
                   120 -6.562727447090660E-006
                   121 -5.327095595395041E-005
                   122 -1.402672743602530E-004
                   123 -7.523634953849520E-004
                   124  2.305074726655410E-004
                   125 -2.044413114077340E-004
                   126 -1.094043334648330E-005
                   127 -4.458547006400160E-005
                   128 -1.935770715010690E-004
                   129  2.565204062008150E-005
                   130  4.940612336745110E-005
                   131  5.657344665658330E-004
                   132 -1.493506894769480E-005
                   133  3.220631599391400E-004
                   134  6.325671361487210E-004
                   135 -2.345353129555532E-005
                   136 -4.459170402228520E-006
                   137  4.872586241948160E-005
                   138  1.594458648732558E-005
                   139  5.366241407706660E-006
                   140 -3.091902086890278E-004
                   141 -6.993572423304740E-006
                   142 -2.708664161505560E-004
                   143 -3.136243348615460E-005
                   144 -2.892792464904920E-005
                   145 -7.299742712324874E-006
                   146  6.325621270507630E-006
                   147 -2.407842240375340E-005
                   148 -2.698144803865520E-005
                   149 -5.171873731278040E-006
                   150  1.438942394440450E-007
                   151 -7.772569234230061E-006
                   152 -1.399769278277160E-004
                   153 -7.514021388645140E-004
                   154  2.305982129393640E-004
                   155 -2.055500789275250E-004
                   156  1.081417089438070E-005
                   157  4.474603119213530E-005
                   158 -1.935482842313840E-004
                   159 -2.528843797315660E-005
                   160 -4.984094186692220E-005