[Molden Format]
[Atoms] AU
  N     1    7    -0.0029026500   -0.0026920100   -4.3554729600        
  C     2    6    -0.0020348800   -0.0038702000   -1.7386868400        
  C     3    6     0.1016630700   -2.3231132900   -0.4140385600        
  C     4    6    -0.1048535500    2.3141790800   -0.4118821600        
  C     5    6     0.1779239000   -2.2915836800    2.1783822300        
  C     6    6    -0.1793949700    2.2803150300    2.1805591900        
  C     7    6    -0.0003062300   -0.0062172000    3.4740350900        
  H     8    1    -1.4328911700   -0.8675963600   -5.3689202300        
  H     9    1     1.4264136600    0.8631250000   -5.3690891700        
  H    10    1     0.2067909300   -4.0495537600   -1.4570210000        
  H    11    1    -0.2106726200    4.0415580100   -1.4532395800        
  H    12    1     0.3533159900   -4.0254823400    3.2094006900        
  H    13    1    -0.3541026800    4.0132845100    3.2132546900        
  H    14    1     0.0003664500   -0.0071305200    5.5025494900        
[5D]
[7F]
[GTO]
  1  0
   s    12 1.00
  0.114200D+05  0.172695D-04
  0.171200D+04  0.134411D-03
  0.389300D+03  0.694561D-03
  0.110000D+03  0.278531D-02
  0.355700D+02  0.863457D-02
  0.125400D+02  0.199805D-01
  0.464400D+01  0.262908D-01
  0.129300D+01 -0.243845D-01
  0.511800D+00 -0.924934D-01
  0.178700D+00 -0.339683D+00
  0.246240D-01  0.345111D+00
  0.112530D-01  0.752750D+00
   s    10 1.00
  0.114200D+05  0.523000D-03
  0.171200D+04  0.404500D-02
  0.389300D+03  0.207750D-01
  0.110000D+03  0.807269D-01
  0.355700D+02  0.233074D+00
  0.125400D+02  0.433501D+00
  0.464400D+01  0.347472D+00
  0.129300D+01  0.412620D-01
  0.511800D+00 -0.850799D-02
  0.178700D+00  0.238400D-02
   s    10 1.00
  0.114200D+05 -0.115000D-03
  0.171200D+04 -0.895000D-03
  0.389300D+03 -0.462400D-02
  0.110000D+03 -0.185280D-01
  0.355700D+02 -0.573390D-01
  0.125400D+02 -0.132076D+00
  0.464400D+01 -0.172510D+00
  0.129300D+01  0.151814D+00
  0.511800D+00  0.599944D+00
  0.178700D+00  0.387462D+00
   s     1 1.00
  0.129300D+01  0.100000D+01
   s     1 1.00
  0.178700D+00  0.100000D+01
   p     5 1.00
  0.266300D+02  0.146700D-01
  0.594800D+01  0.917640D-01
  0.174200D+01  0.298683D+00
  0.555000D+00  0.498487D+00
  0.172500D+00  0.337023D+00
   p     1 1.00
  0.174200D+01  0.100000D+01
   p     1 1.00
  0.555000D+00  0.100000D+01
   d     1 1.00
  0.165400D+01  0.100000D+01
   d     1 1.00
  0.469000D+00  0.100000D+01
   f     1 1.00
  0.109300D+01  0.100000D+01
  
  2  0
   s    10 1.00
  0.823600D+04  0.531000D-03
  0.123500D+04  0.410800D-02
  0.280800D+03  0.210870D-01
  0.792700D+02  0.818530D-01
  0.255900D+02  0.234817D+00
  0.899700D+01  0.434401D+00
  0.331900D+01  0.346129D+00
  0.905900D+00  0.393780D-01
  0.364300D+00 -0.898300D-02
  0.128500D+00  0.238500D-02
   s    10 1.00
  0.823600D+04 -0.113000D-03
  0.123500D+04 -0.878000D-03
  0.280800D+03 -0.454000D-02
  0.792700D+02 -0.181330D-01
  0.255900D+02 -0.557600D-01
  0.899700D+01 -0.126895D+00
  0.331900D+01 -0.170352D+00
  0.905900D+00  0.140382D+00
  0.364300D+00  0.598684D+00
  0.128500D+00  0.395389D+00
   s     1 1.00
  0.905900D+00  0.100000D+01
   s     1 1.00
  0.364300D+00  0.100000D+01
   p     5 1.00
  0.187100D+02  0.140310D-01
  0.413300D+01  0.868660D-01
  0.120000D+01  0.290216D+00
  0.382700D+00  0.501008D+00
  0.120900D+00  0.343406D+00
   p     1 1.00
  0.382700D+00  0.100000D+01
   p     1 1.00
  0.120900D+00  0.100000D+01
   d     1 1.00
  0.109700D+01  0.100000D+01
   d     1 1.00
  0.318000D+00  0.100000D+01
   f     1 1.00
  0.761000D+00  0.100000D+01
  
  3  0
   s    10 1.00
  0.823600D+04  0.531000D-03
  0.123500D+04  0.410800D-02
  0.280800D+03  0.210870D-01
  0.792700D+02  0.818530D-01
  0.255900D+02  0.234817D+00
  0.899700D+01  0.434401D+00
  0.331900D+01  0.346129D+00
  0.905900D+00  0.393780D-01
  0.364300D+00 -0.898300D-02
  0.128500D+00  0.238500D-02
   s    10 1.00
  0.823600D+04 -0.113000D-03
  0.123500D+04 -0.878000D-03
  0.280800D+03 -0.454000D-02
  0.792700D+02 -0.181330D-01
  0.255900D+02 -0.557600D-01
  0.899700D+01 -0.126895D+00
  0.331900D+01 -0.170352D+00
  0.905900D+00  0.140382D+00
  0.364300D+00  0.598684D+00
  0.128500D+00  0.395389D+00
   s     1 1.00
  0.905900D+00  0.100000D+01
   s     1 1.00
  0.364300D+00  0.100000D+01
   p     5 1.00
  0.187100D+02  0.140310D-01
  0.413300D+01  0.868660D-01
  0.120000D+01  0.290216D+00
  0.382700D+00  0.501008D+00
  0.120900D+00  0.343406D+00
   p     1 1.00
  0.382700D+00  0.100000D+01
   p     1 1.00
  0.120900D+00  0.100000D+01
   d     1 1.00
  0.109700D+01  0.100000D+01
   d     1 1.00
  0.318000D+00  0.100000D+01
   f     1 1.00
  0.761000D+00  0.100000D+01
  
  4  0
   s    10 1.00
  0.823600D+04  0.531000D-03
  0.123500D+04  0.410800D-02
  0.280800D+03  0.210870D-01
  0.792700D+02  0.818530D-01
  0.255900D+02  0.234817D+00
  0.899700D+01  0.434401D+00
  0.331900D+01  0.346129D+00
  0.905900D+00  0.393780D-01
  0.364300D+00 -0.898300D-02
  0.128500D+00  0.238500D-02
   s    10 1.00
  0.823600D+04 -0.113000D-03
  0.123500D+04 -0.878000D-03
  0.280800D+03 -0.454000D-02
  0.792700D+02 -0.181330D-01
  0.255900D+02 -0.557600D-01
  0.899700D+01 -0.126895D+00
  0.331900D+01 -0.170352D+00
  0.905900D+00  0.140382D+00
  0.364300D+00  0.598684D+00
  0.128500D+00  0.395389D+00
   s     1 1.00
  0.905900D+00  0.100000D+01
   s     1 1.00
  0.364300D+00  0.100000D+01
   p     5 1.00
  0.187100D+02  0.140310D-01
  0.413300D+01  0.868660D-01
  0.120000D+01  0.290216D+00
  0.382700D+00  0.501008D+00
  0.120900D+00  0.343406D+00
   p     1 1.00
  0.382700D+00  0.100000D+01
   p     1 1.00
  0.120900D+00  0.100000D+01
   d     1 1.00
  0.109700D+01  0.100000D+01
   d     1 1.00
  0.318000D+00  0.100000D+01
   f     1 1.00
  0.761000D+00  0.100000D+01
  
  5  0
   s    10 1.00
  0.823600D+04  0.531000D-03
  0.123500D+04  0.410800D-02
  0.280800D+03  0.210870D-01
  0.792700D+02  0.818530D-01
  0.255900D+02  0.234817D+00
  0.899700D+01  0.434401D+00
  0.331900D+01  0.346129D+00
  0.905900D+00  0.393780D-01
  0.364300D+00 -0.898300D-02
  0.128500D+00  0.238500D-02
   s    10 1.00
  0.823600D+04 -0.113000D-03
  0.123500D+04 -0.878000D-03
  0.280800D+03 -0.454000D-02
  0.792700D+02 -0.181330D-01
  0.255900D+02 -0.557600D-01
  0.899700D+01 -0.126895D+00
  0.331900D+01 -0.170352D+00
  0.905900D+00  0.140382D+00
  0.364300D+00  0.598684D+00
  0.128500D+00  0.395389D+00
   s     1 1.00
  0.905900D+00  0.100000D+01
   s     1 1.00
  0.364300D+00  0.100000D+01
   p     5 1.00
  0.187100D+02  0.140310D-01
  0.413300D+01  0.868660D-01
  0.120000D+01  0.290216D+00
  0.382700D+00  0.501008D+00
  0.120900D+00  0.343406D+00
   p     1 1.00
  0.382700D+00  0.100000D+01
   p     1 1.00
  0.120900D+00  0.100000D+01
   d     1 1.00
  0.109700D+01  0.100000D+01
   d     1 1.00
  0.318000D+00  0.100000D+01
   f     1 1.00
  0.761000D+00  0.100000D+01
  
  6  0
   s    10 1.00
  0.823600D+04  0.531000D-03
  0.123500D+04  0.410800D-02
  0.280800D+03  0.210870D-01
  0.792700D+02  0.818530D-01
  0.255900D+02  0.234817D+00
  0.899700D+01  0.434401D+00
  0.331900D+01  0.346129D+00
  0.905900D+00  0.393780D-01
  0.364300D+00 -0.898300D-02
  0.128500D+00  0.238500D-02
   s    10 1.00
  0.823600D+04 -0.113000D-03
  0.123500D+04 -0.878000D-03
  0.280800D+03 -0.454000D-02
  0.792700D+02 -0.181330D-01
  0.255900D+02 -0.557600D-01
  0.899700D+01 -0.126895D+00
  0.331900D+01 -0.170352D+00
  0.905900D+00  0.140382D+00
  0.364300D+00  0.598684D+00
  0.128500D+00  0.395389D+00
   s     1 1.00
  0.905900D+00  0.100000D+01
   s     1 1.00
  0.364300D+00  0.100000D+01
   p     5 1.00
  0.187100D+02  0.140310D-01
  0.413300D+01  0.868660D-01
  0.120000D+01  0.290216D+00
  0.382700D+00  0.501008D+00
  0.120900D+00  0.343406D+00
   p     1 1.00
  0.382700D+00  0.100000D+01
   p     1 1.00
  0.120900D+00  0.100000D+01
   d     1 1.00
  0.109700D+01  0.100000D+01
   d     1 1.00
  0.318000D+00  0.100000D+01
   f     1 1.00
  0.761000D+00  0.100000D+01
  
  7  0
   s    10 1.00
  0.823600D+04  0.531000D-03
  0.123500D+04  0.410800D-02
  0.280800D+03  0.210870D-01
  0.792700D+02  0.818530D-01
  0.255900D+02  0.234817D+00
  0.899700D+01  0.434401D+00
  0.331900D+01  0.346129D+00
  0.905900D+00  0.393780D-01
  0.364300D+00 -0.898300D-02
  0.128500D+00  0.238500D-02
   s    10 1.00
  0.823600D+04 -0.113000D-03
  0.123500D+04 -0.878000D-03
  0.280800D+03 -0.454000D-02
  0.792700D+02 -0.181330D-01
  0.255900D+02 -0.557600D-01
  0.899700D+01 -0.126895D+00
  0.331900D+01 -0.170352D+00
  0.905900D+00  0.140382D+00
  0.364300D+00  0.598684D+00
  0.128500D+00  0.395389D+00
   s     1 1.00
  0.905900D+00  0.100000D+01
   s     1 1.00
  0.364300D+00  0.100000D+01
   p     5 1.00
  0.187100D+02  0.140310D-01
  0.413300D+01  0.868660D-01
  0.120000D+01  0.290216D+00
  0.382700D+00  0.501008D+00
  0.120900D+00  0.343406D+00
   p     1 1.00
  0.382700D+00  0.100000D+01
   p     1 1.00
  0.120900D+00  0.100000D+01
   d     1 1.00
  0.109700D+01  0.100000D+01
   d     1 1.00
  0.318000D+00  0.100000D+01
   f     1 1.00
  0.761000D+00  0.100000D+01
  
  8  0
   s     4 1.00
  0.130100D+02  0.196850D-01
  0.196200D+01  0.137977D+00
  0.444600D+00  0.478148D+00
  0.122000D+00  0.501240D+00
   s     1 1.00
  0.122000D+00  0.100000D+01
   p     1 1.00
  0.727000D+00  0.100000D+01
  
  9  0
   s     4 1.00
  0.130100D+02  0.196850D-01
  0.196200D+01  0.137977D+00
  0.444600D+00  0.478148D+00
  0.122000D+00  0.501240D+00
   s     1 1.00
  0.122000D+00  0.100000D+01
   p     1 1.00
  0.727000D+00  0.100000D+01
  
 10  0
   s     4 1.00
  0.130100D+02  0.196850D-01
  0.196200D+01  0.137977D+00
  0.444600D+00  0.478148D+00
  0.122000D+00  0.501240D+00
   s     1 1.00
  0.122000D+00  0.100000D+01
   p     1 1.00
  0.727000D+00  0.100000D+01
  
 11  0
   s     4 1.00
  0.130100D+02  0.196850D-01
  0.196200D+01  0.137977D+00
  0.444600D+00  0.478148D+00
  0.122000D+00  0.501240D+00
   s     1 1.00
  0.122000D+00  0.100000D+01
   p     1 1.00
  0.727000D+00  0.100000D+01
  
 12  0
   s     4 1.00
  0.130100D+02  0.196850D-01
  0.196200D+01  0.137977D+00
  0.444600D+00  0.478148D+00
  0.122000D+00  0.501240D+00
   s     1 1.00
  0.122000D+00  0.100000D+01
   p     1 1.00
  0.727000D+00  0.100000D+01
  
 13  0
   s     4 1.00
  0.130100D+02  0.196850D-01
  0.196200D+01  0.137977D+00
  0.444600D+00  0.478148D+00
  0.122000D+00  0.501240D+00
   s     1 1.00
  0.122000D+00  0.100000D+01
   p     1 1.00
  0.727000D+00  0.100000D+01
  
 14  0
   s     4 1.00
  0.130100D+02  0.196850D-01
  0.196200D+01  0.137977D+00
  0.444600D+00  0.478148D+00
  0.122000D+00  0.501240D+00
   s     1 1.00
  0.122000D+00  0.100000D+01
   p     1 1.00
  0.727000D+00  0.100000D+01
  
[MO]
 Sym= __1_A__
 Ene=   1.00000000000000     
 Spin= Alpha
 Occup=    1.00000000000000     
                     1  6.189137534139656E-005
                     2  0.997772800240923     
                     3  1.230594110167973E-002
                     4  2.159474307729677E-003
                     5  1.003030668239187E-003
                     6  1.136406121819239E-006
                     7 -1.544809046238705E-006
                     8  3.397328571250535E-003
                     9 -9.512273246160809E-008
                    10  1.331637400029129E-007
                    11 -2.716418369584980E-004
                    12 -1.721438293672409E-007
                    13  2.007573266761408E-007
                    14 -5.119924720942701E-004
                    15  1.662177895786176E-004
                    16  1.294770715629395E-007
                    17 -1.747762600654223E-007
                    18  3.041691864288002E-005
                    19  9.594763763820711E-005
                    20  6.455972388910785E-005
                    21 -1.018815610155557E-007
                    22  1.835134406517409E-007
                    23 -2.299461159352364E-004
                    24 -4.644480612513755E-004
                    25 -1.772718791113340E-004
                    26  9.974130764313706E-008
                    27 -1.556518652357762E-007
                    28 -8.492890894221064E-006
                    29 -6.754647139117708E-005
                    30  4.102434397298516E-008
                    31 -2.305649115188073E-008
                    32 -2.133837675753698E-004
                    33  2.803344730758852E-003
                    34  1.000876448347821E-004
                    35 -5.456219129534011E-004
                    36 -2.233942750405261E-006
                    37  3.045741547876388E-006
                    38 -6.721793730260794E-003
                    39 -3.495128712495243E-008
                    40  5.858814275514092E-009
                    41 -1.395030452216390E-004
                    42  1.252485771790195E-006
                    43 -1.665522766149830E-006
                    44  3.807330829670214E-003
                    45  3.797741757352429E-004
                    46  1.801284404939874E-007
                    47 -3.298158445102767E-007
                    48  1.037153935963722E-004
                    49 -9.146196269313905E-006
                    50  6.199512590945047E-004
                    51  3.945362014779813E-007
                    52 -6.771527123437563E-007
                    53  2.583804666174390E-005
                    54  1.051777313329677E-004
                    55 -5.928632059937136E-005
                    56  1.072233056696221E-008
                    57 -9.197283394728433E-008
                    58  4.684787098200698E-005
                    59 -1.934700837364926E-005
                    60 -8.451761230263046E-009
                    61 -3.753424296068743E-008
                    62 -1.891539622602690E-004
                    63 -1.703279802004979E-003
                    64  2.119281969245524E-006
                    65  7.926983317868199E-004
                    66  4.296123404268373E-006
                    67 -8.867773868777625E-004
                    68  1.203017434826315E-003
                    69  4.841931656445634E-005
                    70  9.785762771202638E-005
                    71  1.848412461852214E-004
                    72  4.501844619581709E-005
                    73 -5.965097306145312E-004
                    74 -2.968442502419325E-004
                    75  9.205872130529074E-005
                    76  2.670929939894759E-006
                    77 -1.277573068320826E-005
                    78  3.420551366611192E-005
                    79  1.017380668251383E-006
                    80  4.050156394179745E-005
                    81 -1.826310775510288E-005
                    82  1.027642195111782E-005
                    83  1.173617661121871E-005
                    84  3.029708355550367E-005
                    85 -7.599346434303303E-005
                    86  6.786899167158960E-006
                    87 -7.152240107227507E-006
                    88  2.130264500387354E-005
                    89 -4.988810613221263E-006
                    90  2.447612172031351E-006
                    91  2.232805183267093E-005
                    92 -1.891163114445770E-004
                    93 -1.703129274987949E-003
                    94  2.288600646676054E-006
                    95  7.921653358986063E-004
                    96 -3.501436713450787E-006
                    97  8.857141200809646E-004
                    98  1.203931406118231E-003
                    99 -4.827276008043657E-005
                   100 -9.817324020963853E-005
                   101  1.841523269283076E-004
                   102 -4.517288021962088E-005
                   103  5.961829006001203E-004
                   104 -2.960989062285052E-004
                   105  9.204888385084264E-005
                   106 -2.586005452777078E-006
                   107  1.261827427568712E-005
                   108  3.421687103183970E-005
                   109  1.027421311742050E-006
                   110  4.000721360629070E-005
                   111  1.835101547402438E-005
                   112 -1.048420752783366E-005
                   113  1.164760209326403E-005
                   114  3.027000296919769E-005
                   115 -7.594898225585749E-005
                   116 -6.689025849844521E-006
                   117  6.962866065622149E-006
                   118  2.127421825275132E-005
                   119 -4.957620792029277E-006
                   120 -2.459908068155281E-006
                   121 -2.235440588164658E-005
                   122 -1.533618831797806E-004
                   123  2.826216851690940E-005
                   124  8.063457157219065E-005
                   125  2.459334601421903E-004
                   126 -7.303543293060487E-005
                   127  5.184325931302570E-005
                   128 -8.562503836996878E-004
                   129 -3.705605459803154E-006
                   130  2.110856420273844E-005
                   131  2.216012457204558E-004
                   132  1.661899509255502E-005
                   133 -4.435689313624798E-005
                   134  5.662590641175408E-004
                   135 -2.263351615682630E-006
                   136  1.845266373258162E-006
                   137  5.544627185232597E-006
                   138 -1.553643569333052E-006
                   139  1.603603714495164E-006
                   140 -1.333099466559722E-004
                   141 -1.332632901742233E-005
                   142  1.027319185033667E-004
                   143  3.355227095650142E-005
                   144 -5.920809810135725E-006
                   145 -2.564959578313842E-005
                   146 -4.271860292113945E-007
                   147 -4.928780126481655E-006
                   148 -8.227387271317319E-006
                   149 -1.455808062017813E-006
                   150 -9.964146423229312E-007
                   151 -2.446028176017698E-006
                   152 -1.538571917270905E-004
                   153  2.650420709438276E-005
                   154  8.011661661170429E-005
                   155  2.491383611059888E-004
                   156  7.245501988030290E-005
                   157 -5.100746978167351E-005
                   158 -8.563154880547074E-004
                   159  3.912907676320409E-006
                   160 -2.172412173031636E-005
                   161  2.212454376011819E-004
                   162 -1.629693228424211E-005
                   163  4.439890842652863E-005
                   164  5.664957667382227E-004
                   165 -2.214530697769813E-006
                   166 -1.848338009036474E-006
                   167 -5.550908057686973E-006
                   168 -1.615505512538455E-006
                   169  1.591409974139152E-006
                   170 -1.333620195789069E-004
                   171  1.315383001307052E-005
                   172 -1.028282527281827E-004
                   173  3.340831893042696E-005
                   174 -6.004634540353086E-006
                   175 -2.556726145785096E-005
                   176  4.803154236360075E-007
                   177  4.891352286088862E-006
                   178 -8.272483995870217E-006
                   179 -1.461700945016640E-006
                   180  1.006183689155780E-006
                   181  2.465019273294091E-006
                   182 -1.282245292642774E-004
                   183 -3.490813928260823E-004
                   184  2.423315935063171E-005
                   185  2.350744018825036E-004
                   186 -2.500374206672886E-008
                   187  1.151990865262672E-007
                   188 -4.321543312733762E-005
                   189  4.729355238745719E-008
                   190 -4.975748502178988E-007
                   191  1.030699654583862E-005
                   192 -4.999526831732859E-009
                   193 -3.574672949905812E-008
                   194 -3.632374000320391E-005
                   195  2.127804991540771E-005
                   196  8.136456848054049E-009
                   197  6.059701973346106E-009
                   198  7.674717999684071E-006
                   199  2.236089787792982E-006
                   200  3.123667156049874E-005
                   201 -7.275015246235976E-009
                   202  2.044142894887537E-007
                   203  2.357830933411936E-005
                   204 -5.556111472898961E-007
                   205 -1.097611708457267E-005
                   206  9.691250053465897E-009
                   207 -2.237081313684823E-008
                   208  2.528454627600332E-006
                   209  1.750405035866805E-006
                   210  4.862204729722828E-009
                   211  2.920319362554793E-008
                   212  5.746358159584566E-003
                   213 -3.178856688714889E-003
                   214  5.334335249540618E-004
                   215  3.095188879529614E-004
                   216  4.209382504067334E-004
                   217  5.746326614807137E-003
                   218 -3.178844377180026E-003
                   219 -5.331508174192769E-004
                   220 -3.098991283593396E-004
                   221  4.210113898736533E-004
                   222 -6.801169535247907E-004
                   223 -1.852865160879930E-004
                   224  4.470357332796159E-006
                   225 -3.754455167287225E-005
                   226 -4.486035293253233E-005
                   227 -6.801849232376154E-004
                   228 -1.848977474371413E-004
                   229 -4.499766298618416E-006
                   230  3.756572745448894E-005
                   231 -4.485104435085074E-005
                   232 -2.690494716659123E-004
                   233 -2.460517904265555E-004
                   234 -2.815521613048656E-006
                   235 -1.356629087068622E-005
                   236 -8.992583273610711E-007
                   237 -2.690944566208347E-004
                   238 -2.462103825201771E-004
                   239  2.809761635070265E-006
                   240  1.361518248085147E-005
                   241 -8.370050020490019E-007
                   242  1.063301971060358E-004
                   243 -3.467742857855986E-005
                   244  5.555462247897469E-009
                   245 -3.039254459046692E-008
                   246  1.393337095362922E-005
 Sym= __2_A__
 Ene=   2.00000000000000     
 Spin= Alpha
 Occup=    1.00000000000000     
                     1 -1.596744840841198E-005
                     2 -8.088219673964835E-005
                     3  1.937881739769543E-003
                     4  3.817563855806404E-005
                     5  1.140039742906829E-003
                     6  6.942474825140560E-007
                     7 -9.509339993725841E-007
                     8  2.117620961431511E-003
                     9 -3.162690333394889E-008
                    10  4.520258540044856E-008
                    11 -1.053286636835394E-004
                    12 -1.464248199763714E-008
                    13  2.892058067196274E-008
                    14 -5.469083522755652E-005
                    15  5.624012023901840E-005
                    16  1.664026110260333E-008
                    17 -4.286557564827438E-008
                    18  1.539173378940191E-005
                    19 -2.251617891521845E-005
                    20 -1.040277711601641E-004
                    21  6.218476346239873E-009
                    22  7.550342566081653E-008
                    23 -5.765012511415136E-005
                    24  9.891827093935094E-005
                    25  1.940810612518759E-004
                    26 -1.490884998505299E-007
                    27  2.605071020241525E-007
                    28 -4.856036186362712E-005
                    29 -2.530142302248529E-005
                    30  3.370526740708108E-008
                    31  1.690434877122275E-008
                    32   1.00101245294266     
                    33  8.934672578688222E-003
                    34  2.634639243169261E-003
                    35 -7.987909780407644E-003
                    36 -1.058521815406874E-006
                    37  1.430179244703907E-006
                    38 -3.190363882728237E-003
                    39  4.284685148056279E-007
                    40 -5.776608617792641E-007
                    41  1.295848163894212E-003
                    42  1.225962701866350E-006
                    43 -1.723291652784775E-006
                    44  3.675083597974061E-003
                    45  2.845821477206218E-004
                    46  2.954665748779845E-007
                    47 -4.396378738941310E-008
                    48 -4.006503851039674E-004
                    49 -1.618862804275341E-006
                    50  4.060265937596712E-004
                    51 -3.501331061257117E-008
                    52 -7.027221002178565E-007
                    53  8.653873273601499E-004
                    54  3.837518717832089E-005
                    55  2.979899120482541E-004
                    56 -1.457204964943601E-007
                    57  4.558173124280868E-007
                    58 -1.801469056846764E-004
                    59  3.496263417655286E-006
                    60  7.142909467261312E-008
                    61  1.025489683106327E-007
                    62  1.237078375328683E-002
                    63 -1.819041286641668E-003
                    64 -2.808439238349004E-004
                    65  2.962913680710030E-003
                    66 -5.482523111872022E-006
                    67  2.379904673391479E-004
                    68 -1.101049372035009E-004
                    69 -2.778708678988702E-005
                    70  4.969841308774089E-004
                    71  6.522623427019194E-005
                    72  1.105361803122859E-004
                    73 -1.867219595327218E-003
                    74  1.257224144666096E-004
                    75 -2.436035304365745E-005
                    76  1.928860266669240E-006
                    77  2.206758948630270E-005
                    78  2.458740554782238E-005
                    79  2.187080082534060E-006
                    80  8.069910097428100E-004
                    81  4.156348676196626E-005
                    82 -4.672274174967026E-004
                    83 -7.133219152803198E-006
                    84 -1.535106847172862E-005
                    85  5.041416850264108E-005
                    86  5.178441536423849E-007
                    87  3.194668364015604E-005
                    88 -1.070988273083228E-004
                    89 -3.708514357387523E-006
                    90  6.654211161377151E-006
                    91  5.338686136007366E-005
                    92  1.237075497751217E-002
                    93 -1.819121024787294E-003
                    94 -2.808915640152560E-004
                    95  2.963115424879977E-003
                    96  5.410022616686349E-006
                    97 -2.378931564403973E-004
                    98 -1.103503953883644E-004
                    99  2.782529292394540E-005
                   100 -4.970332126169238E-004
                   101  6.491034285340556E-005
                   102 -1.104636771180699E-004
                   103  1.867253691548880E-003
                   104  1.273222736946705E-004
                   105 -2.437842493101610E-005
                   106 -1.971651140093186E-006
                   107 -2.205948275598328E-005
                   108  2.456486203832654E-005
                   109  2.174490635316113E-006
                   110  8.078488278220868E-004
                   111 -4.065063016962504E-005
                   112  4.660333384677111E-004
                   113 -6.717579917669744E-006
                   114 -1.500337511858309E-005
                   115  5.046709631237401E-005
                   116 -4.937607184846771E-007
                   117 -3.167771252454557E-005
                   118 -1.072065754557029E-004
                   119 -3.704766337619067E-006
                   120 -6.562727447090667E-006
                   121 -5.327095595395050E-005
                   122 -1.402672743602534E-004
                   123 -7.523634953849522E-004
                   124  2.305074726655410E-004
                   125 -2.044413114077343E-004
                   126 -1.094043334648333E-005
                   127 -4.458547006400165E-005
                   128 -1.935770715010692E-004
                   129  2.565204062008155E-005
                   130  4.940612336745108E-005
                   131  5.657344665658330E-004
                   132 -1.493506894769479E-005
                   133  3.220631599391399E-004
                   134  6.325671361487208E-004
                   135 -2.345353129555532E-005
                   136 -4.459170402228518E-006
                   137  4.872586241948155E-005
                   138  1.594458648732557E-005
                   139  5.366241407706656E-006
                   140 -3.091902086890277E-004
                   141 -6.993572423304739E-006
                   142 -2.708664161505558E-004
                   143 -3.136243348615466E-005
                   144 -2.892792464904917E-005
                   145 -7.299742712324880E-006
                   146  6.325621270507661E-006
                   147 -2.407842240375341E-005
                   148 -2.698144803865520E-005
                   149 -5.171873731278041E-006
                   150  1.438942394440450E-007
                   151 -7.772569234230047E-006
                   152 -1.399769278277159E-004
                   153 -7.514021388645143E-004
                   154  2.305982129393638E-004
                   155 -2.055500789275250E-004
                   156  1.081417089438066E-005
                   157  4.474603119213529E-005
                   158 -1.935482842313843E-004
                   159 -2.528843797315661E-005
                   160 -4.984094186692219E-005