===========================================================
===                   runc                              ===
===           version 7.0.2 , April 2021              ===
===          requires COLUMBUS version Col_7.0.2        ===
===                                                     ===
===   written by: Thomas Mueller                        ===
===   gradient ext. by: Michal Dallos                   ===
===               University of Vienna                  ===
===   maintained by: Felix Plasser                      ===
===               Loughborough University               ===
===========================================================


coremem. (seq.): 200000 MB,  coremem. (par.): 19000 MB
Vdisk size: 0 DP
Reading job control file control.run ... 
 ****** This is an 2c-QDPT MRCISD calculation ****** 
 model space size=4:0:4
SMOLCAS=/home-4/yshen57@jhu.edu/Software/Chemistry/Columbus-7.0.2_OpenMolcas-18.09-col/OpenMolcas/build
Found serial Molcas Installation at /home-4/yshen57@jhu.edu/Software/Chemistry/Columbus-7.0.2_OpenMolcas-18.09-col/OpenMolcas/build
  done 
INFO: keywords nadcoupl and seward are supported for DCI mode only!
seward specified, using also alaska
Creating various directories ... 
 done 
SMOLCAS=/home-4/yshen57@jhu.edu/Software/Chemistry/Columbus-7.0.2_OpenMolcas-18.09-col/OpenMolcas/build
PMOLCAS=
Checking for illegal keywords and keyword combinations ... done 

 Nonadiabatic coupling term calculation type: DCI+DCSF
  States involved in calcualtion:
   DRT1,state1;  DRT1,state2
   DRT1,state1;  DRT1,state3
   DRT1,state1;  DRT1,state4
   DRT1,state2;  DRT1,state3
   DRT1,state2;  DRT1,state4
   DRT1,state3;  DRT1,state4
   DRT2,state1;  DRT2,state2
   DRT2,state1;  DRT2,state3
   DRT2,state1;  DRT2,state4
   DRT2,state2;  DRT2,state3
   DRT2,state2;  DRT2,state4
   DRT2,state3;  DRT2,state4

Additional gradients computed:
   DRT1,state1
   DRT1,state2
   DRT1,state3
   DRT1,state4
   DRT2,state1
   DRT2,state2
   DRT2,state3
   DRT2,state4

Checking for complete set of input files ... 
mcscf calculation without preceeding scf calculation 
will use 
 /scratch/users/yshen57@jhu.edu/Molcas/slow/1.4/mrci/mocoef as starting MOs 
Performing coupled non-rel. SO-CI calculation, nrroots: 4 0 4
starting cidrt.x   -m 200000 < cidrtin > temp at Sun May 22 09:13:38 EDT 2022

 -------------------- cidrt.x ------------------------
 spatial symmetry:  
 total number of configurations          0
 number of reference configurations     0
 --------------------------------------------------- 
 Preparing SO cidrtin files for 1 symmetries
cat ../cidrtin | sed -e 's/^.*input the molecular spatial symmetry/1 \/ molsym/' > cidrtin.so_A 
calling cidrt.x -m 200000 < cidrtin.so_A > cidrtls.soci_A ...
Checking the DRTs for consistency ...
calling reindex.x -i 1 -m 200000  ...
done

 ++++++++++++++++++ input file generation +++++++++++++ 
 runc start: Sun May 22 09:13:58 EDT 2022
 
  runc start: Sun May 22 09:13:58 EDT 2022
 
 starting unik.gets.x > unikls at Sun May 22 09:13:59 EDT 2022

 -------------------- unik.gets.x ------------------------
 --------------------------------------------------- 
 ++++++++++++++++++++ ao integral calculation ++++++++++++++++
starting pymolcas molcas.input.seward > molcas.output.seward  at Sun May 22 09:13:59 EDT 2022

Generating link ln -s ./molcas.OrdInt ORDINT 
 -------------------- seward ------------------------
      Basis set label: N.ANILINE.........
      Basis set label: C.ANILINE.........
      Basis set label: H.ANILINE.........
  Nuclear Coordinates in                   atomic units                                   Angstrom 
     Center  Label                x              y              z                     x              y              z
        1      N1              -4.462877       0.230281      -0.014525             -2.361653       0.121859      -0.007686
        2      C2              -1.759374      -0.018169      -0.019963             -0.931020      -0.009615      -0.010564
        3      C3              -0.416765       0.014777      -2.285730             -0.220542       0.007819      -1.209556
        4      C4              -0.436248      -0.037596       2.253935             -0.230853      -0.019895       1.192731
        5      C5               2.192104       0.009695      -2.257843              1.160012       0.005130      -1.194799
        6      C6               2.180135      -0.013311       2.254689              1.153678      -0.007044       1.193130
        7      C7               3.505784       0.002162       0.006554              1.855181       0.001144       0.003468
        8      H8              -5.348198      -1.449015      -1.857202             -2.830145      -0.766786      -0.982789
        9      H9              -5.157186      -0.689283       1.565601             -2.729066      -0.364753       0.828480
       10      H10             -1.420147       0.048735      -4.046326             -0.751510       0.025790      -2.141224
       11      H11             -1.447681      -0.070477       4.012327             -0.766080      -0.037295       2.123232
       12      H12              3.207999       0.022127      -4.014873              1.697600       0.011709      -2.124579
       13      H13              3.177198      -0.025345       4.022367              1.681301      -0.013412       2.128545
       14      H14              5.534326       0.003729       0.012309              2.928639       0.001973       0.006514
 
            Nuclear Potential Energy            270.81083979 au
 --------------------------------------------------- 
  >>>>>>>>>>>>> info: preparing drt no 1 out of 1 <<<<<<
starting mcdrt.x -m 200000 < mcdrtin > mcdrtls at Sun May 22 09:19:31 EDT 2022

 -------------------- mcdrt.x ------------------------
  Spin multiplicity: singlet 
  Spatial symmetry (#): 1
  Number of Configurations:       1275 
  --------------------------------------------------- 
 starting mcuft.x at Sun May 22 09:19:31 EDT 2022

 -------------------- mcuft.x ------------------------
 --------------------------------------------------- 
 ++++++++++++++++++++ MCSCF calculation +++++++++++++++
info: taking mocoef file from /scratch/users/yshen57@jhu.edu/Molcas/slow/1.4/mrci/mocoef
adding flag 30 to mcscfin
Writing mcdenin files for mcscf.x for 1 DRTs
adding flag 26 to mcscfin
starting mcscf.x -m 200000 at Sun May 22 09:19:31 EDT 2022

 -------------------- mcscf.x ------------------------
 Individual total energies for all states: 
    DRT #1 state # 1 wt 0.250 total energy=     -285.856920606, rel. (eV)=   0.000000
    DRT #1 state # 2 wt 0.250 total energy=     -285.634256145, rel. (eV)=   6.059011
    DRT #1 state # 3 wt 0.250 total energy=     -285.611283536, rel. (eV)=   6.684128
    DRT #1 state # 4 wt 0.250 total energy=     -285.572375600, rel. (eV)=   7.742867
  --------------------------------------------------- 
 starting mcpc.x -m 200000 < mcpcin > mcpcls at Sun May 22 09:22:36 EDT 2022

 -------------------- mcpc.x ------------------------
 --------------------------------------------------- 
 starting mcpc.x -m 200000 < mcpcin > mcpcls at Sun May 22 09:22:37 EDT 2022

 -------------------- mcpc.x ------------------------
 --------------------------------------------------- 
 starting mcpc.x -m 200000 < mcpcin > mcpcls at Sun May 22 09:22:37 EDT 2022

 -------------------- mcpc.x ------------------------
 --------------------------------------------------- 
 starting mcpc.x -m 200000 < mcpcin > mcpcls at Sun May 22 09:22:37 EDT 2022

 -------------------- mcpc.x ------------------------
 --------------------------------------------------- 
 
========= state properties for state-averaged MCSCF =========
mcscf.drt1.st01.sp
starting exptvl.x -m 200000   at Sun May 22 09:22:37 EDT 2022

 -------------------- exptvl.x ------------------------
  === dipole moment === 
                     X               Y               Z   
   orign x       0.00000000      0.00000000      0.00000000
   orign y       0.00000000      0.00000000      0.00000000
   orign z       0.00000000      0.00000000      0.00000000
   nuclear      -1.10001305     -0.80221663     -0.69761530
   electronic    0.87416698      0.11932055      0.74931079
   total        -0.22584607     -0.68289608      0.05169549
   total Dipole moment =   1.83292697    Debye
 --------------------------------------------------- 
 mcscf.drt1.st02.sp
starting exptvl.x -m 200000   at Sun May 22 09:22:37 EDT 2022

 -------------------- exptvl.x ------------------------
  === dipole moment === 
                     X               Y               Z   
   orign x       0.00000000      0.00000000      0.00000000
   orign y       0.00000000      0.00000000      0.00000000
   orign z       0.00000000      0.00000000      0.00000000
   nuclear      -1.10001305     -0.80221663     -0.69761530
   electronic    3.86398912      0.75825306      1.31990939
   total         2.76397607     -0.04396357      0.62229409
   total Dipole moment =   7.20205665    Debye
 --------------------------------------------------- 
 mcscf.drt1.st03.sp
starting exptvl.x -m 200000   at Sun May 22 09:22:38 EDT 2022

 -------------------- exptvl.x ------------------------
  === dipole moment === 
                     X               Y               Z   
   orign x       0.00000000      0.00000000      0.00000000
   orign y       0.00000000      0.00000000      0.00000000
   orign z       0.00000000      0.00000000      0.00000000
   nuclear      -1.10001305     -0.80221663     -0.69761530
   electronic    1.19822157      0.25790587      0.75990580
   total         0.09820852     -0.54431076      0.06229050
   total Dipole moment =   1.41472760    Debye
 --------------------------------------------------- 
 mcscf.drt1.st04.sp
starting exptvl.x -m 200000   at Sun May 22 09:22:38 EDT 2022

 -------------------- exptvl.x ------------------------
  === dipole moment === 
                     X               Y               Z   
   orign x       0.00000000      0.00000000      0.00000000
   orign y       0.00000000      0.00000000      0.00000000
   orign z       0.00000000      0.00000000      0.00000000
   nuclear      -1.10001305     -0.80221663     -0.69761530
   electronic    5.22029061      0.62066686      1.20737719
   total         4.12027756     -0.18154977      0.50976189
   total Dipole moment =  10.56264300    Debye
 --------------------------------------------------- 
  using the MCSCF MOs ... 
starting cidrt.x  -m 200000 < cidrtin.1 > cidrtls at Sun May 22 09:22:38 EDT 2022

 -------------------- cidrt.x ------------------------
 total number of orbitals            :   246
 number of frozen core orbitals      :    18
 number of frozen virtual orbitals   :     0
 number of internal orbitals         :    14
 number of external orbitals         :   214
 spatial symmetry:   a  
 
 total number of configurations  158587185
 number of reference configurations  1275
 --------------------------------------------------- 
 starting cidrt.x  -m 200000 < cidrtin.2 > cidrtls at Sun May 22 09:22:40 EDT 2022

 -------------------- cidrt.x ------------------------
 total number of orbitals            :   246
 number of frozen core orbitals      :    18
 number of frozen virtual orbitals   :     0
 number of internal orbitals         :    14
 number of external orbitals         :   214
 spatial symmetry:   a  
 
 total number of configurations  282461366
 number of reference configurations  1666
 --------------------------------------------------- 
 starting tran.x -m 200000  at Sun May 22 09:22:45 EDT 2022

 -------------------- tran.x ------------------------
 --------------------------------------------------- 
  Starting ciudgav with DRT # 1 out of 2 

 *** starting pciudg section *** 
nproc: 48 machinefile:  
assuming machinefile syntax: one host name per line optionally repeated
 section2, MPI_STARTUP:
 /software/apps/mpi/openmpi/3.1/intel/18.0/bin/mpirun -np 48  /home-4/yshen57@jhu.edu/Software/Chemistry/Columbus-7.0.2_OpenMolcas-18.09-col/Columbus/pciudg.x -m 19000 
 -------------------- pciudg.x ------------------------
 type of calculation:          mr-sdci
 number of configurations:     158587185
 total mr-sdci energy             -286.0560844215 
 last mr-sdci energy change           0.0000000000 
 residual                             0.0000074902 
  type of calculation:          mr-sdci
 number of configurations:     158587185
 total mr-sdci energy             -285.8844627083 
 last mr-sdci energy change           0.0000000000 
 residual                             0.0000057857 
  type of calculation:          mr-sdci
 number of configurations:     158587185
 total mr-sdci energy             -285.8646753374 
 last mr-sdci energy change           0.0000000000 
 residual                             0.0000070310 
  type of calculation:          mr-sdci
 number of configurations:     158587185
 total mr-sdci energy             -285.8245316001 
 last mr-sdci energy change           0.0000000001 
 residual                             0.0000084138 
  --------------------------------------------------- 
 keyinfile returned docipci=0:
starting cipc.x -m 200000 < cipcin > cipcls at Mon May 23 03:50:06 EDT 2022

 -------------------- cipc.x ------------------------
 --------------------------------------------------- 
  Starting ciudgav with DRT # 2 out of 2 

 *** starting pciudg section *** 
nproc: 48 machinefile:  
assuming machinefile syntax: one host name per line optionally repeated
 section2, MPI_STARTUP:
 /software/apps/mpi/openmpi/3.1/intel/18.0/bin/mpirun -np 48  /home-4/yshen57@jhu.edu/Software/Chemistry/Columbus-7.0.2_OpenMolcas-18.09-col/Columbus/pciudg.x -m 19000 
 -------------------- pciudg.x ------------------------
 type of calculation:          mr-sdci
 number of configurations:     282461366
 total mr-sdci energy             -285.9133885628 
 last mr-sdci energy change           0.0000000000 
 residual                             0.0000054048 
  type of calculation:          mr-sdci
 number of configurations:     282461366
 total mr-sdci energy             -285.8863912416 
 last mr-sdci energy change           0.0000000000 
 residual                             0.0000062864 
  type of calculation:          mr-sdci
 number of configurations:     282461366
 total mr-sdci energy             -285.8743872431 
 last mr-sdci energy change           0.0000000000 
 residual                             0.0000067401 
  type of calculation:          mr-sdci
 number of configurations:     282461366
 total mr-sdci energy             -285.8661156042 
 last mr-sdci energy change           0.0000000000 
 residual                             0.0000083043 
  --------------------------------------------------- 
 keyinfile returned docipci=0:
starting cipc.x -m 200000 < cipcin > cipcls at Tue May 24 22:21:25 EDT 2022

 -------------------- cipc.x ------------------------
 --------------------------------------------------- 
 Reindex call
run_socinr: imult=1 irrep=1 
opening file =ciudgls.drt1.sp
opening file =ciudgls.drt1.sp
opening file =ciudgls.drt1.sp
opening file =ciudgls.drt1.sp
run_socinr: imult=3 irrep=1 
opening file =ciudgls.drt2.sp
opening file =ciudgls.drt2.sp
opening file =ciudgls.drt2.sp
opening file =ciudgls.drt2.sp
 copying /scratch/users/yshen57@jhu.edu/Molcas/slow/1.4/mrci/cidrtfl.so__A --> cidrtfl.so__A 
 copying /scratch/users/yshen57@jhu.edu/Molcas/slow/1.4/mrci/cidrtfl.so__A --> cidrtfl.so__A 
starting reindex.x -m 200000 > reindexls at Tue May 24 22:21:50 EDT 2022

 -------------------- reindex.x ------------------------
 --------------------------------------------------- 
 1      1        1           civfl_1_A             1      1    0+       1             1         civfl.so__A
1      1        2           civfl_1_A             1      1    0+       2    1005971284         civfl.so__A
1      1        3           civfl_1_A             1      1    0+       3    2011942567         civfl.so__A
1      1        4           civfl_1_A             1      1    0+       4    3017913850         civfl.so__A
3      1        1           civfl_3_A             1      3    0+       5    4023885133         civfl.so__A
3      1        1           civfl_3_A             1      3    1+       6    5029856416         civfl.so__A
3      1        1           civfl_3_A             1      3    1-       7    6035827699         civfl.so__A
3      1        2           civfl_3_A             1      3    0+       8    7041798982         civfl.so__A
3      1        2           civfl_3_A             1      3    1+       9    8047770265         civfl.so__A
3      1        2           civfl_3_A             1      3    1-      10    9053741548         civfl.so__A
3      1        3           civfl_3_A             1      3    0+      11   10059712831         civfl.so__A
3      1        3           civfl_3_A             1      3    1+      12   11065684114         civfl.so__A
3      1        3           civfl_3_A             1      3    1-      13   12071655397         civfl.so__A
3      1        4           civfl_3_A             1      3    0+      14   13077626680         civfl.so__A
3      1        4           civfl_3_A             1      3    1+      15   14083597963         civfl.so__A
3      1        4           civfl_3_A             1      3    1-      16   15089569246         civfl.so__A
 Executing ciudg.x  for gamma =A ...

 *** starting pciudg section *** 
nproc: 48 machinefile:  
assuming machinefile syntax: one host name per line optionally repeated
 section2, MPI_STARTUP:
 /software/apps/mpi/openmpi/3.1/intel/18.0/bin/mpirun -np 48  /home-4/yshen57@jhu.edu/Software/Chemistry/Columbus-7.0.2_OpenMolcas-18.09-col/Columbus/pciudg.x -m 19000 
 -------------------- pciudg.x ------------------------
 type of calculation:          mr-sdci
 number of configurations:     1005971283
 total mr-sdci energy             -286.0560844547 
 last mr-sdci energy change          35.1380000000 
 residual                            35.1380000000 
  type of calculation:          mr-sdci
 number of configurations:     1005971283
 total mr-sdci energy             -285.9133885797 
 last mr-sdci energy change          34.9950000000 
 residual                            34.9950000000 
  type of calculation:          mr-sdci
 number of configurations:     1005971283
 total mr-sdci energy             -285.9133885790 
 last mr-sdci energy change          34.9950000000 
 residual                            34.9950000000 
  type of calculation:          mr-sdci
 number of configurations:     1005971283
 total mr-sdci energy             -285.9133885724 
 last mr-sdci energy change          34.9950000000 
 residual                            34.9950000000 
  type of calculation:          mr-sdci
 number of configurations:     1005971283
 total mr-sdci energy             -285.8863912530 
 last mr-sdci energy change          34.9680000000 
 residual                            34.9680000000 
  type of calculation:          mr-sdci
 number of configurations:     1005971283
 total mr-sdci energy             -285.8863912344 
 last mr-sdci energy change          34.9680000000 
 residual                            34.9680000000 
  type of calculation:          mr-sdci
 number of configurations:     1005971283
 total mr-sdci energy             -285.8863912327 
 last mr-sdci energy change          34.9680000000 
 residual                            34.9680000000 
  type of calculation:          mr-sdci
 number of configurations:     1005971283
 total mr-sdci energy             -285.8844626655 
 last mr-sdci energy change          34.9670000000 
 residual                            34.9670000000 
  type of calculation:          mr-sdci
 number of configurations:     1005971283
 total mr-sdci energy             -285.8743872465 
 last mr-sdci energy change          34.9560000000 
 residual                            34.9560000000 
  type of calculation:          mr-sdci
 number of configurations:     1005971283
 total mr-sdci energy             -285.8743872418 
 last mr-sdci energy change          34.9560000000 
 residual                            34.9560000000 
  type of calculation:          mr-sdci
 number of configurations:     1005971283
 total mr-sdci energy             -285.8743872402 
 last mr-sdci energy change          34.9560000000 
 residual                            34.9560000000 
  type of calculation:          mr-sdci
 number of configurations:     1005971283
 total mr-sdci energy             -285.8661156069 
 last mr-sdci energy change          34.9480000000 
 residual                            34.9480000000 
  type of calculation:          mr-sdci
 number of configurations:     1005971283
 total mr-sdci energy             -285.8661156002 
 last mr-sdci energy change          34.9480000000 
 residual                            34.9480000000 
  type of calculation:          mr-sdci
 number of configurations:     1005971283
 total mr-sdci energy             -285.8661155973 
 last mr-sdci energy change          34.9480000000 
 residual                            34.9480000000 
  type of calculation:          mr-sdci
 number of configurations:     1005971283
 total mr-sdci energy             -285.8646753248 
 last mr-sdci energy change          34.9470000000 
 residual                            34.9470000000 
  type of calculation:          mr-sdci
 number of configurations:     1005971283
 total mr-sdci energy             -285.8245315934 
 last mr-sdci energy change          34.9070000000 
 residual                            34.9070000000 
  --------------------------------------------------- 
 ************* Results for Spin-Orbit CI gamma=A **************** 
Final spin-orbit CI state energies: 


-------------- HT matrix in AU ----------------  
-35.138173    
 0.000000    -34.966551    
 0.000000     0.000000    -34.946764    
 0.000000     0.000000     0.000000    -34.906620    
 0.000033    -0.000018     0.000001    -0.000001    -34.995477    
-0.000009     0.000004     0.000002     0.000003     0.000000    -34.995477    
-0.000040     0.000023    -0.000004     0.000000     0.000000     0.000000    -34.995477    
 0.000027     0.000006    -0.000001    -0.000001     0.000000    -0.000013     0.000003    -34.968479    
-0.000008    -0.000001     0.000000     0.000002     0.000013     0.000000     0.000012    -0.000000    -34.968479    
-0.000034    -0.000000    -0.000005    -0.000008    -0.000003    -0.000012     0.000000     0.000000    -0.000000    -34.968479    
-0.000003     0.000005    -0.000000    -0.000011     0.000000     0.000001     0.000003     0.000000    -0.000000     0.000002    -34.956475    
-0.000001    -0.000003     0.000000     0.000001    -0.000001     0.000000     0.000003     0.000000     0.000000     0.000005     0.000000    -34.956475    
-0.000002     0.000001    -0.000001     0.000011    -0.000003    -0.000003     0.000000    -0.000002    -0.000005     0.000000     0.000000    -0.000000    -34.956475    
-0.000014    -0.000007     0.000004    -0.000004     0.000000     0.000010    -0.000001     0.000000     0.000005    -0.000000     0.000000     0.000004    -0.000001    -34.948204    
 0.000003     0.000000    -0.000001     0.000001    -0.000010     0.000000    -0.000008    -0.000005     0.000000    -0.000002    -0.000004     0.000000    -0.000000     0.000000    -34.948204    
 0.000015     0.000005    -0.000000     0.000004     0.000001     0.000008     0.000000     0.000000     0.000002     0.000000     0.000001     0.000000     0.000000     0.000000    -0.000000    -34.948204    
-------------- HT matrix in eV ---------------- 
 -956.158   
    0.000    -951.488   
    0.000       0.000    -950.950   
    0.000       0.000       0.000    -949.857   
    0.001      -0.000       0.000      -0.000    -952.275   
   -0.000       0.000       0.000       0.000       0.000    -952.275   
   -0.001       0.001      -0.000       0.000       0.000       0.000    -952.275   
    0.001       0.000      -0.000      -0.000       0.000      -0.000       0.000    -951.541   
   -0.000      -0.000       0.000       0.000       0.000       0.000       0.000      -0.000    -951.541   
   -0.001      -0.000      -0.000      -0.000      -0.000      -0.000       0.000       0.000      -0.000    -951.541   
   -0.000       0.000      -0.000      -0.000       0.000       0.000       0.000       0.000      -0.000       0.000    -951.214   
   -0.000      -0.000       0.000       0.000      -0.000       0.000       0.000       0.000       0.000       0.000       0.000    -951.214   
   -0.000       0.000      -0.000       0.000      -0.000      -0.000       0.000      -0.000      -0.000       0.000       0.000      -0.000    -951.214   
   -0.000      -0.000       0.000      -0.000       0.000       0.000      -0.000       0.000       0.000      -0.000       0.000       0.000      -0.000    -950.989   
    0.000       0.000      -0.000       0.000      -0.000       0.000      -0.000      -0.000       0.000      -0.000      -0.000       0.000      -0.000       0.000    -950.989   
    0.000       0.000      -0.000       0.000       0.000       0.000       0.000       0.000       0.000       0.000       0.000       0.000       0.000       0.000      -0.000    -950.989   
-------------- HT matrix in cm-1 ------------------- 
Eref = -35.13817260
     0.00   
     0.00    37666.68   
     0.00        0.00    42009.51   
     0.00        0.00        0.00    50820.06   
     7.27       -3.85        0.21       -0.19    31318.17   
    -2.03        0.93        0.52        0.75        0.00    31318.17   
    -8.71        4.99       -0.95        0.11        0.00        0.00    31318.17   
     5.94        1.38       -0.15       -0.28        0.00       -2.82        0.63    37243.41   
    -1.81       -0.14        0.09        0.40        2.82        0.00        2.72        0.00    37243.41   
    -7.44       -0.09       -1.17       -1.81       -0.63       -2.72        0.00        0.00        0.00    37243.41   
    -0.67        1.02       -0.06       -2.33        0.00        0.13        0.55        0.00       -0.09        0.49    39877.99   
    -0.30       -0.57        0.02        0.20       -0.13        0.00        0.59        0.09        0.00        1.10        0.00    39877.99   
    -0.33        0.31       -0.22        2.31       -0.55       -0.59        0.00       -0.49       -1.10        0.00        0.00        0.00    39877.99   
    -3.17       -1.50        0.81       -0.94        0.00        2.21       -0.27        0.00        1.00       -0.07        0.00        0.81       -0.15    41693.41   
     0.75        0.02       -0.27        0.24       -2.21        0.00       -1.85       -1.00        0.00       -0.45       -0.81        0.00       -0.03        0.00    41693.41   
     3.27        1.16       -0.09        0.88        0.27        1.85        0.00        0.07        0.45        0.00        0.15        0.03        0.00        0.00        0.00    41693.41   


Spin-Orbit CI: perturbational estimate of Spin-Orbit CI energies and wavefunctions 
                SO   1         SO   2         SO   3         SO   4         SO   5         SO   6         SO   7         SO   8

   energy  -286.05608445  -285.91338858  -285.91338858  -285.91338857  -285.88639125  -285.88639123  -285.88639123  -285.88446267
 
   NR   1    -0.99999989     0.00012110    -0.00002131     0.00034689     0.00017098     0.00015562    -0.00011958    -0.00000022
   NR   2     0.00000005     0.00037471    -0.00004580     0.00093007    -0.00327763    -0.00000572     0.00016062    -0.99999385
   NR   3    -0.00000001    -0.00008486    -0.00003474    -0.00004761     0.00002147    -0.00022915     0.00009401    -0.00000015
   NR   4    -0.00000001    -0.00001278    -0.00003213     0.00002061     0.00001654    -0.00013259     0.00003365    -0.00000001
   NR   5     0.00023204    -0.39812088     0.38702507     0.83169144    -0.00002142     0.00030615     0.00037784     0.00060676
   NR   6    -0.00006499     0.34801518     0.90258564    -0.25342466    -0.00045387     0.00041788    -0.00023672    -0.00014522
   NR   7    -0.00027818    -0.84875471     0.18854767    -0.49402860     0.00007623     0.00020116     0.00041884    -0.00078632
   NR   8     0.00015961     0.00025597     0.00040866    -0.00006804     0.99720418    -0.01358946     0.07340435    -0.00325664
   NR   9    -0.00004851     0.00057866    -0.00027032    -0.00016830    -0.05986727     0.44181031     0.89510824     0.00033741
   NR  10    -0.00019982     0.00011716     0.00045556    -0.00002678    -0.04459460    -0.89700521     0.43976400     0.00022191
   NR  11    -0.00001674     0.00004909    -0.00002554     0.00003533     0.00000749     0.00018183    -0.00004917     0.00045930
   NR  12    -0.00000749     0.00005265    -0.00000729     0.00004655    -0.00001808     0.00037592    -0.00018669    -0.00025844
   NR  13    -0.00000828    -0.00000140     0.00008705     0.00003571     0.00015981     0.00018265     0.00038815     0.00013933
   NR  14    -0.00007594    -0.00009594    -0.00018721     0.00004144     0.00001209    -0.00011304    -0.00019510    -0.00037239
   NR  15     0.00001802    -0.00023583     0.00011600     0.00008901     0.00022025    -0.00009423     0.00006174     0.00000298
   NR  16     0.00007837    -0.00005179    -0.00017067     0.00002345    -0.00000778    -0.00004511    -0.00009218     0.00028910

                SO   9         SO  10         SO  11         SO  12         SO  13         SO  14         SO  15         SO  16

   energy  -285.87438725  -285.87438724  -285.87438724  -285.86611561  -285.86611560  -285.86611560  -285.86467532  -285.82453159
 
   NR   1    -0.00000819     0.00000962    -0.00001577     0.00008735     0.00006370    -0.00002340     0.00000017     0.00000003
   NR   2     0.00030082     0.00020322     0.00040670     0.00038355     0.00021008    -0.00017629     0.00000109     0.00000001
   NR   3    -0.00003717     0.00000349     0.00009843     0.00270405    -0.00011374    -0.00015494    -0.99999628     0.00000000
   NR   4     0.00029693     0.00000651    -0.00004322    -0.00011802    -0.00007697     0.00002807    -0.00000029     0.99999993
   NR   5     0.00003849     0.00001784    -0.00005045    -0.00007548     0.00000125    -0.00020062    -0.00001947    -0.00000978
   NR   6     0.00005275     0.00000207    -0.00004673    -0.00017037     0.00021472     0.00004257    -0.00004945     0.00003872
   NR   7     0.00004798    -0.00007497     0.00003069    -0.00004262    -0.00002490    -0.00017311     0.00008891     0.00000539
   NR   8     0.00010745    -0.00002691    -0.00015243    -0.00008137    -0.00001084    -0.00021050     0.00003118    -0.00002079
   NR   9     0.00021854     0.00002383    -0.00035801    -0.00019282     0.00014289     0.00005999    -0.00001900     0.00002936
   NR  10     0.00012602    -0.00043476     0.00006696    -0.00002502    -0.00001448    -0.00009900     0.00024586    -0.00013301
   NR  11     0.80456154    -0.10193072     0.58505585    -0.00015283     0.00003046    -0.00042307     0.00002692    -0.00021293
   NR  12    -0.05401457    -0.99363656    -0.09883502    -0.00040503     0.00009936     0.00015089    -0.00001243     0.00001824
   NR  13    -0.59140744    -0.04791740     0.80494774     0.00007000    -0.00001769    -0.00004129     0.00010124     0.00021073
   NR  14    -0.00002442     0.00043657     0.00011044    -0.91800648     0.19353289     0.34612445    -0.00255796    -0.00010317
   NR  15     0.00034840    -0.00004603     0.00027053     0.37121252     0.11236686     0.92172333     0.00084824     0.00002648
   NR  16    -0.00006578     0.00002217    -0.00004673     0.13949059     0.97463766    -0.17499594     0.00029345     0.00009640
rescaling new expansion vector ... old norm=   4540.1293548335

 model space basis from reindexls .. 
 --SO-CI-------         -----NR-CI-------             ---model space---- 
 Gamma  root             S   irrep   root                S   ms* 
A          1             1   A         1                 1   0+
A          2             1   A         2                 1   0+
A          3             1   A         3                 1   0+
A          4             1   A         4                 1   0+
A          5             3   A         1                 3   0+
A          6             3   A         1                 3   1+
A          7             3   A         1                 3   1-
A          8             3   A         2                 3   0+
A          9             3   A         2                 3   1+
A         10             3   A         2                 3   1-
A         11             3   A         3                 3   0+
A         12             3   A         3                 3   1+
A         13             3   A         3                 3   1-
A         14             3   A         4                 3   0+
A         15             3   A         4                 3   1+
A         16             3   A         4                 3   1-

************************** SUMMARY *********************************

--------------  SO matrix for irrep A in eV ---------------- 
|1,0+;1,A,1>  -956.158   
|1,0+;1,A,2>     0.000    -951.488   
|1,0+;1,A,3>     0.000       0.000    -950.950   
|1,0+;1,A,4>     0.000       0.000       0.000    -949.857   
|3,0+;3,A,1>     0.001      -0.000       0.000      -0.000    -952.275   
|3,1+;3,A,1>    -0.000       0.000       0.000       0.000       0.000    -952.275   
|3,1-;3,A,1>    -0.001       0.001      -0.000       0.000       0.000       0.000    -952.275   
|3,0+;3,A,2>     0.001       0.000      -0.000      -0.000       0.000      -0.000       0.000    -951.541   
|3,1+;3,A,2>    -0.000      -0.000       0.000       0.000       0.000       0.000       0.000      -0.000    -951.541   
|3,1-;3,A,2>    -0.001      -0.000      -0.000      -0.000      -0.000      -0.000       0.000       0.000      -0.000    -951.541   
|3,0+;3,A,3>    -0.000       0.000      -0.000      -0.000       0.000       0.000       0.000       0.000      -0.000       0.000    -951.214   
|3,1+;3,A,3>    -0.000      -0.000       0.000       0.000      -0.000       0.000       0.000       0.000       0.000       0.000       0.000    -951.214   
|3,1-;3,A,3>    -0.000       0.000      -0.000       0.000      -0.000      -0.000       0.000      -0.000      -0.000       0.000       0.000      -0.000    -951.214   
|3,0+;3,A,4>    -0.000      -0.000       0.000      -0.000       0.000       0.000      -0.000       0.000       0.000      -0.000       0.000       0.000      -0.000    -950.989   
|3,1+;3,A,4>     0.000       0.000      -0.000       0.000      -0.000       0.000      -0.000      -0.000       0.000      -0.000      -0.000       0.000      -0.000       0.000    -950.989   
|3,1-;3,A,4>     0.000       0.000      -0.000       0.000       0.000       0.000       0.000       0.000       0.000       0.000       0.000       0.000       0.000       0.000      -0.000    -950.989   

--------------  SO matrix for irrep A in cm-1 ------------------- 
Eref = -35.13817260
|1,0+;1,A,1>      0.00   
|1,0+;1,A,2>      0.00    37666.68   
|1,0+;1,A,3>      0.00        0.00    42009.51   
|1,0+;1,A,4>      0.00        0.00        0.00    50820.06   
|3,0+;3,A,1>      7.27       -3.85        0.21       -0.19    31318.17   
|3,1+;3,A,1>     -2.03        0.93        0.52        0.75        0.00    31318.17   
|3,1-;3,A,1>     -8.71        4.99       -0.95        0.11        0.00        0.00    31318.17   
|3,0+;3,A,2>      5.94        1.38       -0.15       -0.28        0.00       -2.82        0.63    37243.41   
|3,1+;3,A,2>     -1.81       -0.14        0.09        0.40        2.82        0.00        2.72        0.00    37243.41   
|3,1-;3,A,2>     -7.44       -0.09       -1.17       -1.81       -0.63       -2.72        0.00        0.00        0.00    37243.41   
|3,0+;3,A,3>     -0.67        1.02       -0.06       -2.33        0.00        0.13        0.55        0.00       -0.09        0.49    39877.99   
|3,1+;3,A,3>     -0.30       -0.57        0.02        0.20       -0.13        0.00        0.59        0.09        0.00        1.10        0.00    39877.99   
|3,1-;3,A,3>     -0.33        0.31       -0.22        2.31       -0.55       -0.59        0.00       -0.49       -1.10        0.00        0.00        0.00    39877.99   
|3,0+;3,A,4>     -3.17       -1.50        0.81       -0.94        0.00        2.21       -0.27        0.00        1.00       -0.07        0.00        0.81       -0.15    41693.41   
|3,1+;3,A,4>      0.75        0.02       -0.27        0.24       -2.21        0.00       -1.85       -1.00        0.00       -0.45       -0.81        0.00       -0.03        0.00    41693.41   
|3,1-;3,A,4>      3.27        1.16       -0.09        0.88        0.27        1.85        0.00        0.07        0.45        0.00        0.15        0.03        0.00        0.00        0.00    41693.41   


 ** perturbational estimate of Spin-Orbit CI energies and wavefunctions in model space basis** 

                      A  1         A  2         A  3         A  4         A  5         A  6         A  7         A  8

            energy  -286.05608445  -285.91338858  -285.91338858  -285.91338857  -285.88639125  -285.88639123  -285.88639123  -285.88446267
          
   |1,0+;1,A,1>    -0.99999989     0.00012110    -0.00002131     0.00034689     0.00017098     0.00015562    -0.00011958    -0.00000022
   |1,0+;1,A,2>     0.00000005     0.00037471    -0.00004580     0.00093007    -0.00327763    -0.00000572     0.00016062    -0.99999385
   |1,0+;1,A,3>    -0.00000001    -0.00008486    -0.00003474    -0.00004761     0.00002147    -0.00022915     0.00009401    -0.00000015
   |1,0+;1,A,4>    -0.00000001    -0.00001278    -0.00003213     0.00002061     0.00001654    -0.00013259     0.00003365    -0.00000001
   |3,0+;3,A,1>     0.00023204    -0.39812088     0.38702507     0.83169144    -0.00002142     0.00030615     0.00037784     0.00060676
   |3,1+;3,A,1>    -0.00006499     0.34801518     0.90258564    -0.25342466    -0.00045387     0.00041788    -0.00023672    -0.00014522
   |3,1-;3,A,1>    -0.00027818    -0.84875471     0.18854767    -0.49402860     0.00007623     0.00020116     0.00041884    -0.00078632
   |3,0+;3,A,2>     0.00015961     0.00025597     0.00040866    -0.00006804     0.99720418    -0.01358946     0.07340435    -0.00325664
   |3,1+;3,A,2>    -0.00004851     0.00057866    -0.00027032    -0.00016830    -0.05986727     0.44181031     0.89510824     0.00033741
   |3,1-;3,A,2>    -0.00019982     0.00011716     0.00045556    -0.00002678    -0.04459460    -0.89700521     0.43976400     0.00022191
   |3,0+;3,A,3>    -0.00001674     0.00004909    -0.00002554     0.00003533     0.00000749     0.00018183    -0.00004917     0.00045930
   |3,1+;3,A,3>    -0.00000749     0.00005265    -0.00000729     0.00004655    -0.00001808     0.00037592    -0.00018669    -0.00025844
   |3,1-;3,A,3>    -0.00000828    -0.00000140     0.00008705     0.00003571     0.00015981     0.00018265     0.00038815     0.00013933
   |3,0+;3,A,4>    -0.00007594    -0.00009594    -0.00018721     0.00004144     0.00001209    -0.00011304    -0.00019510    -0.00037239
   |3,1+;3,A,4>     0.00001802    -0.00023583     0.00011600     0.00008901     0.00022025    -0.00009423     0.00006174     0.00000298
   |3,1-;3,A,4>     0.00007837    -0.00005179    -0.00017067     0.00002345    -0.00000778    -0.00004511    -0.00009218     0.00028910

                      A  9         A 10         A 11         A 12         A 13         A 14         A 15         A 16

            energy  -285.87438725  -285.87438724  -285.87438724  -285.86611561  -285.86611560  -285.86611560  -285.86467532  -285.82453159
          
   |1,0+;1,A,1>    -0.00000819     0.00000962    -0.00001577     0.00008735     0.00006370    -0.00002340     0.00000017     0.00000003
   |1,0+;1,A,2>     0.00030082     0.00020322     0.00040670     0.00038355     0.00021008    -0.00017629     0.00000109     0.00000001
   |1,0+;1,A,3>    -0.00003717     0.00000349     0.00009843     0.00270405    -0.00011374    -0.00015494    -0.99999628     0.00000000
   |1,0+;1,A,4>     0.00029693     0.00000651    -0.00004322    -0.00011802    -0.00007697     0.00002807    -0.00000029     0.99999993
   |3,0+;3,A,1>     0.00003849     0.00001784    -0.00005045    -0.00007548     0.00000125    -0.00020062    -0.00001947    -0.00000978
   |3,1+;3,A,1>     0.00005275     0.00000207    -0.00004673    -0.00017037     0.00021472     0.00004257    -0.00004945     0.00003872
   |3,1-;3,A,1>     0.00004798    -0.00007497     0.00003069    -0.00004262    -0.00002490    -0.00017311     0.00008891     0.00000539
   |3,0+;3,A,2>     0.00010745    -0.00002691    -0.00015243    -0.00008137    -0.00001084    -0.00021050     0.00003118    -0.00002079
   |3,1+;3,A,2>     0.00021854     0.00002383    -0.00035801    -0.00019282     0.00014289     0.00005999    -0.00001900     0.00002936
   |3,1-;3,A,2>     0.00012602    -0.00043476     0.00006696    -0.00002502    -0.00001448    -0.00009900     0.00024586    -0.00013301
   |3,0+;3,A,3>     0.80456154    -0.10193072     0.58505585    -0.00015283     0.00003046    -0.00042307     0.00002692    -0.00021293
   |3,1+;3,A,3>    -0.05401457    -0.99363656    -0.09883502    -0.00040503     0.00009936     0.00015089    -0.00001243     0.00001824
   |3,1-;3,A,3>    -0.59140744    -0.04791740     0.80494774     0.00007000    -0.00001769    -0.00004129     0.00010124     0.00021073
   |3,0+;3,A,4>    -0.00002442     0.00043657     0.00011044    -0.91800648     0.19353289     0.34612445    -0.00255796    -0.00010317
   |3,1+;3,A,4>     0.00034840    -0.00004603     0.00027053     0.37121252     0.11236686     0.92172333     0.00084824     0.00002648
   |3,1-;3,A,4>    -0.00006578     0.00002217    -0.00004673     0.13949059     0.97463766    -0.17499594     0.00029345     0.00009640
rescaling new expansion vector ... old norm=   4540.1293548335

Sorted Energies:
1  -286.05608445 
2  -285.91338858 
3  -285.91338858 
4  -285.91338857 
5  -285.88639125 
6  -285.88639123 
7  -285.88639123 
8  -285.88446267 
9  -285.87438725 
10  -285.87438724 
11  -285.87438724 
12  -285.86611561 
13  -285.86611560 
14  -285.86611560 
15  -285.86467532 
16  -285.82453159 
Not computing transition moment with identical bra and ket.
 Calculating transition moment for (1,1) => (1,2)
 starting transci.x -m 200000 at Wed May 25 00:20:26 EDT 2022

 -------------------- transci.x ------------------------

                          State No. 1            State No. 2

   Space symmetry:           a                      a   
   No. of CSFs:          ********               ********
   State energies:      -286.05608442          -285.88446271  a.u.

   Transition energy:     0.17162171  a.u.
   Transition energy:     4.67        eV

       Transition moment components:

                 x            y            z

electron         -0.606988    -0.225008    -0.098162  e*bohr
frozen core       0.000000     0.000000     0.000000  e*bohr
total (elec)     -0.606988    -0.225008    -0.098162  e*bohr


   Tr.dipole length:     0.654751    e*bohr
   Oscillator strength :  0.049049
   Einstein A coef.:     0.4642E+08  1/sec
   Einstein B coef.:     0.1740E+09  sec/g

                 x            y            z

<L> electron    -0.206688    -0.393797     0.610964  e*bohr


   <L> value length:     0.755694    e*bohr
 --------------------------------------------------- 
  Calculating transition moment for (1,1) => (1,3)
 starting transci.x -m 200000 at Wed May 25 00:22:47 EDT 2022

 -------------------- transci.x ------------------------

                          State No. 1            State No. 2

   Space symmetry:           a                      a   
   No. of CSFs:          ********               ********
   State energies:      -286.05608442          -285.86467534  a.u.

   Transition energy:     0.19140908  a.u.
   Transition energy:     5.21        eV

       Transition moment components:

                 x            y            z

electron          0.066683     0.029579     0.157917  e*bohr
frozen core       0.000000     0.000000     0.000000  e*bohr
total (elec)      0.066683     0.029579     0.157917  e*bohr


   Tr.dipole length:     0.173952    e*bohr
   Oscillator strength :  0.003861
   Einstein A coef.:     0.4545E+07  1/sec
   Einstein B coef.:     0.1228E+08  sec/g

                 x            y            z

<L> electron    -0.019054    -0.298328    -0.126901  e*bohr


   <L> value length:     0.324756    e*bohr
 --------------------------------------------------- 
  Calculating transition moment for (1,1) => (1,4)
 starting transci.x -m 200000 at Wed May 25 00:25:03 EDT 2022

 -------------------- transci.x ------------------------

                          State No. 1            State No. 2

   Space symmetry:           a                      a   
   No. of CSFs:          ********               ********
   State energies:      -286.05608442          -285.82453160  a.u.

   Transition energy:     0.23155282  a.u.
   Transition energy:     6.30        eV

       Transition moment components:

                 x            y            z

electron         -0.225523    -0.028340     0.260657  e*bohr
frozen core       0.000000     0.000000     0.000000  e*bohr
total (elec)     -0.225523    -0.028340     0.260657  e*bohr


   Tr.dipole length:     0.345841    e*bohr
   Oscillator strength :  0.018463
   Einstein A coef.:     0.3180E+08  1/sec
   Einstein B coef.:     0.4854E+08  sec/g

                 x            y            z

<L> electron     0.261556    -0.413420     0.043740  e*bohr


   <L> value length:     0.491163    e*bohr
 --------------------------------------------------- 
 Not computing transition moment with identical bra and ket.
 Calculating transition moment for (1,2) => (1,3)
 starting transci.x -m 200000 at Wed May 25 00:27:23 EDT 2022

 -------------------- transci.x ------------------------

                          State No. 1            State No. 2

   Space symmetry:           a                      a   
   No. of CSFs:          ********               ********
   State energies:      -285.88446271          -285.86467534  a.u.

   Transition energy:     0.01978737  a.u.
   Transition energy:     0.54        eV

       Transition moment components:

                 x            y            z

electron          0.690770     0.068336    -0.100209  e*bohr
frozen core       0.000000     0.000000     0.000000  e*bohr
total (elec)      0.690770     0.068336    -0.100209  e*bohr


   Tr.dipole length:     0.701338    e*bohr
   Oscillator strength :  0.006489
   Einstein A coef.:     0.8162E+05  1/sec
   Einstein B coef.:     0.1996E+09  sec/g

                 x            y            z

<L> electron     0.096848     0.352877     0.017646  e*bohr


   <L> value length:     0.366351    e*bohr
 --------------------------------------------------- 
  Calculating transition moment for (1,2) => (1,4)
 starting transci.x -m 200000 at Wed May 25 00:29:40 EDT 2022

 -------------------- transci.x ------------------------

                          State No. 1            State No. 2

   Space symmetry:           a                      a   
   No. of CSFs:          ********               ********
   State energies:      -285.88446271          -285.82453160  a.u.

   Transition energy:     0.05993111  a.u.
   Transition energy:     1.63        eV

       Transition moment components:

                 x            y            z

electron          0.673761    -0.118908    -0.034862  e*bohr
frozen core       0.000000     0.000000     0.000000  e*bohr
total (elec)      0.673761    -0.118908    -0.034862  e*bohr


   Tr.dipole length:     0.685061    e*bohr
   Oscillator strength :  0.018751
   Einstein A coef.:     0.2164E+07  1/sec
   Einstein B coef.:     0.1905E+09  sec/g

                 x            y            z

<L> electron     0.084789    -0.515221    -0.113245  e*bohr


   <L> value length:     0.534290    e*bohr
 --------------------------------------------------- 
 Not computing transition moment with identical bra and ket.
 Calculating transition moment for (1,3) => (1,4)
 starting transci.x -m 200000 at Wed May 25 00:31:57 EDT 2022

 -------------------- transci.x ------------------------

                          State No. 1            State No. 2

   Space symmetry:           a                      a   
   No. of CSFs:          ********               ********
   State energies:      -285.86467534          -285.82453160  a.u.

   Transition energy:     0.04014374  a.u.
   Transition energy:     1.09        eV

       Transition moment components:

                 x            y            z

electron          0.696938     0.202967     0.135738  e*bohr
frozen core       0.000000     0.000000     0.000000  e*bohr
total (elec)      0.696938     0.202967     0.135738  e*bohr


   Tr.dipole length:     0.738473    e*bohr
   Oscillator strength :  0.014595
   Einstein A coef.:     0.7556E+06  1/sec
   Einstein B coef.:     0.2213E+09  sec/g

                 x            y            z

<L> electron     0.068479    -0.337105    -0.170983  e*bohr


   <L> value length:     0.384141    e*bohr
 --------------------------------------------------- 
 Not computing transition moment with identical bra and ket.
Not computing transition moment with identical bra and ket.
 Calculating transition moment for (2,1) => (2,2)
 starting transci.x -m 200000 at Wed May 25 00:34:13 EDT 2022

 -------------------- transci.x ------------------------

                          State No. 1            State No. 2

   Space symmetry:           a                      a   
   No. of CSFs:          ********               ********
   State energies:      -285.91338856          -285.88639124  a.u.

   Transition energy:     0.02699732  a.u.
   Transition energy:     0.73        eV

       Transition moment components:

                 x            y            z

electron         -0.939811    -0.280669    -0.294097  e*bohr
frozen core       0.000000     0.000000     0.000000  e*bohr
total (elec)     -0.939811    -0.280669    -0.294097  e*bohr


   Tr.dipole length:     1.023969    e*bohr
   Oscillator strength :  0.018871
   Einstein A coef.:     0.4419E+06  1/sec
   Einstein B coef.:     0.4255E+09  sec/g

                 x            y            z

<L> electron    -0.059128     0.153982     0.188414  e*bohr


   <L> value length:     0.250413    e*bohr
 --------------------------------------------------- 
  Calculating transition moment for (2,1) => (2,3)
 starting transci.x -m 200000 at Wed May 25 00:38:26 EDT 2022

 -------------------- transci.x ------------------------

                          State No. 1            State No. 2

   Space symmetry:           a                      a   
   No. of CSFs:          ********               ********
   State energies:      -285.91338856          -285.87438724  a.u.

   Transition energy:     0.03900132  a.u.
   Transition energy:     1.06        eV

       Transition moment components:

                 x            y            z

electron          0.207245     0.034125     0.043326  e*bohr
frozen core       0.000000     0.000000     0.000000  e*bohr
total (elec)      0.207245     0.034125     0.043326  e*bohr


   Tr.dipole length:     0.214458    e*bohr
   Oscillator strength :  0.001196
   Einstein A coef.:     0.5844E+05  1/sec
   Einstein B coef.:     0.1866E+08  sec/g

                 x            y            z

<L> electron     0.043003     0.390794     0.018005  e*bohr


   <L> value length:     0.393565    e*bohr
 --------------------------------------------------- 
  Calculating transition moment for (2,1) => (2,4)
 starting transci.x -m 200000 at Wed May 25 00:42:42 EDT 2022

 -------------------- transci.x ------------------------

                          State No. 1            State No. 2

   Space symmetry:           a                      a   
   No. of CSFs:          ********               ********
   State energies:      -285.91338856          -285.86611560  a.u.

   Transition energy:     0.04727296  a.u.
   Transition energy:     1.29        eV

       Transition moment components:

                 x            y            z

electron          0.580700     0.112131     0.090177  e*bohr
frozen core       0.000000     0.000000     0.000000  e*bohr
total (elec)      0.580700     0.112131     0.090177  e*bohr


   Tr.dipole length:     0.598262    e*bohr
   Oscillator strength :  0.011280
   Einstein A coef.:     0.8099E+06  1/sec
   Einstein B coef.:     0.1452E+09  sec/g

                 x            y            z

<L> electron     0.058052     0.112785    -0.138347  e*bohr


   <L> value length:     0.187698    e*bohr
 --------------------------------------------------- 
 Not computing transition moment with identical bra and ket.
 Calculating transition moment for (2,2) => (2,3)
 starting transci.x -m 200000 at Wed May 25 00:46:51 EDT 2022

 -------------------- transci.x ------------------------

                          State No. 1            State No. 2

   Space symmetry:           a                      a   
   No. of CSFs:          ********               ********
   State energies:      -285.88639124          -285.87438724  a.u.

   Transition energy:     0.01200400  a.u.
   Transition energy:     0.33        eV

       Transition moment components:

                 x            y            z

electron          0.294392     0.037250    -0.069257  e*bohr
frozen core       0.000000     0.000000     0.000000  e*bohr
total (elec)      0.294392     0.037250    -0.069257  e*bohr


   Tr.dipole length:     0.304714    e*bohr
   Oscillator strength :  0.000743
   Einstein A coef.:     0.3440E+04  1/sec
   Einstein B coef.:     0.3768E+08  sec/g

                 x            y            z

<L> electron     0.068207    -0.398553     0.038773  e*bohr


   <L> value length:     0.406202    e*bohr
 --------------------------------------------------- 
  Calculating transition moment for (2,2) => (2,4)
 starting transci.x -m 200000 at Wed May 25 00:51:02 EDT 2022

 -------------------- transci.x ------------------------

                          State No. 1            State No. 2

   Space symmetry:           a                      a   
   No. of CSFs:          ********               ********
   State energies:      -285.88639124          -285.86611560  a.u.

   Transition energy:     0.02027564  a.u.
   Transition energy:     0.55        eV

       Transition moment components:

                 x            y            z

electron          0.416099     0.043469     0.017796  e*bohr
frozen core       0.000000     0.000000     0.000000  e*bohr
total (elec)      0.416099     0.043469     0.017796  e*bohr


   Tr.dipole length:     0.418742    e*bohr
   Oscillator strength :  0.002370
   Einstein A coef.:     0.3130E+05  1/sec
   Einstein B coef.:     0.7116E+08  sec/g

                 x            y            z

<L> electron     0.034485    -0.146075    -0.035614  e*bohr


   <L> value length:     0.154258    e*bohr
 --------------------------------------------------- 
 Not computing transition moment with identical bra and ket.
 Calculating transition moment for (2,3) => (2,4)
 starting transci.x -m 200000 at Wed May 25 00:55:05 EDT 2022

 -------------------- transci.x ------------------------

                          State No. 1            State No. 2

   Space symmetry:           a                      a   
   No. of CSFs:          ********               ********
   State energies:      -285.87438724          -285.86611560  a.u.

   Transition energy:     0.00827164  a.u.
   Transition energy:     0.23        eV

       Transition moment components:

                 x            y            z

electron         -0.061725     0.010811     0.033384  e*bohr
frozen core       0.000000     0.000000     0.000000  e*bohr
total (elec)     -0.061725     0.010811     0.033384  e*bohr


   Tr.dipole length:     0.071002    e*bohr
   Oscillator strength :  0.000028
   Einstein A coef.:     0.6111E+02  1/sec
   Einstein B coef.:     0.2046E+07  sec/g

                 x            y            z

<L> electron     0.026881    -0.574598     0.012087  e*bohr


   <L> value length:     0.575353    e*bohr
 --------------------------------------------------- 
 Not computing transition moment with identical bra and ket.
 --- ci properties for state 1 of  DRT 1 ----
starting exptvl.x -m 200000  at Wed May 25 00:59:09 EDT 2022

 -------------------- exptvl.x ------------------------
  === dipole moment === 
                     X               Y               Z   
   orign x       0.00000000      0.00000000      0.00000000
   orign y       0.00000000      0.00000000      0.00000000
   orign z       0.00000000      0.00000000      0.00000000
   nuclear      -1.10001305     -0.80221663     -0.69761530
   electronic    1.03853927      0.27702559      0.80302604
   total        -0.06147378     -0.52519104      0.10541074
   total Dipole moment =   1.37046258    Debye
 !timer: exptvl required                 cpu_time=     0.190 walltime=     0.655
 --------------------------------------------------- 
  --- ci properties for state 2 of  DRT 1 ----
starting exptvl.x -m 200000  at Wed May 25 00:59:10 EDT 2022

 -------------------- exptvl.x ------------------------
  === dipole moment === 
                     X               Y               Z   
   orign x       0.00000000      0.00000000      0.00000000
   orign y       0.00000000      0.00000000      0.00000000
   orign z       0.00000000      0.00000000      0.00000000
   nuclear      -1.10001305     -0.80221663     -0.69761530
   electronic    3.38540965      0.78945234      1.33193603
   total         2.28539660     -0.01276429      0.63432073
   total Dipole moment =   6.02858892    Debye
 --------------------------------------------------- 
  --- ci properties for state 3 of  DRT 1 ----
starting exptvl.x -m 200000  at Wed May 25 00:59:10 EDT 2022

 -------------------- exptvl.x ------------------------
  === dipole moment === 
                     X               Y               Z   
   orign x       0.00000000      0.00000000      0.00000000
   orign y       0.00000000      0.00000000      0.00000000
   orign z       0.00000000      0.00000000      0.00000000
   nuclear      -1.10001305     -0.80221663     -0.69761530
   electronic    1.26762686      0.34646052      0.79268386
   total         0.16761381     -0.45575611      0.09506856
   total Dipole moment =   1.25770624    Debye
 --------------------------------------------------- 
  --- ci properties for state 4 of  DRT 1 ----
starting exptvl.x -m 200000  at Wed May 25 00:59:11 EDT 2022

 -------------------- exptvl.x ------------------------
  === dipole moment === 
                     X               Y               Z   
   orign x       0.00000000      0.00000000      0.00000000
   orign y       0.00000000      0.00000000      0.00000000
   orign z       0.00000000      0.00000000      0.00000000
   nuclear      -1.10001305     -0.80221663     -0.69761530
   electronic    4.56542897      0.48474859      1.09968459
   total         3.46541592     -0.31746804      0.40206929
   total Dipole moment =   8.90394418    Debye
 --------------------------------------------------- 
  --- ci properties for state 1 of  DRT 2 ----
starting exptvl.x -m 200000  at Wed May 25 00:59:11 EDT 2022

 -------------------- exptvl.x ------------------------
  === dipole moment === 
                     X               Y               Z   
   orign x       0.00000000      0.00000000      0.00000000
   orign y       0.00000000      0.00000000      0.00000000
   orign z       0.00000000      0.00000000      0.00000000
   nuclear      -1.10001305     -0.80221663     -0.69761530
   electronic    2.24782141      0.74389331      1.23054570
   total         1.14780836     -0.05832332      0.53293040
   total Dipole moment =   3.21998615    Debye
 --------------------------------------------------- 
  --- ci properties for state 2 of  DRT 2 ----
starting exptvl.x -m 200000  at Wed May 25 00:59:11 EDT 2022

 -------------------- exptvl.x ------------------------
  === dipole moment === 
                     X               Y               Z   
   orign x       0.00000000      0.00000000      0.00000000
   orign y       0.00000000      0.00000000      0.00000000
   orign z       0.00000000      0.00000000      0.00000000
   nuclear      -1.10001305     -0.80221663     -0.69761530
   electronic    1.74612127      0.45575955      1.04337847
   total         0.64610822     -0.34645708      0.34576317
   total Dipole moment =   2.06029181    Debye
 --------------------------------------------------- 
  --- ci properties for state 3 of  DRT 2 ----
starting exptvl.x -m 200000  at Wed May 25 00:59:11 EDT 2022

 -------------------- exptvl.x ------------------------
  === dipole moment === 
                     X               Y               Z   
   orign x       0.00000000      0.00000000      0.00000000
   orign y       0.00000000      0.00000000      0.00000000
   orign z       0.00000000      0.00000000      0.00000000
   nuclear      -1.10001305     -0.80221663     -0.69761530
   electronic    0.85454002      0.31600524      0.81574055
   total        -0.24547303     -0.48621139      0.11812525
   total Dipole moment =   1.41658242    Debye
 --------------------------------------------------- 
  --- ci properties for state 4 of  DRT 2 ----
starting exptvl.x -m 200000  at Wed May 25 00:59:12 EDT 2022

 -------------------- exptvl.x ------------------------
  === dipole moment === 
                     X               Y               Z   
   orign x       0.00000000      0.00000000      0.00000000
   orign y       0.00000000      0.00000000      0.00000000
   orign z       0.00000000      0.00000000      0.00000000
   nuclear      -1.10001305     -0.80221663     -0.69761530
   electronic    1.13527646      0.27333693      0.79953352
   total         0.03526341     -0.52887970      0.10191822
   total Dipole moment =   1.37194317    Debye
 --------------------------------------------------- 
 starting mo_convert.x at Wed May 25 00:59:13 EDT 2022

 -------------------- mo_convert.x ------------------------
 --------------------------------------------------- 
 starting pymolcas molcas.input.molden > molcas.output.molden at Wed May 25 00:59:13 EDT 2022

Generating link ln -s ./molcas.OrdInt ORDINT 
 -------------------- molden ------------------------
 --------------------------------------------------- 
 starting mo_convert.x at Wed May 25 00:59:42 EDT 2022

 -------------------- mo_convert.x ------------------------
 --------------------------------------------------- 
 starting pymolcas molcas.input.molden > molcas.output.molden at Wed May 25 00:59:42 EDT 2022

Generating link ln -s ./molcas.OrdInt ORDINT 
 -------------------- molden ------------------------
 --------------------------------------------------- 
 starting mo_convert.x at Wed May 25 01:00:06 EDT 2022

 -------------------- mo_convert.x ------------------------
 --------------------------------------------------- 
 starting pymolcas molcas.input.molden > molcas.output.molden at Wed May 25 01:00:06 EDT 2022

Generating link ln -s ./molcas.OrdInt ORDINT 
 -------------------- molden ------------------------
 --------------------------------------------------- 
 starting mo_convert.x at Wed May 25 01:00:27 EDT 2022

 -------------------- mo_convert.x ------------------------
 --------------------------------------------------- 
 starting pymolcas molcas.input.molden > molcas.output.molden at Wed May 25 01:00:28 EDT 2022

Generating link ln -s ./molcas.OrdInt ORDINT 
 -------------------- molden ------------------------
 --------------------------------------------------- 
 starting mo_convert.x at Wed May 25 01:00:49 EDT 2022

 -------------------- mo_convert.x ------------------------
 --------------------------------------------------- 
 starting pymolcas molcas.input.molden > molcas.output.molden at Wed May 25 01:00:49 EDT 2022

Generating link ln -s ./molcas.OrdInt ORDINT 
 -------------------- molden ------------------------
 --------------------------------------------------- 
 starting mo_convert.x at Wed May 25 01:01:10 EDT 2022

 -------------------- mo_convert.x ------------------------
 --------------------------------------------------- 
 starting pymolcas molcas.input.molden > molcas.output.molden at Wed May 25 01:01:10 EDT 2022

Generating link ln -s ./molcas.OrdInt ORDINT 
 -------------------- molden ------------------------
 --------------------------------------------------- 
 starting mo_convert.x at Wed May 25 01:01:32 EDT 2022

 -------------------- mo_convert.x ------------------------
 --------------------------------------------------- 
 starting pymolcas molcas.input.molden > molcas.output.molden at Wed May 25 01:01:32 EDT 2022

Generating link ln -s ./molcas.OrdInt ORDINT 
 -------------------- molden ------------------------
 --------------------------------------------------- 
 starting mo_convert.x at Wed May 25 01:01:53 EDT 2022

 -------------------- mo_convert.x ------------------------
 --------------------------------------------------- 
 starting pymolcas molcas.input.molden > molcas.output.molden at Wed May 25 01:01:53 EDT 2022

Generating link ln -s ./molcas.OrdInt ORDINT 
 -------------------- molden ------------------------
 --------------------------------------------------- 
 starting mo_convert.x at Wed May 25 01:02:15 EDT 2022

 -------------------- mo_convert.x ------------------------
 --------------------------------------------------- 
 starting pymolcas molcas.input.molden > molcas.output.molden at Wed May 25 01:02:15 EDT 2022

Generating link ln -s ./molcas.OrdInt ORDINT 
 -------------------- molden ------------------------
 --------------------------------------------------- 
 starting mo_convert.x at Wed May 25 01:02:36 EDT 2022

 -------------------- mo_convert.x ------------------------
 --------------------------------------------------- 
 starting pymolcas molcas.input.molden > molcas.output.molden at Wed May 25 01:02:36 EDT 2022

Generating link ln -s ./molcas.OrdInt ORDINT 
 -------------------- molden ------------------------
 --------------------------------------------------- 
 starting mo_convert.x at Wed May 25 01:02:58 EDT 2022

 -------------------- mo_convert.x ------------------------
 --------------------------------------------------- 
 starting pymolcas molcas.input.molden > molcas.output.molden at Wed May 25 01:02:58 EDT 2022

Generating link ln -s ./molcas.OrdInt ORDINT 
 -------------------- molden ------------------------
 --------------------------------------------------- 
 starting mo_convert.x at Wed May 25 01:03:19 EDT 2022

 -------------------- mo_convert.x ------------------------
 --------------------------------------------------- 
 starting pymolcas molcas.input.molden > molcas.output.molden at Wed May 25 01:03:19 EDT 2022

Generating link ln -s ./molcas.OrdInt ORDINT 
 -------------------- molden ------------------------
 --------------------------------------------------- 
 starting mo_convert.x at Wed May 25 01:03:41 EDT 2022

 -------------------- mo_convert.x ------------------------
 --------------------------------------------------- 
 starting pymolcas molcas.input.molden > molcas.output.molden at Wed May 25 01:03:41 EDT 2022

Generating link ln -s ./molcas.OrdInt ORDINT 
 -------------------- molden ------------------------
 --------------------------------------------------- 
 starting mo_convert.x at Wed May 25 01:04:02 EDT 2022

 -------------------- mo_convert.x ------------------------
 --------------------------------------------------- 
 starting pymolcas molcas.input.molden > molcas.output.molden at Wed May 25 01:04:03 EDT 2022

Generating link ln -s ./molcas.OrdInt ORDINT 
 -------------------- molden ------------------------
 --------------------------------------------------- 
 

 +++++++++++ STARTING GRADIENTS AND NAD. COUPLINGS CALCULATION +++++++++++ 

 Using new transition density code ... 
INFO: this is a frozen core gradient calculation
starting cidrt.x  -m 200000 < cidrtin.cigrd > cidrtls.cigrd at Wed May 25 01:04:24 EDT 2022

 -------------------- cidrt.x ------------------------
 total number of orbitals            :   246
 number of frozen core orbitals      :    18
 number of frozen virtual orbitals   :     0
 number of internal orbitals         :    14
 number of external orbitals         :   214
 spatial symmetry:   a  
 
 total number of configurations  282461366
 number of reference configurations  1666
 --------------------------------------------------- 
 starting tran.x -m 200000  at Wed May 25 01:04:31 EDT 2022

 -------------------- tran.x ------------------------
 --------------------------------------------------- 
 ---- Computing 8 gradient(s)  ----

 --- Computing gradient for DRT:1, State; 1

starting cigrd.x -m 200000 at Wed May 25 01:12:54 EDT 2022

 -------------------- cigrd.x ------------------------
 Total energy (ciudg) :  -286.056084421737 
  Effective energy     :  -286.056084440882 
  Delta E              :     0.000000019145 
  --------------------------------------------------- 
 starting tran.x -m 200000  at Wed May 25 01:23:26 EDT 2022

 -------------------- tran.x ------------------------
 --------------------------------------------------- 
 starting pymolcas molcas.input.alaska > molcas.output.alaska  at Wed May 25 01:30:42 EDT 2022

Generating link ln -s ./molcas.OrdInt ORDINT 
 -------------------- alaska ------------------------
 --------------------------------------------------- 
 cartesian gradient by alaska (MOLCAS)

 === Gradient of DRT 1, state 1 === 
   0.323040D-01   0.612968D-01   0.672390D-01
   0.205766D-05  -0.118659D-04   0.128910D-06
   0.223202D-05   0.167019D-05  -0.186040D-05
  -0.348136D-05  -0.133266D-05  -0.100526D-06
  -0.321955D-05  -0.492983D-06   0.204352D-05
   0.103496D-05   0.322903D-05  -0.333427D-05
  -0.572756D-05   0.491483D-07   0.159644D-05
  -0.323011D-01  -0.612792D-01  -0.672286D-01
   0.258573D-05  -0.785555D-05  -0.881193D-05
   0.588574D-06  -0.375857D-06   0.548462D-06
   0.804766D-06  -0.423321D-06  -0.654792D-06
  -0.407179D-06   0.158886D-06   0.130386D-05
  -0.406059D-06  -0.256026D-06  -0.127351D-05
   0.106950D-05  -0.457387D-07  -0.464604D-08
===================================
 --- Computing gradient for DRT:1, State; 2

starting cigrd.x -m 200000 at Wed May 25 01:32:07 EDT 2022

 -------------------- cigrd.x ------------------------
 Total energy (ciudg) :  -285.884462708507 
  Effective energy     :  -285.884462727891 
  Delta E              :     0.000000019384 
  --------------------------------------------------- 
 starting tran.x -m 200000  at Wed May 25 01:47:03 EDT 2022

 -------------------- tran.x ------------------------
 --------------------------------------------------- 
 starting pymolcas molcas.input.alaska > molcas.output.alaska  at Wed May 25 01:54:20 EDT 2022

Generating link ln -s ./molcas.OrdInt ORDINT 
 -------------------- alaska ------------------------
 --------------------------------------------------- 
 cartesian gradient by alaska (MOLCAS)

 === Gradient of DRT 1, state 2 === 
  -0.671184D-01   0.664605D-01   0.163346D-01
   0.848981D-01  -0.277956D-01  -0.364442D-02
  -0.187689D-01   0.453527D-02   0.312303D-01
  -0.318181D-01  -0.234284D-02  -0.285019D-01
   0.139141D-01   0.156660D-02   0.986326D-02
   0.189682D-01   0.543314D-02  -0.153303D-01
  -0.496714D-02  -0.495823D-03   0.322144D-02
  -0.416777D-02  -0.246364D-01  -0.489682D-02
   0.818802D-02  -0.168752D-01  -0.773924D-02
   0.154646D-04  -0.308591D-02  -0.320741D-02
  -0.695819D-03  -0.162443D-02   0.264650D-02
   0.654341D-03   0.168703D-04  -0.623237D-03
   0.575614D-03  -0.376785D-04   0.700468D-03
   0.322303D-03  -0.111846D-02  -0.532078D-04
===================================
 --- Computing gradient for DRT:1, State; 3

starting cigrd.x -m 200000 at Wed May 25 01:55:43 EDT 2022

 -------------------- cigrd.x ------------------------
 Total energy (ciudg) :  -285.864675337650 
  Effective energy     :  -285.864675356981 
  Delta E              :     0.000000019331 
  --------------------------------------------------- 
 starting tran.x -m 200000  at Wed May 25 02:06:35 EDT 2022

 -------------------- tran.x ------------------------
 --------------------------------------------------- 
 starting pymolcas molcas.input.alaska > molcas.output.alaska  at Wed May 25 02:13:46 EDT 2022

Generating link ln -s ./molcas.OrdInt ORDINT 
 -------------------- alaska ------------------------
 --------------------------------------------------- 
 cartesian gradient by alaska (MOLCAS)

 === Gradient of DRT 1, state 3 === 
   0.335634D-02   0.691762D-01   0.689411D-01
   0.465103D-01  -0.766917D-02   0.726678D-03
   0.260243D-01  -0.338231D-02   0.274303D-01
   0.162845D-01   0.407294D-02  -0.328428D-01
  -0.280334D-01   0.279235D-02   0.223144D-01
  -0.159422D-01  -0.237181D-03  -0.270378D-01
  -0.209034D-01  -0.636750D-03   0.595769D-02
  -0.287220D-01  -0.592642D-01  -0.616905D-01
   0.515523D-03  -0.312112D-02  -0.413306D-02
  -0.192319D-03  -0.122527D-04  -0.118365D-02
  -0.480907D-03  -0.141921D-02   0.142055D-02
   0.459280D-03  -0.965071D-04  -0.113355D-02
   0.416305D-03   0.245964D-03   0.108313D-02
   0.707709D-03  -0.448818D-03   0.147716D-03
===================================
 --- Computing gradient for DRT:1, State; 4

starting cigrd.x -m 200000 at Wed May 25 02:15:09 EDT 2022

 -------------------- cigrd.x ------------------------
 Total energy (ciudg) :  -285.824531600345 
  Effective energy     :  -285.824531617682 
  Delta E              :     0.000000017337 
  --------------------------------------------------- 
 starting tran.x -m 200000  at Wed May 25 02:25:07 EDT 2022

 -------------------- tran.x ------------------------
 --------------------------------------------------- 
 starting pymolcas molcas.input.alaska > molcas.output.alaska  at Wed May 25 02:32:54 EDT 2022

Generating link ln -s ./molcas.OrdInt ORDINT 
 -------------------- alaska ------------------------
 --------------------------------------------------- 
 cartesian gradient by alaska (MOLCAS)

 === Gradient of DRT 1, state 4 === 
  -0.195216D-01   0.574225D-01   0.477774D-01
   0.617642D-01  -0.343597D-02   0.530395D-02
   0.294183D-01   0.463458D-03   0.763725D-02
   0.142058D-01   0.135646D-03  -0.908570D-02
  -0.240479D-01  -0.478553D-04  -0.240562D-02
  -0.332462D-01  -0.312461D-02   0.510354D-02
  -0.103328D-01   0.185201D-02  -0.997898D-02
  -0.231225D-01  -0.455026D-01  -0.414885D-01
   0.335543D-02  -0.625861D-02  -0.347586D-02
  -0.194084D-03  -0.154523D-02  -0.319966D-02
  -0.643581D-03   0.265094D-03   0.330824D-02
   0.309915D-03  -0.510688D-04  -0.897311D-03
   0.521049D-03  -0.116246D-03   0.134615D-02
   0.153395D-02  -0.565258D-04   0.550864D-04
===================================
 --- Computing gradient for DRT:2, State; 1

starting cigrd.x -m 200000 at Wed May 25 02:34:18 EDT 2022

 -------------------- cigrd.x ------------------------
 Total energy (ciudg) :  -285.913388563040 
  Effective energy     :  -285.913388581826 
  Delta E              :     0.000000018786 
  --------------------------------------------------- 
 starting tran.x -m 200000  at Wed May 25 02:47:27 EDT 2022

 -------------------- tran.x ------------------------
 --------------------------------------------------- 
 starting pymolcas molcas.input.alaska > molcas.output.alaska  at Wed May 25 02:54:42 EDT 2022

Generating link ln -s ./molcas.OrdInt ORDINT 
 -------------------- alaska ------------------------
 --------------------------------------------------- 
 cartesian gradient by alaska (MOLCAS)

 === Gradient of DRT 2, state 1 === 
  -0.580278D-01   0.475118D-01   0.300918D-01
   0.868818D-01  -0.290701D-01  -0.224643D-01
  -0.246457D-01  -0.772973D-03   0.425023D-01
  -0.371370D-01   0.715696D-02  -0.302549D-01
   0.147889D-01   0.313704D-02   0.129411D-01
   0.331081D-01   0.471036D-02  -0.313570D-01
  -0.186126D-01  -0.147466D-02   0.166840D-01
   0.165822D-03  -0.137233D-01  -0.668636D-02
   0.250276D-02  -0.124883D-01  -0.110739D-01
  -0.144569D-03  -0.212331D-02  -0.187357D-02
  -0.612501D-03  -0.135920D-02   0.116488D-02
   0.595056D-03   0.214468D-03  -0.340220D-03
   0.619033D-03  -0.671711D-03   0.395253D-03
   0.518649D-03  -0.104702D-02   0.271007D-03
===================================
 --- Computing gradient for DRT:2, State; 2

starting cigrd.x -m 200000 at Wed May 25 02:56:05 EDT 2022

 -------------------- cigrd.x ------------------------
 Total energy (ciudg) :  -285.886391241879 
  Effective energy     :  -285.886391260282 
  Delta E              :     0.000000018403 
  --------------------------------------------------- 
 starting tran.x -m 200000  at Wed May 25 03:09:57 EDT 2022

 -------------------- tran.x ------------------------
 --------------------------------------------------- 
 starting pymolcas molcas.input.alaska > molcas.output.alaska  at Wed May 25 03:17:28 EDT 2022

Generating link ln -s ./molcas.OrdInt ORDINT 
 -------------------- alaska ------------------------
 --------------------------------------------------- 
 cartesian gradient by alaska (MOLCAS)

 === Gradient of DRT 2, state 2 === 
   0.158084D-01   0.578406D-01   0.397891D-01
   0.196998D-01   0.702560D-02   0.215053D-01
   0.293086D-01  -0.492741D-03   0.628525D-02
   0.203047D-01  -0.625334D-02  -0.224718D-01
  -0.204641D-01  -0.199872D-02   0.242020D-01
  -0.305062D-01  -0.203821D-02  -0.995315D-02
  -0.125897D-01   0.240236D-02  -0.152866D-01
  -0.238139D-01  -0.507696D-01  -0.451034D-01
   0.163019D-02  -0.623881D-02   0.164383D-02
  -0.120542D-03  -0.240231D-03  -0.153688D-02
  -0.454174D-03   0.488165D-03   0.135506D-02
   0.399465D-03  -0.258564D-05  -0.101884D-02
   0.228083D-03   0.148888D-03   0.951791D-03
   0.569276D-03   0.128642D-03  -0.361626D-03
===================================
 --- Computing gradient for DRT:2, State; 3

starting cigrd.x -m 200000 at Wed May 25 03:18:51 EDT 2022

 -------------------- cigrd.x ------------------------
 Total energy (ciudg) :  -285.874387243368 
  Effective energy     :  -285.874387263055 
  Delta E              :     0.000000019687 
  --------------------------------------------------- 
 starting tran.x -m 200000  at Wed May 25 03:29:25 EDT 2022

 -------------------- tran.x ------------------------
 --------------------------------------------------- 
 starting pymolcas molcas.input.alaska > molcas.output.alaska  at Wed May 25 03:36:51 EDT 2022

Generating link ln -s ./molcas.OrdInt ORDINT 
 -------------------- alaska ------------------------
 --------------------------------------------------- 
 cartesian gradient by alaska (MOLCAS)

 === Gradient of DRT 2, state 3 === 
   0.494868D-02   0.732231D-01   0.693626D-01
   0.389644D-01  -0.673470D-02  -0.401032D-02
   0.243715D-01  -0.593947D-03   0.289162D-01
   0.298326D-01   0.225247D-02  -0.284299D-01
  -0.311376D-01   0.183324D-02   0.226674D-01
  -0.290301D-01  -0.133345D-03  -0.225486D-01
  -0.624478D-02  -0.221007D-03   0.284849D-02
  -0.325895D-01  -0.641645D-01  -0.657331D-01
   0.113798D-03  -0.348270D-02  -0.313760D-02
   0.614258D-04  -0.690276D-03  -0.130098D-02
  -0.172298D-03  -0.588041D-03   0.166300D-02
   0.489172D-03  -0.119324D-03  -0.147241D-02
   0.244506D-03  -0.112462D-03   0.129190D-02
   0.148141D-03  -0.468552D-03  -0.116624D-03
===================================
 --- Computing gradient for DRT:2, State; 4

starting cigrd.x -m 200000 at Wed May 25 03:38:09 EDT 2022

 -------------------- cigrd.x ------------------------
 Total energy (ciudg) :  -285.866115604450 
  Effective energy     :  -285.866115623747 
[...]
  -3.006835E-01   5.243688E-01   5.446815E-02
   9.179264E-02  -6.328848E-02   2.508761E-01
   3.268051E-01  -3.658420E-02  -2.271073E-01
  -1.619912E-01  -3.033030E-02   4.017932E-01
  -3.876244E-02  -5.813393E-02  -4.587870E-01
  -6.039159E-01   1.475177E-02   9.217264E-02
  -7.442580E-01  -1.102275E+00  -1.535247E+00
  -8.465486E-02   2.654421E-01   1.834996E-01
  -1.536829E-02   2.079240E-02   4.169465E-02
  -6.286436E-03   2.021880E-02  -2.537179E-02
   2.044620E-03   1.046924E-03  -3.457326E-03
   8.185680E-03   5.662038E-03   1.136818E-03
   1.395378E-02   5.676993E-03   3.046338E-03
===================================

 Norm of the nonadiabatic coupling vector: 
 |h(drt2.state1,drt2.state2)|= 3.07869149833674 

 Cross-check of the non-adiabatic coupling term:
  DeltaE= -0.0269973211999854

  <L>*dE form CIGRD   :   -0.0007257150     0.0155126068    -0.0003263166
  <L>*dE form NADCOUPL:    0.0015962927    -0.0041587331    -0.0050885644
 -------------------------------------------------------------------------
  Difference          :   -0.0023220077     0.0196713398     0.0047622478

 NOTE: This test is meaningless at a point of conical intersection!


 -------- NAD. COUPLING for DRT:2 STATE:1 AND DRT:2 STATE:3 --------
opening file =ciudgls.drt2.sp
opening file =ciudgls.drt2.sp
extracted: energy1= -285.9133885628   energy2=-285.8743872431   deltae=-0.0390013196999917
starting cigrd.x -m 200000 at Wed May 25 06:22:30 EDT 2022

 -------------------- cigrd.x ------------------------
 Total energy (ciudg) :     0.000000000399 
  Effective energy     :     0.000000003789 
  Delta E              :    -0.000000003390 
  --------------------------------------------------- 
 starting tran.x -m 200000  at Wed May 25 06:33:15 EDT 2022

 -------------------- tran.x ------------------------
 --------------------------------------------------- 
  adding keyword NONUC to alaska input
starting pymolcas molcas.input.alaska > molcas.output.alaska  at Wed May 25 06:40:18 EDT 2022

Generating link ln -s ./molcas.OrdInt ORDINT 
 -------------------- alaska ------------------------
 --------------------------------------------------- 
 cartesian gradient by alaska (MOLCAS)

 Calculating the Dx(r,s) term of D[CSF] nonadiabatic coupling term.
dxcalc: INPUT LINE SEPARATOR 
 
starting tran.x -m 200000  at Wed May 25 06:41:31 EDT 2022

 -------------------- tran.x ------------------------
 --------------------------------------------------- 
 starting tdmrunfile.x > tdmrunfilels at Wed May 25 06:41:32 EDT 2022

 -------------------- tdmrunfile.x ------------------------
 --------------------------------------------------- 
 starting pymolcas molcas.input.alaska > molcas.output.alaska  at Wed May 25 06:41:32 EDT 2022

Generating link ln -s ./molcas.OrdInt ORDINT 
 -------------------- alaska ------------------------
 --------------------------------------------------- 
 
 === Non-adiabatic coupling for DRT 2 STATE 1 and DRT 2 STATE 3 === 
  -1.539116E-01   6.332471E-02  -3.370266E-02
   2.269525E-01  -1.618231E-01   1.524808E+00
  -4.413218E-01  -6.347842E-02  -5.784749E-01
  -5.022322E-01   3.709979E-03  -8.477132E-01
   1.192619E+00   2.195472E-02   9.083465E-01
  -3.504238E-01   5.659460E-02   7.469380E-01
  -1.564078E-01  -2.134835E-02  -1.700490E+00
   1.654260E-01   4.445672E-02   7.307901E-02
   2.896167E-02   3.801206E-02  -8.017557E-02
  -2.721492E-03   4.188063E-02   1.381279E-02
  -1.395794E-02  -4.376210E-02   3.252748E-03
   1.536965E-02   1.118758E-02   7.873931E-03
  -8.063463E-03   1.727928E-02  -4.248707E-03
   3.642457E-03  -6.500685E-03  -2.673650E-02
===================================

 Norm of the nonadiabatic coupling vector: 
 |h(drt2.state1,drt2.state3)|= 3.13581339566962 

 Cross-check of the non-adiabatic coupling term:
  DeltaE= -0.0390013196999917

  <L>*dE form CIGRD   :   -0.0010483945     0.0224100803    -0.0004714090
  <L>*dE form NADCOUPL:   -0.0016761838    -0.0152428166    -0.0007046912
 -------------------------------------------------------------------------
  Difference          :    0.0006277894     0.0376528969     0.0002332822

 NOTE: This test is meaningless at a point of conical intersection!


 -------- NAD. COUPLING for DRT:2 STATE:1 AND DRT:2 STATE:4 --------
opening file =ciudgls.drt2.sp
opening file =ciudgls.drt2.sp
extracted: energy1= -285.9133885628   energy2=-285.8661156042   deltae=-0.04727295859999
starting cigrd.x -m 200000 at Wed May 25 06:42:41 EDT 2022

 -------------------- cigrd.x ------------------------
 Total energy (ciudg) :    -0.000000000226 
  Effective energy     :    -0.000000000825 
  Delta E              :     0.000000000599 
  --------------------------------------------------- 
 starting tran.x -m 200000  at Wed May 25 06:54:06 EDT 2022

 -------------------- tran.x ------------------------
 --------------------------------------------------- 
  adding keyword NONUC to alaska input
starting pymolcas molcas.input.alaska > molcas.output.alaska  at Wed May 25 07:01:09 EDT 2022

Generating link ln -s ./molcas.OrdInt ORDINT 
 -------------------- alaska ------------------------
 --------------------------------------------------- 
 cartesian gradient by alaska (MOLCAS)

 Calculating the Dx(r,s) term of D[CSF] nonadiabatic coupling term.
dxcalc: INPUT LINE SEPARATOR 
 
starting tran.x -m 200000  at Wed May 25 07:02:23 EDT 2022

 -------------------- tran.x ------------------------
 --------------------------------------------------- 
 starting tdmrunfile.x > tdmrunfilels at Wed May 25 07:02:23 EDT 2022

 -------------------- tdmrunfile.x ------------------------
 --------------------------------------------------- 
 starting pymolcas molcas.input.alaska > molcas.output.alaska  at Wed May 25 07:02:23 EDT 2022

Generating link ln -s ./molcas.OrdInt ORDINT 
 -------------------- alaska ------------------------
 --------------------------------------------------- 
 
 === Non-adiabatic coupling for DRT 2 STATE 1 and DRT 2 STATE 4 === 
  -1.089900E-01  -6.857081E-02  -2.724733E-01
  -4.683360E-01  -1.109572E-01   2.085230E-01
   9.013397E-01   4.054495E-02  -5.239577E-01
   8.324884E-01  -1.327761E-02   2.846171E-01
  -8.339458E-01   7.998569E-04  -2.564662E-01
  -9.673419E-01  -5.154047E-03   5.608870E-01
   4.959793E-01  -5.370602E-03  -2.716358E-01
   1.555141E-01   1.983062E-01   3.063498E-01
   2.789733E-02  -3.264673E-02  -2.659673E-02
   1.267720E-02   1.095099E-02  -1.649905E-02
   6.763278E-03  -2.295142E-03   2.151708E-02
  -5.160135E-03  -2.073852E-03  -9.326124E-03
  -1.568593E-02   3.862600E-03   7.374864E-03
  -8.189833E-03   4.642145E-03  -5.160957E-03
===================================

 Norm of the nonadiabatic coupling vector: 
 |h(drt2.state1,drt2.state4)|= 2.17295030766862 

 Cross-check of the non-adiabatic coupling term:
  DeltaE= -0.04727295859999

  <L>*dE form CIGRD   :   -0.0012707444     0.0271629475    -0.0005713883
  <L>*dE form NADCOUPL:   -0.0027435691    -0.0053315072     0.0065440337
 -------------------------------------------------------------------------
  Difference          :    0.0014728247     0.0324944547    -0.0071154219

 NOTE: This test is meaningless at a point of conical intersection!


 -------- NAD. COUPLING for DRT:2 STATE:2 AND DRT:2 STATE:3 --------
opening file =ciudgls.drt2.sp
opening file =ciudgls.drt2.sp
extracted: energy1= -285.8863912416   energy2=-285.8743872431   deltae=-0.0120039985000062
starting cigrd.x -m 200000 at Wed May 25 07:03:37 EDT 2022

 -------------------- cigrd.x ------------------------
 Total energy (ciudg) :     0.000000000074 
  Effective energy     :     0.000000002344 
  Delta E              :    -0.000000002270 
  --------------------------------------------------- 
 starting tran.x -m 200000  at Wed May 25 07:14:24 EDT 2022

 -------------------- tran.x ------------------------
 --------------------------------------------------- 
  adding keyword NONUC to alaska input
starting pymolcas molcas.input.alaska > molcas.output.alaska  at Wed May 25 07:21:22 EDT 2022

Generating link ln -s ./molcas.OrdInt ORDINT 
 -------------------- alaska ------------------------
 --------------------------------------------------- 
 cartesian gradient by alaska (MOLCAS)

 Calculating the Dx(r,s) term of D[CSF] nonadiabatic coupling term.
dxcalc: INPUT LINE SEPARATOR 
 
starting tran.x -m 200000  at Wed May 25 07:22:32 EDT 2022

 -------------------- tran.x ------------------------
 --------------------------------------------------- 
 starting tdmrunfile.x > tdmrunfilels at Wed May 25 07:22:33 EDT 2022

 -------------------- tdmrunfile.x ------------------------
 --------------------------------------------------- 
 starting pymolcas molcas.input.alaska > molcas.output.alaska  at Wed May 25 07:22:33 EDT 2022

Generating link ln -s ./molcas.OrdInt ORDINT 
 -------------------- alaska ------------------------
 --------------------------------------------------- 
 
 === Non-adiabatic coupling for DRT 2 STATE 2 and DRT 2 STATE 3 === 
  -2.464288E-01  -6.996238E-02   4.505078E-01
  -3.211531E-01  -8.438450E-02  -7.342973E+00
  -4.195819E-01  -3.173989E-01   2.753987E+00
   2.966599E+00   2.394449E-01   3.977978E+00
  -2.746501E+00   7.810319E-02  -3.525721E+00
   1.280813E-01  -3.591735E-02  -2.243778E+00
   3.728540E-01  -5.995510E-02   5.603689E+00
   2.928904E-01   3.541330E-01   2.957609E-01
  -2.503278E-02  -1.304755E-01  -8.424613E-02
  -2.986794E-02   5.233635E-02  -2.584781E-02
   5.165849E-02  -9.334451E-02   1.851460E-02
  -4.328680E-02   1.194445E-02   1.007493E-02
   1.676326E-02   4.497573E-02   2.548306E-02
   2.651451E-03   6.659083E-03   9.156293E-02
===================================

 Norm of the nonadiabatic coupling vector: 
 |h(drt2.state2,drt2.state3)|= 11.9904495877971 

 Cross-check of the non-adiabatic coupling term:
  DeltaE= -0.0120039985000062

  <L>*dE form CIGRD   :   -0.0003226795     0.0068974735    -0.0001450923
  <L>*dE form NADCOUPL:   -0.0008166713     0.0047845998    -0.0004659096
 -------------------------------------------------------------------------
  Difference          :    0.0004939918     0.0021128737     0.0003208173

 NOTE: This test is meaningless at a point of conical intersection!


 -------- NAD. COUPLING for DRT:2 STATE:2 AND DRT:2 STATE:4 --------
opening file =ciudgls.drt2.sp
opening file =ciudgls.drt2.sp
extracted: energy1= -285.8863912416   energy2=-285.8661156042   deltae=-0.0202756374000046
starting cigrd.x -m 200000 at Wed May 25 07:23:42 EDT 2022

 -------------------- cigrd.x ------------------------
 Total energy (ciudg) :     0.000000000328 
  Effective energy     :     0.000000005069 
  Delta E              :    -0.000000004741 
  --------------------------------------------------- 
 starting tran.x -m 200000  at Wed May 25 07:34:42 EDT 2022

 -------------------- tran.x ------------------------
 --------------------------------------------------- 
  adding keyword NONUC to alaska input
starting pymolcas molcas.input.alaska > molcas.output.alaska  at Wed May 25 07:41:53 EDT 2022

Generating link ln -s ./molcas.OrdInt ORDINT 
 -------------------- alaska ------------------------
 --------------------------------------------------- 
 cartesian gradient by alaska (MOLCAS)

 Calculating the Dx(r,s) term of D[CSF] nonadiabatic coupling term.
dxcalc: INPUT LINE SEPARATOR 
 
starting tran.x -m 200000  at Wed May 25 07:43:04 EDT 2022

 -------------------- tran.x ------------------------
 --------------------------------------------------- 
 starting tdmrunfile.x > tdmrunfilels at Wed May 25 07:43:05 EDT 2022

 -------------------- tdmrunfile.x ------------------------
 --------------------------------------------------- 
 starting pymolcas molcas.input.alaska > molcas.output.alaska  at Wed May 25 07:43:05 EDT 2022

Generating link ln -s ./molcas.OrdInt ORDINT 
 -------------------- alaska ------------------------
 --------------------------------------------------- 
 
 === Non-adiabatic coupling for DRT 2 STATE 2 and DRT 2 STATE 4 === 
  -2.186615E-01  -4.519823E-02  -4.813185E-01
   8.768490E-01   5.156385E-01  -1.146171E+00
  -3.686712E+00  -1.955090E-01   1.408045E+00
  -3.089074E+00  -3.263693E-01  -4.751967E-01
   3.148925E+00  -1.089234E-01   5.636403E-01
   3.678535E+00  -6.791187E-02  -1.406023E+00
  -1.014488E+00   9.556914E-02   9.638361E-01
   2.438384E-01   2.087482E-01   5.345235E-01
   6.676510E-02  -1.919052E-01   2.144041E-02
  -4.157935E-02   4.048910E-02   2.513115E-02
  -3.883908E-02   7.346129E-03  -1.995543E-02
   3.505481E-02   7.079128E-03   3.262018E-02
   3.355490E-02   5.244236E-02  -2.942221E-02
   1.325820E-02   1.435259E-02   1.132400E-02
===================================

 Norm of the nonadiabatic coupling vector: 
 |h(drt2.state2,drt2.state4)|= 7.50247361454448 

 Cross-check of the non-adiabatic coupling term:
  DeltaE= -0.0202756374000046

  <L>*dE form CIGRD   :   -0.0005450294     0.0116503407    -0.0002450716
  <L>*dE form NADCOUPL:   -0.0006991101     0.0029628124     0.0007219103
 -------------------------------------------------------------------------
  Difference          :    0.0001540807     0.0086875283    -0.0009669820

 NOTE: This test is meaningless at a point of conical intersection!


 -------- NAD. COUPLING for DRT:2 STATE:3 AND DRT:2 STATE:4 --------
opening file =ciudgls.drt2.sp
opening file =ciudgls.drt2.sp
extracted: energy1= -285.8743872431   energy2=-285.8661156042   deltae=-0.00827163889999838
starting cigrd.x -m 200000 at Wed May 25 07:44:19 EDT 2022

 -------------------- cigrd.x ------------------------
 Total energy (ciudg) :     0.000000000145 
  Effective energy     :     0.000000001191 
  Delta E              :    -0.000000001046 
  --------------------------------------------------- 
 starting tran.x -m 200000  at Wed May 25 07:54:31 EDT 2022

 -------------------- tran.x ------------------------
 --------------------------------------------------- 
  adding keyword NONUC to alaska input
starting pymolcas molcas.input.alaska > molcas.output.alaska  at Wed May 25 08:01:28 EDT 2022

Generating link ln -s ./molcas.OrdInt ORDINT 
 -------------------- alaska ------------------------
 --------------------------------------------------- 
 cartesian gradient by alaska (MOLCAS)

 Calculating the Dx(r,s) term of D[CSF] nonadiabatic coupling term.
dxcalc: INPUT LINE SEPARATOR 
 
starting tran.x -m 200000  at Wed May 25 08:02:36 EDT 2022

 -------------------- tran.x ------------------------
 --------------------------------------------------- 
 starting tdmrunfile.x > tdmrunfilels at Wed May 25 08:02:37 EDT 2022

 -------------------- tdmrunfile.x ------------------------
 --------------------------------------------------- 
 starting pymolcas molcas.input.alaska > molcas.output.alaska  at Wed May 25 08:02:37 EDT 2022

Generating link ln -s ./molcas.OrdInt ORDINT 
 -------------------- alaska ------------------------
 --------------------------------------------------- 
 
 === Non-adiabatic coupling for DRT 2 STATE 3 and DRT 2 STATE 4 === 
   4.917667E-01  -5.877933E-01  -1.541527E-01
   1.209042E-01   3.043437E-01  -1.537202E+00
   1.733014E-01   3.361157E-01   2.267437E-01
   2.206640E-01  -2.000467E-01   5.680964E-01
  -9.870957E-01  -1.689648E-01  -1.157347E-01
   7.018011E-01   9.580540E-02   2.393376E-01
  -5.639367E-01  -5.349492E-03   6.330360E-01
  -1.317156E-01   2.263227E-01   2.006131E-02
  -6.337324E-02   2.867566E-02   1.822034E-01
   2.718504E-02  -1.281639E-01   2.307083E-02
  -2.211535E-02   1.400440E-01  -1.368748E-02
   2.925209E-02   1.365713E-02  -9.892202E-03
  -2.729269E-02  -5.921383E-02  -4.682658E-02
   2.955648E-02   8.715064E-04  -1.871027E-02
===================================

 Norm of the nonadiabatic coupling vector: 
 |h(drt2.state3,drt2.state4)|= 2.47690869047698 

 Cross-check of the non-adiabatic coupling term:
  DeltaE= -0.00827163889999838

  <L>*dE form CIGRD   :   -0.0002223499     0.0047528672    -0.0000999793
  <L>*dE form NADCOUPL:   -0.0002231595     0.0047538133    -0.0001002959
 -------------------------------------------------------------------------
  Difference          :    0.0000008096    -0.0000009461     0.0000003166

 NOTE: This test is meaningless at a point of conical intersection!



============== timings ===================

   unik.gets.x    
   mcdrt.x        
   mcuft.x        
 * mcscf.x          walltime    0:03:05
   mcpc.x         
   mcpc.x         
   mcpc.x         
   mcpc.x         
   exptvl.x       
   exptvl.x       
   exptvl.x       
   exptvl.x       
   cidrt.x        
 * cidrt.x          walltime    0:00:05
 * tran.x           walltime    0:07:35
 * pciudg.x -m 19000   walltime   18:19:46
 * cipc.x           walltime    0:00:12
 * pciudg.x -m 19000   walltime   42:31:03
 * cipc.x           walltime    0:00:24
 * reindex.x        walltime    0:05:15
 * pciudg.x -m 19000   walltime    1:53:20
 * transci.x        walltime    0:02:20
 * transci.x        walltime    0:02:16
 * transci.x        walltime    0:02:20
 * transci.x        walltime    0:02:17
 * transci.x        walltime    0:02:17
 * transci.x        walltime    0:02:16
 * transci.x        walltime    0:04:12
 * transci.x        walltime    0:04:16
 * transci.x        walltime    0:04:09
 * transci.x        walltime    0:04:11
 * transci.x        walltime    0:04:03
 * transci.x        walltime    0:04:04
   exptvl.x       
   exptvl.x       
   exptvl.x       
   exptvl.x       
   exptvl.x       
   exptvl.x       
   exptvl.x       
   exptvl.x       
   mo_convert.x   
   mo_convert.x   
   mo_convert.x   
   mo_convert.x   
   mo_convert.x   
   mo_convert.x   
   mo_convert.x   
   mo_convert.x   
   mo_convert.x   
   mo_convert.x   
   mo_convert.x   
   mo_convert.x   
   mo_convert.x   
   mo_convert.x   
 * cidrt.x          walltime    0:00:07
 * tran.x           walltime    0:08:23
 * cigrd.x          walltime    0:10:32
 * tran.x           walltime    0:07:15
 * cigrd.x          walltime    0:14:54
 * tran.x           walltime    0:07:16
 * cigrd.x          walltime    0:10:51
 * tran.x           walltime    0:07:10
 * cigrd.x          walltime    0:09:57
 * tran.x           walltime    0:07:46
 * cigrd.x          walltime    0:13:08
 * tran.x           walltime    0:07:14
 * cigrd.x          walltime    0:13:50
 * tran.x           walltime    0:07:30
 * cigrd.x          walltime    0:10:32
 * tran.x           walltime    0:07:25
 * cigrd.x          walltime    0:10:20
 * tran.x           walltime    0:07:17
 * cigrd.x          walltime    0:10:15
 * tran.x           walltime    0:07:12
   tran.x         
   tdmrunfile.x   
 * cigrd.x          walltime    0:12:39
 * tran.x           walltime    0:07:10
   tran.x         
   tdmrunfile.x   
 * cigrd.x          walltime    0:13:08
 * tran.x           walltime    0:07:13
   tran.x         
   tdmrunfile.x   
 * cigrd.x          walltime    0:11:04
 * tran.x           walltime    0:07:01
   tran.x         
   tdmrunfile.x   
 * cigrd.x          walltime    0:10:33
 * tran.x           walltime    0:06:53
   tran.x         
   tdmrunfile.x   
 * cigrd.x          walltime    0:10:54
 * tran.x           walltime    0:07:01
   tran.x         
   tdmrunfile.x   
 * cigrd.x          walltime    0:10:10
 * tran.x           walltime    0:06:58
   tran.x         
   tdmrunfile.x   
 * cigrd.x          walltime    0:10:44
 * tran.x           walltime    0:07:02
   tran.x         
   tdmrunfile.x   
 * cigrd.x          walltime    0:11:24
 * tran.x           walltime    0:07:02
   tran.x         
   tdmrunfile.x   
 * cigrd.x          walltime    0:10:46
 * tran.x           walltime    0:06:57
   tran.x         
   tdmrunfile.x   
 * cigrd.x          walltime    0:10:59
 * tran.x           walltime    0:07:10
   tran.x         
   tdmrunfile.x   
 * cigrd.x          walltime    0:10:11
 * tran.x           walltime    0:06:56
   tran.x         
   tdmrunfile.x   

==========================================

