===========================================================
===                   runc                              ===
===           version 7.0.2 , April 2021              ===
===          requires COLUMBUS version Col_7.0.2        ===
===                                                     ===
===   written by: Thomas Mueller                        ===
===   gradient ext. by: Michal Dallos                   ===
===               University of Vienna                  ===
===   maintained by: Felix Plasser                      ===
===               Loughborough University               ===
===========================================================


coremem. (seq.): 200000 MB,  coremem. (par.): 19000 MB
Vdisk size: 0 DP
Reading job control file control.run ... 
 ****** This is an 2c-QDPT MRCISD calculation ****** 
 model space size=4:0:4
SMOLCAS=/home-4/yshen57@jhu.edu/Software/Chemistry/Columbus-7.0.2_OpenMolcas-18.09-col/OpenMolcas/build
Found serial Molcas Installation at /home-4/yshen57@jhu.edu/Software/Chemistry/Columbus-7.0.2_OpenMolcas-18.09-col/OpenMolcas/build
  done 
INFO: keywords nadcoupl and seward are supported for DCI mode only!
seward specified, using also alaska
Creating various directories ... 
 done 
SMOLCAS=/home-4/yshen57@jhu.edu/Software/Chemistry/Columbus-7.0.2_OpenMolcas-18.09-col/OpenMolcas/build
PMOLCAS=
Checking for illegal keywords and keyword combinations ... done 

 Nonadiabatic coupling term calculation type: DCI+DCSF
  States involved in calcualtion:
   DRT1,state1;  DRT1,state2
   DRT1,state1;  DRT1,state3
   DRT1,state1;  DRT1,state4
   DRT1,state2;  DRT1,state3
   DRT1,state2;  DRT1,state4
   DRT1,state3;  DRT1,state4
   DRT2,state1;  DRT2,state2
   DRT2,state1;  DRT2,state3
   DRT2,state1;  DRT2,state4
   DRT2,state2;  DRT2,state3
   DRT2,state2;  DRT2,state4
   DRT2,state3;  DRT2,state4

Additional gradients computed:
   DRT1,state1
   DRT1,state2
   DRT1,state3
   DRT1,state4
   DRT2,state1
   DRT2,state2
   DRT2,state3
   DRT2,state4

Checking for complete set of input files ... 
mcscf calculation without preceeding scf calculation 
will use 
 /scratch/users/yshen57@jhu.edu/Molcas/slow/1.4/mrci/mocoef as starting MOs 
Performing coupled non-rel. SO-CI calculation, nrroots: 4 0 4
starting cidrt.x   -m 200000 < cidrtin > temp at Sat May  7 00:00:30 EDT 2022

 -------------------- cidrt.x ------------------------
 spatial symmetry:  
 total number of configurations          0
 number of reference configurations     0
 --------------------------------------------------- 
 Preparing SO cidrtin files for 1 symmetries
cat ../cidrtin | sed -e 's/^.*input the molecular spatial symmetry/1 \/ molsym/' > cidrtin.so_A 
calling cidrt.x -m 200000 < cidrtin.so_A > cidrtls.soci_A ...
Checking the DRTs for consistency ...
calling reindex.x -i 1 -m 200000  ...
done

 ++++++++++++++++++ input file generation +++++++++++++ 
 runc start: Sat May  7 00:00:50 EDT 2022
 
  runc start: Sat May  7 00:00:50 EDT 2022
 
 starting unik.gets.x > unikls at Sat May  7 00:00:50 EDT 2022

 -------------------- unik.gets.x ------------------------
 --------------------------------------------------- 
 ++++++++++++++++++++ ao integral calculation ++++++++++++++++
starting pymolcas molcas.input.seward > molcas.output.seward  at Sat May  7 00:00:50 EDT 2022

Generating link ln -s ./molcas.OrdInt ORDINT 
 -------------------- seward ------------------------
      Basis set label: N.ANILINE.........
      Basis set label: C.ANILINE.........
      Basis set label: H.ANILINE.........
  Nuclear Coordinates in                   atomic units                                   Angstrom 
     Center  Label                x              y              z                     x              y              z
        1      N1              -4.462877       0.230281      -0.014525             -2.361653       0.121859      -0.007686
        2      C2              -1.759374      -0.018169      -0.019963             -0.931020      -0.009615      -0.010564
        3      C3              -0.416765       0.014777      -2.285730             -0.220542       0.007819      -1.209556
        4      C4              -0.436248      -0.037596       2.253935             -0.230853      -0.019895       1.192731
        5      C5               2.192104       0.009695      -2.257843              1.160012       0.005130      -1.194799
        6      C6               2.180135      -0.013311       2.254689              1.153678      -0.007044       1.193130
        7      C7               3.505784       0.002162       0.006554              1.855181       0.001144       0.003468
        8      H8              -5.348198      -1.449015      -1.857202             -2.830145      -0.766786      -0.982789
        9      H9              -5.157186      -0.689283       1.565601             -2.729066      -0.364753       0.828480
       10      H10             -1.420147       0.048735      -4.046326             -0.751510       0.025790      -2.141224
       11      H11             -1.447681      -0.070477       4.012327             -0.766080      -0.037295       2.123232
       12      H12              3.207999       0.022127      -4.014873              1.697600       0.011709      -2.124579
       13      H13              3.177198      -0.025345       4.022367              1.681301      -0.013412       2.128545
       14      H14              5.534326       0.003729       0.012309              2.928639       0.001973       0.006514
 
            Nuclear Potential Energy            270.81083979 au
 --------------------------------------------------- 
  >>>>>>>>>>>>> info: preparing drt no 1 out of 1 <<<<<<
starting mcdrt.x -m 200000 < mcdrtin > mcdrtls at Sat May  7 00:06:10 EDT 2022

 -------------------- mcdrt.x ------------------------
  Spin multiplicity: singlet 
  Spatial symmetry (#): 1
  Number of Configurations:       1275 
  --------------------------------------------------- 
 starting mcuft.x at Sat May  7 00:06:10 EDT 2022

 -------------------- mcuft.x ------------------------
 --------------------------------------------------- 
 ++++++++++++++++++++ MCSCF calculation +++++++++++++++
info: taking mocoef file from /scratch/users/yshen57@jhu.edu/Molcas/slow/1.4/mrci/mocoef
adding flag 30 to mcscfin
Writing mcdenin files for mcscf.x for 1 DRTs
adding flag 26 to mcscfin
starting mcscf.x -m 200000 at Sat May  7 00:06:11 EDT 2022

 -------------------- mcscf.x ------------------------
 Individual total energies for all states: 
    DRT #1 state # 1 wt 0.250 total energy=     -285.856920606, rel. (eV)=   0.000000
    DRT #1 state # 2 wt 0.250 total energy=     -285.634256145, rel. (eV)=   6.059011
    DRT #1 state # 3 wt 0.250 total energy=     -285.611283536, rel. (eV)=   6.684128
    DRT #1 state # 4 wt 0.250 total energy=     -285.572375600, rel. (eV)=   7.742867
  --------------------------------------------------- 
 starting mcpc.x -m 200000 < mcpcin > mcpcls at Sat May  7 00:09:17 EDT 2022

 -------------------- mcpc.x ------------------------
 --------------------------------------------------- 
 starting mcpc.x -m 200000 < mcpcin > mcpcls at Sat May  7 00:09:17 EDT 2022

 -------------------- mcpc.x ------------------------
 --------------------------------------------------- 
 starting mcpc.x -m 200000 < mcpcin > mcpcls at Sat May  7 00:09:17 EDT 2022

 -------------------- mcpc.x ------------------------
 --------------------------------------------------- 
 starting mcpc.x -m 200000 < mcpcin > mcpcls at Sat May  7 00:09:17 EDT 2022

 -------------------- mcpc.x ------------------------
 --------------------------------------------------- 
 
========= state properties for state-averaged MCSCF =========
mcscf.drt1.st01.sp
starting exptvl.x -m 200000   at Sat May  7 00:09:17 EDT 2022

 -------------------- exptvl.x ------------------------
  === dipole moment === 
                     X               Y               Z   
   orign x       0.00000000      0.00000000      0.00000000
   orign y       0.00000000      0.00000000      0.00000000
   orign z       0.00000000      0.00000000      0.00000000
   nuclear      -1.10001305     -0.80221663     -0.69761530
   electronic    0.87416698      0.11932055      0.74931079
   total        -0.22584607     -0.68289608      0.05169549
   total Dipole moment =   1.83292697    Debye
 --------------------------------------------------- 
 mcscf.drt1.st02.sp
starting exptvl.x -m 200000   at Sat May  7 00:09:17 EDT 2022

 -------------------- exptvl.x ------------------------
  === dipole moment === 
                     X               Y               Z   
   orign x       0.00000000      0.00000000      0.00000000
   orign y       0.00000000      0.00000000      0.00000000
   orign z       0.00000000      0.00000000      0.00000000
   nuclear      -1.10001305     -0.80221663     -0.69761530
   electronic    3.86398912      0.75825306      1.31990939
   total         2.76397607     -0.04396357      0.62229409
   total Dipole moment =   7.20205665    Debye
 --------------------------------------------------- 
 mcscf.drt1.st03.sp
starting exptvl.x -m 200000   at Sat May  7 00:09:17 EDT 2022

 -------------------- exptvl.x ------------------------
  === dipole moment === 
                     X               Y               Z   
   orign x       0.00000000      0.00000000      0.00000000
   orign y       0.00000000      0.00000000      0.00000000
   orign z       0.00000000      0.00000000      0.00000000
   nuclear      -1.10001305     -0.80221663     -0.69761530
   electronic    1.19822157      0.25790587      0.75990580
   total         0.09820852     -0.54431076      0.06229050
   total Dipole moment =   1.41472760    Debye
 --------------------------------------------------- 
 mcscf.drt1.st04.sp
starting exptvl.x -m 200000   at Sat May  7 00:09:18 EDT 2022

 -------------------- exptvl.x ------------------------
  === dipole moment === 
                     X               Y               Z   
   orign x       0.00000000      0.00000000      0.00000000
   orign y       0.00000000      0.00000000      0.00000000
   orign z       0.00000000      0.00000000      0.00000000
   nuclear      -1.10001305     -0.80221663     -0.69761530
   electronic    5.22029061      0.62066686      1.20737719
   total         4.12027756     -0.18154977      0.50976189
   total Dipole moment =  10.56264300    Debye
 --------------------------------------------------- 
  using the MCSCF MOs ... 
starting cidrt.x  -m 200000 < cidrtin.1 > cidrtls at Sat May  7 00:09:18 EDT 2022

 -------------------- cidrt.x ------------------------
 total number of orbitals            :   246
 number of frozen core orbitals      :    18
 number of frozen virtual orbitals   :     0
 number of internal orbitals         :    14
 number of external orbitals         :   214
 spatial symmetry:   a  
 
 total number of configurations  158587185
 number of reference configurations  1275
 --------------------------------------------------- 
 starting cidrt.x  -m 200000 < cidrtin.2 > cidrtls at Sat May  7 00:09:20 EDT 2022

 -------------------- cidrt.x ------------------------
 total number of orbitals            :   246
 number of frozen core orbitals      :    18
 number of frozen virtual orbitals   :     0
 number of internal orbitals         :    14
 number of external orbitals         :   214
 spatial symmetry:   a  
 
 total number of configurations  282461366
 number of reference configurations  1666
 --------------------------------------------------- 
 starting tran.x -m 200000  at Sat May  7 00:09:26 EDT 2022

 -------------------- tran.x ------------------------
 --------------------------------------------------- 
  Starting ciudgav with DRT # 1 out of 2 

 *** starting pciudg section *** 
nproc: 48 machinefile:  
assuming machinefile syntax: one host name per line optionally repeated
 section2, MPI_STARTUP:
 /software/apps/mpi/openmpi/3.1/intel/18.0/bin/mpirun -np 48  /home-4/yshen57@jhu.edu/Software/Chemistry/Columbus-7.0.2_OpenMolcas-18.09-col/Columbus/pciudg.x -m 19000 
 -------------------- pciudg.x ------------------------
 type of calculation:          mr-sdci
 number of configurations:     158587185
 total mr-sdci energy             -286.0560844215 
 last mr-sdci energy change           0.0000000000 
 residual                             0.0000076660 
  type of calculation:          mr-sdci
 number of configurations:     158587185
 total mr-sdci energy             -285.8844627083 
 last mr-sdci energy change           0.0000000000 
 residual                             0.0000060414 
  type of calculation:          mr-sdci
 number of configurations:     158587185
 total mr-sdci energy             -285.8646753374 
 last mr-sdci energy change           0.0000000000 
 residual                             0.0000085169 
  type of calculation:          mr-sdci
 number of configurations:     158587185
 total mr-sdci energy             -285.8245315899 
 last mr-sdci energy change           0.0000000112 
 residual                             0.0001618500 
  --------------------------------------------------- 
 keyinfile returned docipci=0:
starting cipc.x -m 200000 < cipcin > cipcls at Sat May  7 15:32:34 EDT 2022

 -------------------- cipc.x ------------------------
 --------------------------------------------------- 
  Starting ciudgav with DRT # 2 out of 2 

 *** starting pciudg section *** 
nproc: 48 machinefile:  
assuming machinefile syntax: one host name per line optionally repeated
 section2, MPI_STARTUP:
 /software/apps/mpi/openmpi/3.1/intel/18.0/bin/mpirun -np 48  /home-4/yshen57@jhu.edu/Software/Chemistry/Columbus-7.0.2_OpenMolcas-18.09-col/Columbus/pciudg.x -m 19000 
 -------------------- pciudg.x ------------------------
 type of calculation:          mr-sdci
 number of configurations:     282461366
 total mr-sdci energy             -285.9133885628 
 last mr-sdci energy change           0.0000000000 
 residual                             0.0000093881 
  type of calculation:          mr-sdci
 number of configurations:     282461366
 total mr-sdci energy             -285.8863912416 
 last mr-sdci energy change           0.0000000000 
 residual                             0.0000077267 
  type of calculation:          mr-sdci
 number of configurations:     282461366
 total mr-sdci energy             -285.8743872430 
 last mr-sdci energy change           0.0000000001 
 residual                             0.0000159360 
  type of calculation:          mr-sdci
 number of configurations:     282461366
 total mr-sdci energy             -285.8661156027 
 last mr-sdci energy change           0.0000000000 
 residual                             0.0000507370 
  --------------------------------------------------- 
 keyinfile returned docipci=0:
starting cipc.x -m 200000 < cipcin > cipcls at Mon May  9 03:19:55 EDT 2022

 -------------------- cipc.x ------------------------
 --------------------------------------------------- 
 Reindex call
run_socinr: imult=1 irrep=1 
opening file =ciudgls.drt1.sp
opening file =ciudgls.drt1.sp
opening file =ciudgls.drt1.sp
opening file =ciudgls.drt1.sp
run_socinr: imult=3 irrep=1 
opening file =ciudgls.drt2.sp
opening file =ciudgls.drt2.sp
opening file =ciudgls.drt2.sp
opening file =ciudgls.drt2.sp
 copying /scratch/users/yshen57@jhu.edu/Molcas/slow/1.4/mrci/cidrtfl.so__A --> cidrtfl.so__A 
 copying /scratch/users/yshen57@jhu.edu/Molcas/slow/1.4/mrci/cidrtfl.so__A --> cidrtfl.so__A 
starting reindex.x -m 200000 > reindexls at Mon May  9 03:20:07 EDT 2022

 -------------------- reindex.x ------------------------
 --------------------------------------------------- 
 1      1        1           civfl_1_A             1      1    0+       1             1         civfl.so__A
1      1        2           civfl_1_A             1      1    0+       2    1005971284         civfl.so__A
1      1        3           civfl_1_A             1      1    0+       3    2011942567         civfl.so__A
1      1        4           civfl_1_A             1      1    0+       4    3017913850         civfl.so__A
3      1        1           civfl_3_A             1      3    0+       5    4023885133         civfl.so__A
3      1        1           civfl_3_A             1      3    1+       6    5029856416         civfl.so__A
3      1        1           civfl_3_A             1      3    1-       7    6035827699         civfl.so__A
3      1        2           civfl_3_A             1      3    0+       8    7041798982         civfl.so__A
3      1        2           civfl_3_A             1      3    1+       9    8047770265         civfl.so__A
3      1        2           civfl_3_A             1      3    1-      10    9053741548         civfl.so__A
3      1        3           civfl_3_A             1      3    0+      11   10059712831         civfl.so__A
3      1        3           civfl_3_A             1      3    1+      12   11065684114         civfl.so__A
3      1        3           civfl_3_A             1      3    1-      13   12071655397         civfl.so__A
3      1        4           civfl_3_A             1      3    0+      14   13077626680         civfl.so__A
3      1        4           civfl_3_A             1      3    1+      15   14083597963         civfl.so__A
3      1        4           civfl_3_A             1      3    1-      16   15089569246         civfl.so__A
 Executing ciudg.x  for gamma =A ...

 *** starting pciudg section *** 
nproc: 48 machinefile:  
assuming machinefile syntax: one host name per line optionally repeated
 section2, MPI_STARTUP:
 /software/apps/mpi/openmpi/3.1/intel/18.0/bin/mpirun -np 48  /home-4/yshen57@jhu.edu/Software/Chemistry/Columbus-7.0.2_OpenMolcas-18.09-col/Columbus/pciudg.x -m 19000 
 -------------------- pciudg.x ------------------------
 type of calculation:          mr-sdci
 number of configurations:     1005971283
 total mr-sdci energy             -286.0560844547 
 last mr-sdci energy change          35.1380000000 
 residual                            35.1380000000 
  type of calculation:          mr-sdci
 number of configurations:     1005971283
 total mr-sdci energy             -285.9133885797 
 last mr-sdci energy change          34.9950000000 
 residual                            34.9950000000 
  type of calculation:          mr-sdci
 number of configurations:     1005971283
 total mr-sdci energy             -285.9133885790 
 last mr-sdci energy change          34.9950000000 
 residual                            34.9950000000 
  type of calculation:          mr-sdci
 number of configurations:     1005971283
 total mr-sdci energy             -285.9133885724 
 last mr-sdci energy change          34.9950000000 
 residual                            34.9950000000 
  type of calculation:          mr-sdci
 number of configurations:     1005971283
 total mr-sdci energy             -285.8863912530 
 last mr-sdci energy change          34.9680000000 
 residual                            34.9680000000 
  type of calculation:          mr-sdci
 number of configurations:     1005971283
 total mr-sdci energy             -285.8863912344 
 last mr-sdci energy change          34.9680000000 
 residual                            34.9680000000 
  type of calculation:          mr-sdci
 number of configurations:     1005971283
 total mr-sdci energy             -285.8863912327 
 last mr-sdci energy change          34.9680000000 
 residual                            34.9680000000 
  type of calculation:          mr-sdci
 number of configurations:     1005971283
 total mr-sdci energy             -285.8844626655 
 last mr-sdci energy change          34.9670000000 
 residual                            34.9670000000 
  type of calculation:          mr-sdci
 number of configurations:     1005971283
 total mr-sdci energy             -285.8743872464 
 last mr-sdci energy change          34.9560000000 
 residual                            34.9560000000 
  type of calculation:          mr-sdci
 number of configurations:     1005971283
 total mr-sdci energy             -285.8743872416 
 last mr-sdci energy change          34.9560000000 
 residual                            34.9560000000 
  type of calculation:          mr-sdci
 number of configurations:     1005971283
 total mr-sdci energy             -285.8743872401 
 last mr-sdci energy change          34.9560000000 
 residual                            34.9560000000 
  type of calculation:          mr-sdci
 number of configurations:     1005971283
 total mr-sdci energy             -285.8661156054 
 last mr-sdci energy change          34.9480000000 
 residual                            34.9480000000 
  type of calculation:          mr-sdci
 number of configurations:     1005971283
 total mr-sdci energy             -285.8661155987 
 last mr-sdci energy change          34.9480000000 
 residual                            34.9480000000 
  type of calculation:          mr-sdci
 number of configurations:     1005971283
 total mr-sdci energy             -285.8661155958 
 last mr-sdci energy change          34.9480000000 
 residual                            34.9480000000 
  type of calculation:          mr-sdci
 number of configurations:     1005971283
 total mr-sdci energy             -285.8646753249 
 last mr-sdci energy change          34.9470000000 
 residual                            34.9470000000 
  type of calculation:          mr-sdci
 number of configurations:     1005971283
 total mr-sdci energy             -285.8245315832 
 last mr-sdci energy change          34.9070000000 
 residual                            34.9070000000 
  --------------------------------------------------- 
 ************* Results for Spin-Orbit CI gamma=A **************** 
Final spin-orbit CI state energies: 


-------------- HT matrix in AU ----------------  
-35.138173    
 0.000000    -34.966551    
 0.000000     0.000000    -34.946764    
 0.000000     0.000000     0.000000    -34.906620    
 0.000033     0.000018     0.000001    -0.000001    -34.995477    
-0.000009    -0.000004     0.000002     0.000003    -0.000000    -34.995477    
-0.000040    -0.000023    -0.000004     0.000000    -0.000000     0.000000    -34.995477    
 0.000027    -0.000006    -0.000001    -0.000001     0.000000    -0.000013     0.000003    -34.968479    
-0.000008     0.000001     0.000000     0.000002     0.000013     0.000000     0.000012     0.000000    -34.968479    
-0.000034     0.000000    -0.000005    -0.000008    -0.000003    -0.000012     0.000000    -0.000000     0.000000    -34.968479    
-0.000003    -0.000005    -0.000000    -0.000011     0.000000     0.000001     0.000003     0.000000    -0.000000     0.000002    -34.956475    
-0.000001     0.000003     0.000000     0.000001    -0.000001     0.000000     0.000003     0.000000     0.000000     0.000005     0.000000    -34.956475    
-0.000002    -0.000001    -0.000001     0.000011    -0.000003    -0.000003     0.000000    -0.000002    -0.000005     0.000000    -0.000000    -0.000000    -34.956475    
-0.000014     0.000007     0.000004    -0.000004     0.000000     0.000010    -0.000001     0.000000     0.000005    -0.000000     0.000000     0.000004    -0.000001    -34.948204    
 0.000003    -0.000000    -0.000001     0.000001    -0.000010     0.000000    -0.000008    -0.000005     0.000000    -0.000002    -0.000004     0.000000    -0.000000     0.000000    -34.948204    
 0.000015    -0.000005    -0.000000     0.000004     0.000001     0.000008     0.000000     0.000000     0.000002     0.000000     0.000001     0.000000     0.000000     0.000000     0.000000    -34.948204    
-------------- HT matrix in eV ---------------- 
 -956.158   
    0.000    -951.488   
    0.000       0.000    -950.950   
    0.000       0.000       0.000    -949.857   
    0.001       0.000       0.000      -0.000    -952.275   
   -0.000      -0.000       0.000       0.000      -0.000    -952.275   
   -0.001      -0.001      -0.000       0.000      -0.000       0.000    -952.275   
    0.001      -0.000      -0.000      -0.000       0.000      -0.000       0.000    -951.541   
   -0.000       0.000       0.000       0.000       0.000       0.000       0.000       0.000    -951.541   
   -0.001       0.000      -0.000      -0.000      -0.000      -0.000       0.000      -0.000       0.000    -951.541   
   -0.000      -0.000      -0.000      -0.000       0.000       0.000       0.000       0.000      -0.000       0.000    -951.214   
   -0.000       0.000       0.000       0.000      -0.000       0.000       0.000       0.000       0.000       0.000       0.000    -951.214   
   -0.000      -0.000      -0.000       0.000      -0.000      -0.000       0.000      -0.000      -0.000       0.000      -0.000      -0.000    -951.214   
   -0.000       0.000       0.000      -0.000       0.000       0.000      -0.000       0.000       0.000      -0.000       0.000       0.000      -0.000    -950.989   
    0.000      -0.000      -0.000       0.000      -0.000       0.000      -0.000      -0.000       0.000      -0.000      -0.000       0.000      -0.000       0.000    -950.989   
    0.000      -0.000      -0.000       0.000       0.000       0.000       0.000       0.000       0.000       0.000       0.000       0.000       0.000       0.000       0.000    -950.989   
-------------- HT matrix in cm-1 ------------------- 
Eref = -35.13817260
     0.00   
     0.00    37666.68   
     0.00        0.00    42009.51   
     0.00        0.00        0.00    50820.06   
     7.27        3.85        0.21       -0.19    31318.17   
    -2.03       -0.93        0.52        0.75        0.00    31318.17   
    -8.71       -4.99       -0.95        0.11        0.00        0.00    31318.17   
     5.94       -1.38       -0.15       -0.28        0.00       -2.82        0.63    37243.41   
    -1.81        0.14        0.09        0.40        2.82        0.00        2.72        0.00    37243.41   
    -7.44        0.09       -1.17       -1.81       -0.63       -2.72        0.00        0.00        0.00    37243.41   
    -0.67       -1.02       -0.06       -2.33        0.00        0.13        0.55        0.00       -0.09        0.49    39877.99   
    -0.30        0.57        0.02        0.20       -0.13        0.00        0.59        0.09        0.00        1.10        0.00    39877.99   
    -0.33       -0.31       -0.22        2.31       -0.55       -0.59        0.00       -0.49       -1.10        0.00        0.00        0.00    39877.99   
    -3.17        1.50        0.81       -0.94        0.00        2.21       -0.27        0.00        1.00       -0.07        0.00        0.80       -0.15    41693.41   
     0.75       -0.02       -0.27        0.24       -2.21        0.00       -1.85       -1.00        0.00       -0.45       -0.80        0.00       -0.03        0.00    41693.41   
     3.27       -1.16       -0.09        0.88        0.27        1.85        0.00        0.07        0.45        0.00        0.15        0.03        0.00        0.00        0.00    41693.41   


Spin-Orbit CI: perturbational estimate of Spin-Orbit CI energies and wavefunctions 
                SO   1         SO   2         SO   3         SO   4         SO   5         SO   6         SO   7         SO   8

   energy  -286.05608445  -285.91338858  -285.91338858  -285.91338857  -285.88639125  -285.88639123  -285.88639123  -285.88446267
 
   NR   1     0.99999989    -0.00012108     0.00002130    -0.00034689    -0.00017099    -0.00015560     0.00011960     0.00000022
   NR   2     0.00000005     0.00037466    -0.00004579     0.00093008    -0.00327761    -0.00000567     0.00016062    -0.99999385
   NR   3     0.00000001     0.00008486     0.00003474     0.00004761    -0.00002146     0.00022914    -0.00009403     0.00000015
   NR   4     0.00000001     0.00001278     0.00003212    -0.00002060    -0.00001652     0.00013257    -0.00003365     0.00000001
   NR   5    -0.00023204     0.39815670    -0.38703773    -0.83166840     0.00002142    -0.00030619    -0.00037780    -0.00060676
   NR   6     0.00006499    -0.34802730    -0.90258151     0.25342270     0.00045386    -0.00041786     0.00023677     0.00014523
   NR   7     0.00027818     0.84873293    -0.18854144     0.49406839    -0.00007623    -0.00020121    -0.00041882     0.00078631
   NR   8    -0.00015961    -0.00025597    -0.00040866     0.00006803    -0.99720377     0.01359741    -0.07340848     0.00325661
   NR   9     0.00004851    -0.00057866     0.00027033     0.00016827     0.05986203    -0.44192009    -0.89505440    -0.00033741
   NR  10     0.00019982    -0.00011716    -0.00045556     0.00002678     0.04461086     0.89695101    -0.43987288    -0.00022194
   NR  11     0.00001674    -0.00004909     0.00002554    -0.00003534    -0.00000749    -0.00018182     0.00004920    -0.00045931
   NR  12     0.00000749    -0.00005265     0.00000729    -0.00004656     0.00001807    -0.00037590     0.00018674     0.00025845
   NR  13     0.00000828     0.00000140    -0.00008705    -0.00003571    -0.00015982    -0.00018270    -0.00038813    -0.00013932
   NR  14     0.00007593     0.00009596     0.00018722    -0.00004144    -0.00001209     0.00011309     0.00019509     0.00037237
   NR  15    -0.00001803     0.00023585    -0.00011601    -0.00008900    -0.00022027     0.00009425    -0.00006176    -0.00000299
   NR  16    -0.00007837     0.00005180     0.00017069    -0.00002344     0.00000780     0.00004513     0.00009220    -0.00028902

                SO   9         SO  10         SO  11         SO  12         SO  13         SO  14         SO  15         SO  16

   energy  -285.87438725  -285.87438724  -285.87438724  -285.86611561  -285.86611560  -285.86611560  -285.86467532  -285.82453158
 
   NR   1     0.00000819    -0.00000962     0.00001577    -0.00008732     0.00006374     0.00002339    -0.00000017    -0.00000003
   NR   2     0.00030079     0.00020315     0.00040677     0.00038344    -0.00021018    -0.00017624     0.00000109     0.00000001
   NR   3     0.00003719    -0.00000348    -0.00009842    -0.00270333    -0.00011345     0.00015487     0.99999629    -0.00000000
   NR   4    -0.00029696    -0.00000650     0.00004319     0.00011798    -0.00007698    -0.00002808     0.00000029    -0.99999993
   NR   5    -0.00003850    -0.00001785     0.00005044     0.00007548     0.00000124     0.00020063     0.00001947     0.00000978
   NR   6    -0.00005276    -0.00000207     0.00004671     0.00017047     0.00021467    -0.00004259     0.00004945    -0.00003871
   NR   7    -0.00004797     0.00007498    -0.00003069     0.00004261    -0.00002491     0.00017313    -0.00008891    -0.00000538
   NR   8    -0.00010747     0.00002689     0.00015242     0.00008137    -0.00001084     0.00021052    -0.00003118     0.00002077
   NR   9    -0.00021860    -0.00002386     0.00035798     0.00019288     0.00014284    -0.00006000     0.00001900    -0.00002936
   NR  10    -0.00012597     0.00043478    -0.00006691     0.00002501    -0.00001449     0.00009903    -0.00024586     0.00013299
   NR  11    -0.80447077     0.10207555    -0.58515542     0.00015280     0.00003040     0.00042294    -0.00002691     0.00021294
   NR  12     0.05408085     0.99361870     0.09897828     0.00040496     0.00009908    -0.00015087     0.00001243    -0.00001826
   NR  13     0.59152486     0.04797952    -0.80485776    -0.00006999    -0.00001764     0.00004119    -0.00010124    -0.00021075
   NR  14     0.00002437    -0.00043643    -0.00011044     0.91807998     0.19314854    -0.34614419     0.00255737     0.00010318
   NR  15    -0.00034831     0.00004608    -0.00027042    -0.37117549     0.11245381    -0.92172764    -0.00084796    -0.00002645
   NR  16     0.00006574    -0.00002209     0.00004672    -0.13910484     0.97470387     0.17493419    -0.00029257    -0.00009636
rescaling new expansion vector ... old norm=   4540.1288521733

 model space basis from reindexls .. 
 --SO-CI-------         -----NR-CI-------             ---model space---- 
 Gamma  root             S   irrep   root                S   ms* 
A          1             1   A         1                 1   0+
A          2             1   A         2                 1   0+
A          3             1   A         3                 1   0+
A          4             1   A         4                 1   0+
A          5             3   A         1                 3   0+
A          6             3   A         1                 3   1+
A          7             3   A         1                 3   1-
A          8             3   A         2                 3   0+
A          9             3   A         2                 3   1+
A         10             3   A         2                 3   1-
A         11             3   A         3                 3   0+
A         12             3   A         3                 3   1+
A         13             3   A         3                 3   1-
A         14             3   A         4                 3   0+
A         15             3   A         4                 3   1+
A         16             3   A         4                 3   1-

************************** SUMMARY *********************************

--------------  SO matrix for irrep A in eV ---------------- 
|1,0+;1,A,1>  -956.158   
|1,0+;1,A,2>     0.000    -951.488   
|1,0+;1,A,3>     0.000       0.000    -950.950   
|1,0+;1,A,4>     0.000       0.000       0.000    -949.857   
|3,0+;3,A,1>     0.001       0.000       0.000      -0.000    -952.275   
|3,1+;3,A,1>    -0.000      -0.000       0.000       0.000      -0.000    -952.275   
|3,1-;3,A,1>    -0.001      -0.001      -0.000       0.000      -0.000       0.000    -952.275   
|3,0+;3,A,2>     0.001      -0.000      -0.000      -0.000       0.000      -0.000       0.000    -951.541   
|3,1+;3,A,2>    -0.000       0.000       0.000       0.000       0.000       0.000       0.000       0.000    -951.541   
|3,1-;3,A,2>    -0.001       0.000      -0.000      -0.000      -0.000      -0.000       0.000      -0.000       0.000    -951.541   
|3,0+;3,A,3>    -0.000      -0.000      -0.000      -0.000       0.000       0.000       0.000       0.000      -0.000       0.000    -951.214   
|3,1+;3,A,3>    -0.000       0.000       0.000       0.000      -0.000       0.000       0.000       0.000       0.000       0.000       0.000    -951.214   
|3,1-;3,A,3>    -0.000      -0.000      -0.000       0.000      -0.000      -0.000       0.000      -0.000      -0.000       0.000      -0.000      -0.000    -951.214   
|3,0+;3,A,4>    -0.000       0.000       0.000      -0.000       0.000       0.000      -0.000       0.000       0.000      -0.000       0.000       0.000      -0.000    -950.989   
|3,1+;3,A,4>     0.000      -0.000      -0.000       0.000      -0.000       0.000      -0.000      -0.000       0.000      -0.000      -0.000       0.000      -0.000       0.000    -950.989   
|3,1-;3,A,4>     0.000      -0.000      -0.000       0.000       0.000       0.000       0.000       0.000       0.000       0.000       0.000       0.000       0.000       0.000       0.000    -950.989   

--------------  SO matrix for irrep A in cm-1 ------------------- 
Eref = -35.13817260
|1,0+;1,A,1>      0.00   
|1,0+;1,A,2>      0.00    37666.68   
|1,0+;1,A,3>      0.00        0.00    42009.51   
|1,0+;1,A,4>      0.00        0.00        0.00    50820.06   
|3,0+;3,A,1>      7.27        3.85        0.21       -0.19    31318.17   
|3,1+;3,A,1>     -2.03       -0.93        0.52        0.75        0.00    31318.17   
|3,1-;3,A,1>     -8.71       -4.99       -0.95        0.11        0.00        0.00    31318.17   
|3,0+;3,A,2>      5.94       -1.38       -0.15       -0.28        0.00       -2.82        0.63    37243.41   
|3,1+;3,A,2>     -1.81        0.14        0.09        0.40        2.82        0.00        2.72        0.00    37243.41   
|3,1-;3,A,2>     -7.44        0.09       -1.17       -1.81       -0.63       -2.72        0.00        0.00        0.00    37243.41   
|3,0+;3,A,3>     -0.67       -1.02       -0.06       -2.33        0.00        0.13        0.55        0.00       -0.09        0.49    39877.99   
|3,1+;3,A,3>     -0.30        0.57        0.02        0.20       -0.13        0.00        0.59        0.09        0.00        1.10        0.00    39877.99   
|3,1-;3,A,3>     -0.33       -0.31       -0.22        2.31       -0.55       -0.59        0.00       -0.49       -1.10        0.00        0.00        0.00    39877.99   
|3,0+;3,A,4>     -3.17        1.50        0.81       -0.94        0.00        2.21       -0.27        0.00        1.00       -0.07        0.00        0.80       -0.15    41693.41   
|3,1+;3,A,4>      0.75       -0.02       -0.27        0.24       -2.21        0.00       -1.85       -1.00        0.00       -0.45       -0.80        0.00       -0.03        0.00    41693.41   
|3,1-;3,A,4>      3.27       -1.16       -0.09        0.88        0.27        1.85        0.00        0.07        0.45        0.00        0.15        0.03        0.00        0.00        0.00    41693.41   


 ** perturbational estimate of Spin-Orbit CI energies and wavefunctions in model space basis** 

                      A  1         A  2         A  3         A  4         A  5         A  6         A  7         A  8

            energy  -286.05608445  -285.91338858  -285.91338858  -285.91338857  -285.88639125  -285.88639123  -285.88639123  -285.88446267
          
   |1,0+;1,A,1>     0.99999989    -0.00012108     0.00002130    -0.00034689    -0.00017099    -0.00015560     0.00011960     0.00000022
   |1,0+;1,A,2>     0.00000005     0.00037466    -0.00004579     0.00093008    -0.00327761    -0.00000567     0.00016062    -0.99999385
   |1,0+;1,A,3>     0.00000001     0.00008486     0.00003474     0.00004761    -0.00002146     0.00022914    -0.00009403     0.00000015
   |1,0+;1,A,4>     0.00000001     0.00001278     0.00003212    -0.00002060    -0.00001652     0.00013257    -0.00003365     0.00000001
   |3,0+;3,A,1>    -0.00023204     0.39815670    -0.38703773    -0.83166840     0.00002142    -0.00030619    -0.00037780    -0.00060676
   |3,1+;3,A,1>     0.00006499    -0.34802730    -0.90258151     0.25342270     0.00045386    -0.00041786     0.00023677     0.00014523
   |3,1-;3,A,1>     0.00027818     0.84873293    -0.18854144     0.49406839    -0.00007623    -0.00020121    -0.00041882     0.00078631
   |3,0+;3,A,2>    -0.00015961    -0.00025597    -0.00040866     0.00006803    -0.99720377     0.01359741    -0.07340848     0.00325661
   |3,1+;3,A,2>     0.00004851    -0.00057866     0.00027033     0.00016827     0.05986203    -0.44192009    -0.89505440    -0.00033741
   |3,1-;3,A,2>     0.00019982    -0.00011716    -0.00045556     0.00002678     0.04461086     0.89695101    -0.43987288    -0.00022194
   |3,0+;3,A,3>     0.00001674    -0.00004909     0.00002554    -0.00003534    -0.00000749    -0.00018182     0.00004920    -0.00045931
   |3,1+;3,A,3>     0.00000749    -0.00005265     0.00000729    -0.00004656     0.00001807    -0.00037590     0.00018674     0.00025845
   |3,1-;3,A,3>     0.00000828     0.00000140    -0.00008705    -0.00003571    -0.00015982    -0.00018270    -0.00038813    -0.00013932
   |3,0+;3,A,4>     0.00007593     0.00009596     0.00018722    -0.00004144    -0.00001209     0.00011309     0.00019509     0.00037237
   |3,1+;3,A,4>    -0.00001803     0.00023585    -0.00011601    -0.00008900    -0.00022027     0.00009425    -0.00006176    -0.00000299
   |3,1-;3,A,4>    -0.00007837     0.00005180     0.00017069    -0.00002344     0.00000780     0.00004513     0.00009220    -0.00028902

                      A  9         A 10         A 11         A 12         A 13         A 14         A 15         A 16

            energy  -285.87438725  -285.87438724  -285.87438724  -285.86611561  -285.86611560  -285.86611560  -285.86467532  -285.82453158
          
   |1,0+;1,A,1>     0.00000819    -0.00000962     0.00001577    -0.00008732     0.00006374     0.00002339    -0.00000017    -0.00000003
   |1,0+;1,A,2>     0.00030079     0.00020315     0.00040677     0.00038344    -0.00021018    -0.00017624     0.00000109     0.00000001
   |1,0+;1,A,3>     0.00003719    -0.00000348    -0.00009842    -0.00270333    -0.00011345     0.00015487     0.99999629    -0.00000000
   |1,0+;1,A,4>    -0.00029696    -0.00000650     0.00004319     0.00011798    -0.00007698    -0.00002808     0.00000029    -0.99999993
   |3,0+;3,A,1>    -0.00003850    -0.00001785     0.00005044     0.00007548     0.00000124     0.00020063     0.00001947     0.00000978
   |3,1+;3,A,1>    -0.00005276    -0.00000207     0.00004671     0.00017047     0.00021467    -0.00004259     0.00004945    -0.00003871
   |3,1-;3,A,1>    -0.00004797     0.00007498    -0.00003069     0.00004261    -0.00002491     0.00017313    -0.00008891    -0.00000538
   |3,0+;3,A,2>    -0.00010747     0.00002689     0.00015242     0.00008137    -0.00001084     0.00021052    -0.00003118     0.00002077
   |3,1+;3,A,2>    -0.00021860    -0.00002386     0.00035798     0.00019288     0.00014284    -0.00006000     0.00001900    -0.00002936
   |3,1-;3,A,2>    -0.00012597     0.00043478    -0.00006691     0.00002501    -0.00001449     0.00009903    -0.00024586     0.00013299
   |3,0+;3,A,3>    -0.80447077     0.10207555    -0.58515542     0.00015280     0.00003040     0.00042294    -0.00002691     0.00021294
   |3,1+;3,A,3>     0.05408085     0.99361870     0.09897828     0.00040496     0.00009908    -0.00015087     0.00001243    -0.00001826
   |3,1-;3,A,3>     0.59152486     0.04797952    -0.80485776    -0.00006999    -0.00001764     0.00004119    -0.00010124    -0.00021075
   |3,0+;3,A,4>     0.00002437    -0.00043643    -0.00011044     0.91807998     0.19314854    -0.34614419     0.00255737     0.00010318
   |3,1+;3,A,4>    -0.00034831     0.00004608    -0.00027042    -0.37117549     0.11245381    -0.92172764    -0.00084796    -0.00002645
   |3,1-;3,A,4>     0.00006574    -0.00002209     0.00004672    -0.13910484     0.97470387     0.17493419    -0.00029257    -0.00009636
rescaling new expansion vector ... old norm=   4540.1288521733

Sorted Energies:
1  -286.05608445 
2  -285.91338858 
3  -285.91338858 
4  -285.91338857 
5  -285.88639125 
6  -285.88639123 
7  -285.88639123 
8  -285.88446267 
9  -285.87438725 
10  -285.87438724 
11  -285.87438724 
12  -285.86611561 
13  -285.86611560 
14  -285.86611560 
15  -285.86467532 
16  -285.82453158 
Not computing transition moment with identical bra and ket.
 Calculating transition moment for (1,1) => (1,2)
 starting transci.x -m 200000 at Mon May  9 05:14:58 EDT 2022

 -------------------- transci.x ------------------------

                          State No. 1            State No. 2

   Space symmetry:           a                      a   
   No. of CSFs:          ********               ********
   State energies:      -286.05608442          -285.88446271  a.u.

   Transition energy:     0.17162171  a.u.
   Transition energy:     4.67        eV

       Transition moment components:

                 x            y            z

electron          0.606982     0.225008     0.098163  e*bohr
frozen core       0.000000     0.000000     0.000000  e*bohr
total (elec)      0.606982     0.225008     0.098163  e*bohr


   Tr.dipole length:     0.654746    e*bohr
   Oscillator strength :  0.049049
   Einstein A coef.:     0.4641E+08  1/sec
   Einstein B coef.:     0.1740E+09  sec/g

                 x            y            z

<L> electron     0.206689     0.393797    -0.610967  e*bohr


   <L> value length:     0.755697    e*bohr
 --------------------------------------------------- 
  Calculating transition moment for (1,1) => (1,3)
 starting transci.x -m 200000 at Mon May  9 05:17:12 EDT 2022

 -------------------- transci.x ------------------------

                          State No. 1            State No. 2

   Space symmetry:           a                      a   
   No. of CSFs:          ********               ********
   State energies:      -286.05608442          -285.86467534  a.u.

   Transition energy:     0.19140908  a.u.
   Transition energy:     5.21        eV

       Transition moment components:

                 x            y            z

electron          0.066679     0.029579     0.157915  e*bohr
frozen core       0.000000     0.000000     0.000000  e*bohr
total (elec)      0.066679     0.029579     0.157915  e*bohr


   Tr.dipole length:     0.173949    e*bohr
   Oscillator strength :  0.003861
   Einstein A coef.:     0.4545E+07  1/sec
   Einstein B coef.:     0.1228E+08  sec/g

                 x            y            z

<L> electron    -0.019054    -0.298327    -0.126903  e*bohr


   <L> value length:     0.324756    e*bohr
 --------------------------------------------------- 
  Calculating transition moment for (1,1) => (1,4)
 starting transci.x -m 200000 at Mon May  9 05:19:27 EDT 2022

 -------------------- transci.x ------------------------

                          State No. 1            State No. 2

   Space symmetry:           a                      a   
   No. of CSFs:          ********               ********
   State energies:      -286.05608442          -285.82453159  a.u.

   Transition energy:     0.23155283  a.u.
   Transition energy:     6.30        eV

       Transition moment components:

                 x            y            z

electron         -0.225784    -0.028329     0.260518  e*bohr
frozen core       0.000000     0.000000     0.000000  e*bohr
total (elec)     -0.225784    -0.028329     0.260518  e*bohr


   Tr.dipole length:     0.345905    e*bohr
   Oscillator strength :  0.018470
   Einstein A coef.:     0.3182E+08  1/sec
   Einstein B coef.:     0.4856E+08  sec/g

                 x            y            z

<L> electron     0.261569    -0.413366     0.043630  e*bohr


   <L> value length:     0.491114    e*bohr
 --------------------------------------------------- 
 Not computing transition moment with identical bra and ket.
 Calculating transition moment for (1,2) => (1,3)
 starting transci.x -m 200000 at Mon May  9 05:21:40 EDT 2022

 -------------------- transci.x ------------------------

                          State No. 1            State No. 2

   Space symmetry:           a                      a   
   No. of CSFs:          ********               ********
   State energies:      -285.88446271          -285.86467534  a.u.

   Transition energy:     0.01978737  a.u.
   Transition energy:     0.54        eV

       Transition moment components:

                 x            y            z

electron         -0.690772    -0.068336     0.100207  e*bohr
frozen core       0.000000     0.000000     0.000000  e*bohr
total (elec)     -0.690772    -0.068336     0.100207  e*bohr


   Tr.dipole length:     0.701340    e*bohr
   Oscillator strength :  0.006489
   Einstein A coef.:     0.8162E+05  1/sec
   Einstein B coef.:     0.1996E+09  sec/g

                 x            y            z

<L> electron    -0.096847    -0.352878    -0.017648  e*bohr


   <L> value length:     0.366352    e*bohr
 --------------------------------------------------- 
  Calculating transition moment for (1,2) => (1,4)
 starting transci.x -m 200000 at Mon May  9 05:23:48 EDT 2022

 -------------------- transci.x ------------------------

                          State No. 1            State No. 2

   Space symmetry:           a                      a   
   No. of CSFs:          ********               ********
   State energies:      -285.88446271          -285.82453159  a.u.

   Transition energy:     0.05993112  a.u.
   Transition energy:     1.63        eV

       Transition moment components:

                 x            y            z

electron         -0.673747     0.118905     0.034832  e*bohr
frozen core       0.000000     0.000000     0.000000  e*bohr
total (elec)     -0.673747     0.118905     0.034832  e*bohr


   Tr.dipole length:     0.685045    e*bohr
   Oscillator strength :  0.018750
   Einstein A coef.:     0.2164E+07  1/sec
   Einstein B coef.:     0.1904E+09  sec/g

                 x            y            z

<L> electron    -0.084786     0.515203     0.113245  e*bohr


   <L> value length:     0.534272    e*bohr
 --------------------------------------------------- 
 Not computing transition moment with identical bra and ket.
 Calculating transition moment for (1,3) => (1,4)
 starting transci.x -m 200000 at Mon May  9 05:25:57 EDT 2022

 -------------------- transci.x ------------------------

                          State No. 1            State No. 2

   Space symmetry:           a                      a   
   No. of CSFs:          ********               ********
   State energies:      -285.86467534          -285.82453159  a.u.

   Transition energy:     0.04014375  a.u.
   Transition energy:     1.09        eV

       Transition moment components:

                 x            y            z

electron          0.696974     0.202968     0.135717  e*bohr
frozen core       0.000000     0.000000     0.000000  e*bohr
total (elec)      0.696974     0.202968     0.135717  e*bohr


   Tr.dipole length:     0.738504    e*bohr
   Oscillator strength :  0.014596
   Einstein A coef.:     0.7557E+06  1/sec
   Einstein B coef.:     0.2213E+09  sec/g

                 x            y            z

<L> electron     0.068478    -0.337029    -0.170979  e*bohr


   <L> value length:     0.384072    e*bohr
 --------------------------------------------------- 
 Not computing transition moment with identical bra and ket.
Not computing transition moment with identical bra and ket.
 Calculating transition moment for (2,1) => (2,2)
 starting transci.x -m 200000 at Mon May  9 05:28:05 EDT 2022

 -------------------- transci.x ------------------------

                          State No. 1            State No. 2

   Space symmetry:           a                      a   
   No. of CSFs:          ********               ********
   State energies:      -285.91338856          -285.88639124  a.u.

   Transition energy:     0.02699732  a.u.
   Transition energy:     0.73        eV

       Transition moment components:

                 x            y            z

electron         -0.939811    -0.280669    -0.294096  e*bohr
frozen core       0.000000     0.000000     0.000000  e*bohr
total (elec)     -0.939811    -0.280669    -0.294096  e*bohr


   Tr.dipole length:     1.023968    e*bohr
   Oscillator strength :  0.018871
   Einstein A coef.:     0.4419E+06  1/sec
   Einstein B coef.:     0.4255E+09  sec/g

                 x            y            z

<L> electron    -0.059127     0.153988     0.188414  e*bohr


   <L> value length:     0.250416    e*bohr
 --------------------------------------------------- 
  Calculating transition moment for (2,1) => (2,3)
 starting transci.x -m 200000 at Mon May  9 05:32:15 EDT 2022

 -------------------- transci.x ------------------------

                          State No. 1            State No. 2

   Space symmetry:           a                      a   
   No. of CSFs:          ********               ********
   State energies:      -285.91338856          -285.87438724  a.u.

   Transition energy:     0.03900132  a.u.
   Transition energy:     1.06        eV

       Transition moment components:

                 x            y            z

electron          0.207242     0.034125     0.043324  e*bohr
frozen core       0.000000     0.000000     0.000000  e*bohr
total (elec)      0.207242     0.034125     0.043324  e*bohr


   Tr.dipole length:     0.214455    e*bohr
   Oscillator strength :  0.001196
   Einstein A coef.:     0.5844E+05  1/sec
   Einstein B coef.:     0.1866E+08  sec/g

                 x            y            z

<L> electron     0.043003     0.390793     0.018006  e*bohr


   <L> value length:     0.393564    e*bohr
 --------------------------------------------------- 
  Calculating transition moment for (2,1) => (2,4)
 starting transci.x -m 200000 at Mon May  9 05:36:21 EDT 2022

 -------------------- transci.x ------------------------

                          State No. 1            State No. 2

   Space symmetry:           a                      a   
   No. of CSFs:          ********               ********
   State energies:      -285.91338856          -285.86611560  a.u.

   Transition energy:     0.04727296  a.u.
   Transition energy:     1.29        eV

       Transition moment components:

                 x            y            z

electron          0.580707     0.112129     0.090187  e*bohr
frozen core       0.000000     0.000000     0.000000  e*bohr
total (elec)      0.580707     0.112129     0.090187  e*bohr


   Tr.dipole length:     0.598270    e*bohr
   Oscillator strength :  0.011280
   Einstein A coef.:     0.8099E+06  1/sec
   Einstein B coef.:     0.1453E+09  sec/g

                 x            y            z

<L> electron     0.058044     0.112825    -0.138345  e*bohr


   <L> value length:     0.187717    e*bohr
 --------------------------------------------------- 
 Not computing transition moment with identical bra and ket.
 Calculating transition moment for (2,2) => (2,3)
 starting transci.x -m 200000 at Mon May  9 05:40:23 EDT 2022

 -------------------- transci.x ------------------------

                          State No. 1            State No. 2

   Space symmetry:           a                      a   
   No. of CSFs:          ********               ********
   State energies:      -285.88639124          -285.87438724  a.u.

   Transition energy:     0.01200400  a.u.
   Transition energy:     0.33        eV

       Transition moment components:

                 x            y            z

electron          0.294393     0.037250    -0.069258  e*bohr
frozen core       0.000000     0.000000     0.000000  e*bohr
total (elec)      0.294393     0.037250    -0.069258  e*bohr


   Tr.dipole length:     0.304715    e*bohr
   Oscillator strength :  0.000743
   Einstein A coef.:     0.3440E+04  1/sec
   Einstein B coef.:     0.3768E+08  sec/g

                 x            y            z

<L> electron     0.068207    -0.398550     0.038774  e*bohr


   <L> value length:     0.406199    e*bohr
 --------------------------------------------------- 
  Calculating transition moment for (2,2) => (2,4)
 starting transci.x -m 200000 at Mon May  9 05:44:27 EDT 2022

 -------------------- transci.x ------------------------

                          State No. 1            State No. 2

   Space symmetry:           a                      a   
   No. of CSFs:          ********               ********
   State energies:      -285.88639124          -285.86611560  a.u.

   Transition energy:     0.02027564  a.u.
   Transition energy:     0.55        eV

       Transition moment components:

                 x            y            z

electron          0.416106     0.043468     0.017809  e*bohr
frozen core       0.000000     0.000000     0.000000  e*bohr
total (elec)      0.416106     0.043468     0.017809  e*bohr


   Tr.dipole length:     0.418749    e*bohr
   Oscillator strength :  0.002370
   Einstein A coef.:     0.3131E+05  1/sec
   Einstein B coef.:     0.7116E+08  sec/g

                 x            y            z

<L> electron     0.034478    -0.146154    -0.035612  e*bohr


   <L> value length:     0.154331    e*bohr
 --------------------------------------------------- 
 Not computing transition moment with identical bra and ket.
 Calculating transition moment for (2,3) => (2,4)
 starting transci.x -m 200000 at Mon May  9 05:48:31 EDT 2022

 -------------------- transci.x ------------------------

                          State No. 1            State No. 2

   Space symmetry:           a                      a   
   No. of CSFs:          ********               ********
   State energies:      -285.87438724          -285.86611560  a.u.

   Transition energy:     0.00827164  a.u.
   Transition energy:     0.23        eV

       Transition moment components:

                 x            y            z

electron         -0.061747     0.010808     0.033370  e*bohr
frozen core       0.000000     0.000000     0.000000  e*bohr
total (elec)     -0.061747     0.010808     0.033370  e*bohr


   Tr.dipole length:     0.071014    e*bohr
   Oscillator strength :  0.000028
   Einstein A coef.:     0.6113E+02  1/sec
   Einstein B coef.:     0.2047E+07  sec/g

                 x            y            z

<L> electron     0.026879    -0.574603     0.012089  e*bohr


   <L> value length:     0.575358    e*bohr
 --------------------------------------------------- 
 Not computing transition moment with identical bra and ket.
starting mo_convert.x at Mon May  9 05:52:30 EDT 2022

 -------------------- mo_convert.x ------------------------
 --------------------------------------------------- 
 starting pymolcas molcas.input.molden > molcas.output.molden at Mon May  9 05:52:31 EDT 2022

Generating link ln -s ./molcas.OrdInt ORDINT 
 -------------------- molden ------------------------
 --------------------------------------------------- 
 starting mo_convert.x at Mon May  9 05:52:59 EDT 2022

 -------------------- mo_convert.x ------------------------
 --------------------------------------------------- 
 starting pymolcas molcas.input.molden > molcas.output.molden at Mon May  9 05:53:00 EDT 2022

Generating link ln -s ./molcas.OrdInt ORDINT 
 -------------------- molden ------------------------
 --------------------------------------------------- 
 starting mo_convert.x at Mon May  9 05:53:24 EDT 2022

 -------------------- mo_convert.x ------------------------
 --------------------------------------------------- 
 starting pymolcas molcas.input.molden > molcas.output.molden at Mon May  9 05:53:25 EDT 2022

Generating link ln -s ./molcas.OrdInt ORDINT 
 -------------------- molden ------------------------
 --------------------------------------------------- 
 starting mo_convert.x at Mon May  9 05:53:45 EDT 2022

 -------------------- mo_convert.x ------------------------
 --------------------------------------------------- 
 starting pymolcas molcas.input.molden > molcas.output.molden at Mon May  9 05:53:46 EDT 2022

Generating link ln -s ./molcas.OrdInt ORDINT 
 -------------------- molden ------------------------
 --------------------------------------------------- 
 starting mo_convert.x at Mon May  9 05:54:07 EDT 2022

 -------------------- mo_convert.x ------------------------
 --------------------------------------------------- 
 starting pymolcas molcas.input.molden > molcas.output.molden at Mon May  9 05:54:07 EDT 2022

Generating link ln -s ./molcas.OrdInt ORDINT 
 -------------------- molden ------------------------
 --------------------------------------------------- 
 starting mo_convert.x at Mon May  9 05:54:28 EDT 2022

 -------------------- mo_convert.x ------------------------
 --------------------------------------------------- 
 starting pymolcas molcas.input.molden > molcas.output.molden at Mon May  9 05:54:28 EDT 2022

Generating link ln -s ./molcas.OrdInt ORDINT 
 -------------------- molden ------------------------
 --------------------------------------------------- 
 

 +++++++++++ STARTING GRADIENTS AND NAD. COUPLINGS CALCULATION +++++++++++ 

 Using new transition density code ... 
INFO: this is a frozen core gradient calculation
starting cidrt.x  -m 200000 < cidrtin.cigrd > cidrtls.cigrd at Mon May  9 05:54:50 EDT 2022

 -------------------- cidrt.x ------------------------
 total number of orbitals            :   246
 number of frozen core orbitals      :    18
 number of frozen virtual orbitals   :     0
 number of internal orbitals         :    14
 number of external orbitals         :   214
 spatial symmetry:   a  
 
 total number of configurations  282461366
 number of reference configurations  1666
 --------------------------------------------------- 
 starting tran.x -m 200000  at Mon May  9 05:54:57 EDT 2022

 -------------------- tran.x ------------------------
 --------------------------------------------------- 
 ---- Computing 8 gradient(s)  ----

 --- Computing gradient for DRT:1, State; 1

starting cigrd.x -m 200000 at Mon May  9 06:03:13 EDT 2022


 *** Error occured! ***

end of transci
 numv1=                284669
 numv1=                284669
end of transci
end of cidrt
 prnopt=                     0
end of tran
 allocate: status=                     0
 bummer (fatal):rdhcid: from sifrh1, ierr=-1
bummer
