[Molden Format]
[Atoms] AU
  N     1    7     0.0000000000    0.0000000000   -4.2907334100        
  C     2    6     0.0000000000    0.0000000000   -1.7772236300        
  C     3    6     0.0000000000   -2.3389203600   -0.4111016300        
  C     4    6     0.0000000000    2.3389203600   -0.4111016300        
  C     5    6     0.0000000000   -2.2998668500    2.1639215300        
  C     6    6     0.0000000000    2.2998668500    2.1639215300        
  C     7    6     0.0000000000    0.0000000000    3.4755251800        
  H     8    1     0.0000000000   -2.4124509000   -5.7790131500        
  H     9    1     0.0000000000    1.6528040300   -5.3103747800        
  H    10    1     0.0000000000   -4.0745407300   -1.4447408500        
  H    11    1     0.0000000000    4.0745407300   -1.4447408500        
  H    12    1     0.0000000000   -4.0420632100    3.1963889500        
  H    13    1     0.0000000000    4.0420632100    3.1963889500        
  H    14    1     0.0000000000    0.0000000000    5.5020335600        
[5D]
[7F]
[GTO]
  1  0
   s    12 1.00
  0.114200D+05  0.172695D-04
  0.171200D+04  0.134411D-03
  0.389300D+03  0.694561D-03
  0.110000D+03  0.278531D-02
  0.355700D+02  0.863457D-02
  0.125400D+02  0.199805D-01
  0.464400D+01  0.262908D-01
  0.129300D+01 -0.243845D-01
  0.511800D+00 -0.924934D-01
  0.178700D+00 -0.339683D+00
  0.246240D-01  0.345111D+00
  0.112530D-01  0.752750D+00
   s    10 1.00
  0.114200D+05  0.523000D-03
  0.171200D+04  0.404500D-02
  0.389300D+03  0.207750D-01
  0.110000D+03  0.807269D-01
  0.355700D+02  0.233074D+00
  0.125400D+02  0.433501D+00
  0.464400D+01  0.347472D+00
  0.129300D+01  0.412620D-01
  0.511800D+00 -0.850799D-02
  0.178700D+00  0.238400D-02
   s    10 1.00
  0.114200D+05 -0.115000D-03
  0.171200D+04 -0.895000D-03
  0.389300D+03 -0.462400D-02
  0.110000D+03 -0.185280D-01
  0.355700D+02 -0.573390D-01
  0.125400D+02 -0.132076D+00
  0.464400D+01 -0.172510D+00
  0.129300D+01  0.151814D+00
  0.511800D+00  0.599944D+00
  0.178700D+00  0.387462D+00
   s     1 1.00
  0.129300D+01  0.100000D+01
   s     1 1.00
  0.178700D+00  0.100000D+01
   p     5 1.00
  0.266300D+02  0.146700D-01
  0.594800D+01  0.917640D-01
  0.174200D+01  0.298683D+00
  0.555000D+00  0.498487D+00
  0.172500D+00  0.337023D+00
   p     1 1.00
  0.174200D+01  0.100000D+01
   p     1 1.00
  0.555000D+00  0.100000D+01
   d     1 1.00
  0.165400D+01  0.100000D+01
   d     1 1.00
  0.469000D+00  0.100000D+01
   f     1 1.00
  0.109300D+01  0.100000D+01
  
  2  0
   s    10 1.00
  0.823600D+04  0.531000D-03
  0.123500D+04  0.410800D-02
  0.280800D+03  0.210870D-01
  0.792700D+02  0.818530D-01
  0.255900D+02  0.234817D+00
  0.899700D+01  0.434401D+00
  0.331900D+01  0.346129D+00
  0.905900D+00  0.393780D-01
  0.364300D+00 -0.898300D-02
  0.128500D+00  0.238500D-02
   s    10 1.00
  0.823600D+04 -0.113000D-03
  0.123500D+04 -0.878000D-03
  0.280800D+03 -0.454000D-02
  0.792700D+02 -0.181330D-01
  0.255900D+02 -0.557600D-01
  0.899700D+01 -0.126895D+00
  0.331900D+01 -0.170352D+00
  0.905900D+00  0.140382D+00
  0.364300D+00  0.598684D+00
  0.128500D+00  0.395389D+00
   s     1 1.00
  0.905900D+00  0.100000D+01
   s     1 1.00
  0.364300D+00  0.100000D+01
   p     5 1.00
  0.187100D+02  0.140310D-01
  0.413300D+01  0.868660D-01
  0.120000D+01  0.290216D+00
  0.382700D+00  0.501008D+00
  0.120900D+00  0.343406D+00
   p     1 1.00
  0.382700D+00  0.100000D+01
   p     1 1.00
  0.120900D+00  0.100000D+01
   d     1 1.00
  0.109700D+01  0.100000D+01
   d     1 1.00
  0.318000D+00  0.100000D+01
   f     1 1.00
  0.761000D+00  0.100000D+01
  
  3  0
   s    10 1.00
  0.823600D+04  0.531000D-03
  0.123500D+04  0.410800D-02
  0.280800D+03  0.210870D-01
  0.792700D+02  0.818530D-01
  0.255900D+02  0.234817D+00
  0.899700D+01  0.434401D+00
  0.331900D+01  0.346129D+00
  0.905900D+00  0.393780D-01
  0.364300D+00 -0.898300D-02
  0.128500D+00  0.238500D-02
   s    10 1.00
  0.823600D+04 -0.113000D-03
  0.123500D+04 -0.878000D-03
  0.280800D+03 -0.454000D-02
  0.792700D+02 -0.181330D-01
  0.255900D+02 -0.557600D-01
  0.899700D+01 -0.126895D+00
  0.331900D+01 -0.170352D+00
  0.905900D+00  0.140382D+00
  0.364300D+00  0.598684D+00
  0.128500D+00  0.395389D+00
   s     1 1.00
  0.905900D+00  0.100000D+01
   s     1 1.00
  0.364300D+00  0.100000D+01
   p     5 1.00
  0.187100D+02  0.140310D-01
  0.413300D+01  0.868660D-01
  0.120000D+01  0.290216D+00
  0.382700D+00  0.501008D+00
  0.120900D+00  0.343406D+00
   p     1 1.00
  0.382700D+00  0.100000D+01
   p     1 1.00
  0.120900D+00  0.100000D+01
   d     1 1.00
  0.109700D+01  0.100000D+01
   d     1 1.00
  0.318000D+00  0.100000D+01
   f     1 1.00
  0.761000D+00  0.100000D+01
  
  4  0
   s    10 1.00
  0.823600D+04  0.531000D-03
  0.123500D+04  0.410800D-02
  0.280800D+03  0.210870D-01
  0.792700D+02  0.818530D-01
  0.255900D+02  0.234817D+00
  0.899700D+01  0.434401D+00
  0.331900D+01  0.346129D+00
  0.905900D+00  0.393780D-01
  0.364300D+00 -0.898300D-02
  0.128500D+00  0.238500D-02
   s    10 1.00
  0.823600D+04 -0.113000D-03
  0.123500D+04 -0.878000D-03
  0.280800D+03 -0.454000D-02
  0.792700D+02 -0.181330D-01
  0.255900D+02 -0.557600D-01
  0.899700D+01 -0.126895D+00
  0.331900D+01 -0.170352D+00
  0.905900D+00  0.140382D+00
  0.364300D+00  0.598684D+00
  0.128500D+00  0.395389D+00
   s     1 1.00
  0.905900D+00  0.100000D+01
   s     1 1.00
  0.364300D+00  0.100000D+01
   p     5 1.00
  0.187100D+02  0.140310D-01
  0.413300D+01  0.868660D-01
  0.120000D+01  0.290216D+00
  0.382700D+00  0.501008D+00
  0.120900D+00  0.343406D+00
   p     1 1.00
  0.382700D+00  0.100000D+01
   p     1 1.00
  0.120900D+00  0.100000D+01
   d     1 1.00
  0.109700D+01  0.100000D+01
   d     1 1.00
  0.318000D+00  0.100000D+01
   f     1 1.00
  0.761000D+00  0.100000D+01
  
  5  0
   s    10 1.00
  0.823600D+04  0.531000D-03
  0.123500D+04  0.410800D-02
  0.280800D+03  0.210870D-01
  0.792700D+02  0.818530D-01
  0.255900D+02  0.234817D+00
  0.899700D+01  0.434401D+00
  0.331900D+01  0.346129D+00
  0.905900D+00  0.393780D-01
  0.364300D+00 -0.898300D-02
  0.128500D+00  0.238500D-02
   s    10 1.00
  0.823600D+04 -0.113000D-03
  0.123500D+04 -0.878000D-03
  0.280800D+03 -0.454000D-02
  0.792700D+02 -0.181330D-01
  0.255900D+02 -0.557600D-01
  0.899700D+01 -0.126895D+00
  0.331900D+01 -0.170352D+00
  0.905900D+00  0.140382D+00
  0.364300D+00  0.598684D+00
  0.128500D+00  0.395389D+00
   s     1 1.00
  0.905900D+00  0.100000D+01
   s     1 1.00
  0.364300D+00  0.100000D+01
   p     5 1.00
  0.187100D+02  0.140310D-01
  0.413300D+01  0.868660D-01
  0.120000D+01  0.290216D+00
  0.382700D+00  0.501008D+00
  0.120900D+00  0.343406D+00
   p     1 1.00
  0.382700D+00  0.100000D+01
   p     1 1.00
  0.120900D+00  0.100000D+01
   d     1 1.00
  0.109700D+01  0.100000D+01
   d     1 1.00
  0.318000D+00  0.100000D+01
   f     1 1.00
  0.761000D+00  0.100000D+01
  
  6  0
   s    10 1.00
  0.823600D+04  0.531000D-03
  0.123500D+04  0.410800D-02
  0.280800D+03  0.210870D-01
  0.792700D+02  0.818530D-01
  0.255900D+02  0.234817D+00
  0.899700D+01  0.434401D+00
  0.331900D+01  0.346129D+00
  0.905900D+00  0.393780D-01
  0.364300D+00 -0.898300D-02
  0.128500D+00  0.238500D-02
   s    10 1.00
  0.823600D+04 -0.113000D-03
  0.123500D+04 -0.878000D-03
  0.280800D+03 -0.454000D-02
  0.792700D+02 -0.181330D-01
  0.255900D+02 -0.557600D-01
  0.899700D+01 -0.126895D+00
  0.331900D+01 -0.170352D+00
  0.905900D+00  0.140382D+00
  0.364300D+00  0.598684D+00
  0.128500D+00  0.395389D+00
   s     1 1.00
  0.905900D+00  0.100000D+01
   s     1 1.00
  0.364300D+00  0.100000D+01
   p     5 1.00
  0.187100D+02  0.140310D-01
  0.413300D+01  0.868660D-01
  0.120000D+01  0.290216D+00
  0.382700D+00  0.501008D+00
  0.120900D+00  0.343406D+00
   p     1 1.00
  0.382700D+00  0.100000D+01
   p     1 1.00
  0.120900D+00  0.100000D+01
   d     1 1.00
  0.109700D+01  0.100000D+01
   d     1 1.00
  0.318000D+00  0.100000D+01
   f     1 1.00
  0.761000D+00  0.100000D+01
  
  7  0
   s    10 1.00
  0.823600D+04  0.531000D-03
  0.123500D+04  0.410800D-02
  0.280800D+03  0.210870D-01
  0.792700D+02  0.818530D-01
  0.255900D+02  0.234817D+00
  0.899700D+01  0.434401D+00
  0.331900D+01  0.346129D+00
  0.905900D+00  0.393780D-01
  0.364300D+00 -0.898300D-02
  0.128500D+00  0.238500D-02
   s    10 1.00
  0.823600D+04 -0.113000D-03
  0.123500D+04 -0.878000D-03
  0.280800D+03 -0.454000D-02
  0.792700D+02 -0.181330D-01
  0.255900D+02 -0.557600D-01
  0.899700D+01 -0.126895D+00
  0.331900D+01 -0.170352D+00
  0.905900D+00  0.140382D+00
  0.364300D+00  0.598684D+00
  0.128500D+00  0.395389D+00
   s     1 1.00
  0.905900D+00  0.100000D+01
   s     1 1.00
  0.364300D+00  0.100000D+01
   p     5 1.00
  0.187100D+02  0.140310D-01
  0.413300D+01  0.868660D-01
  0.120000D+01  0.290216D+00
  0.382700D+00  0.501008D+00
  0.120900D+00  0.343406D+00
   p     1 1.00
  0.382700D+00  0.100000D+01
   p     1 1.00
  0.120900D+00  0.100000D+01
   d     1 1.00
  0.109700D+01  0.100000D+01
   d     1 1.00
  0.318000D+00  0.100000D+01
   f     1 1.00
  0.761000D+00  0.100000D+01
  
  8  0
   s     4 1.00
  0.130100D+02  0.196850D-01
  0.196200D+01  0.137977D+00
  0.444600D+00  0.478148D+00
  0.122000D+00  0.501240D+00
   s     1 1.00
  0.122000D+00  0.100000D+01
   p     1 1.00
  0.727000D+00  0.100000D+01
  
  9  0
   s     4 1.00
  0.130100D+02  0.196850D-01
  0.196200D+01  0.137977D+00
  0.444600D+00  0.478148D+00
  0.122000D+00  0.501240D+00
   s     1 1.00
  0.122000D+00  0.100000D+01
   p     1 1.00
  0.727000D+00  0.100000D+01
  
 10  0
   s     4 1.00
  0.130100D+02  0.196850D-01
  0.196200D+01  0.137977D+00
  0.444600D+00  0.478148D+00
  0.122000D+00  0.501240D+00
   s     1 1.00
  0.122000D+00  0.100000D+01
   p     1 1.00
  0.727000D+00  0.100000D+01
  
 11  0
   s     4 1.00
  0.130100D+02  0.196850D-01
  0.196200D+01  0.137977D+00
  0.444600D+00  0.478148D+00
  0.122000D+00  0.501240D+00
   s     1 1.00
  0.122000D+00  0.100000D+01
   p     1 1.00
  0.727000D+00  0.100000D+01
  
 12  0
   s     4 1.00
  0.130100D+02  0.196850D-01
  0.196200D+01  0.137977D+00
  0.444600D+00  0.478148D+00
  0.122000D+00  0.501240D+00
   s     1 1.00
  0.122000D+00  0.100000D+01
   p     1 1.00
  0.727000D+00  0.100000D+01
  
 13  0
   s     4 1.00
  0.130100D+02  0.196850D-01
  0.196200D+01  0.137977D+00
  0.444600D+00  0.478148D+00
  0.122000D+00  0.501240D+00
   s     1 1.00
  0.122000D+00  0.100000D+01
   p     1 1.00
  0.727000D+00  0.100000D+01
  
 14  0
   s     4 1.00
  0.130100D+02  0.196850D-01
  0.196200D+01  0.137977D+00
  0.444600D+00  0.478148D+00
  0.122000D+00  0.501240D+00
   s     1 1.00
  0.122000D+00  0.100000D+01
   p     1 1.00
  0.727000D+00  0.100000D+01
  
[MO]
 Sym= __1_a__
 Ene=  0.000000000000000E+000
 Spin= Alpha
 Occup=    2.00000000000000     
                     1  5.989133657899830E-005
                     2  0.998392561019383     
                     3  2.608903240444040E-003
                     4  1.777616387318890E-003
                     5  4.368533922944090E-003
                     6 -1.365635363533450E-011
                     7  2.932787075979800E-003
                     8  5.874909025030060E-003
                     9  1.068139884032350E-011
                    10 -5.552535541636280E-004
                    11 -4.380339004965180E-004
                    12  2.995818170861700E-012
                    13 -2.060281337471070E-003
                    14 -1.247140005521880E-003
                    15  2.374266696189376E-004
                    16 -5.824770610335720E-013
                    17 -8.081476668304850E-005
                    18 -1.722969032723460E-005
                    19  1.106944860731490E-013
                    20  1.120509518884988E-004
                    21 -1.225558226723460E-012
                    22  4.541812026876640E-004
                    23  3.394476340569260E-004
                    24 -2.476206300663390E-012
                    25 -1.368840698910338E-004
                    26  8.699857801712934E-013
                    27  1.310127350453110E-005
                    28  3.647029471460520E-005
                    29  3.146860797299360E-012
                    30  1.638363045979390E-012
                    31 -7.552224983285397E-006
                    32 -3.113847899093740E-004
                    33  1.582806305821460E-003
                    34  2.385293797080380E-004
                    35 -2.786799241257670E-004
                    36  8.826010041601049E-012
                    37 -1.730427628086960E-004
                    38 -5.012209079182080E-003
                    39 -9.587640700612530E-012
                    40  4.194100505160430E-004
                    41  2.529418817605960E-004
                    42  2.774642620807240E-012
                    43 -1.766606168001200E-003
                    44  5.079171567717540E-003
                    45  2.315921188144543E-004
                    46 -2.260472813399060E-012
                    47 -1.959369871437740E-005
                    48  1.063081138193026E-004
                    49 -5.862249182985470E-013
                    50  5.335525553934897E-005
                    51 -3.614429714248640E-012
                    52  6.567587341804030E-004
                    53 -3.015149899683440E-004
                    54  6.995026725802070E-012
                    55 -1.269685417367629E-004
                    56  3.573554061562199E-013
                    57  8.034206651691112E-006
                    58  4.403287017878580E-005
                    59  8.986663964068960E-013
                    60  1.127039331464541E-012
                    61 -1.299034088862682E-005
                    62 -4.215177657195430E-004
                    63 -2.015794541024040E-003
                    64 -6.888378433837630E-005
                    65  1.764720097757570E-003
                    66 -9.409848030362130E-012
                    67 -6.849725991133799E-004
                    68  5.084378808060870E-004
                    69  9.601487825286980E-012
                    70  3.715088466390850E-004
                    71  7.636205345899090E-004
                    72  3.514526689272530E-012
                    73 -1.528546272229840E-003
                    74  6.041391007164380E-004
                    75  8.813841675682094E-005
                    76  5.310516816634330E-013
                    77 -2.830262582652170E-005
                    78  8.694511785337899E-006
                    79 -2.560312019271370E-012
                    80 -1.489072568934938E-005
                    81 -2.552577951419690E-012
                    82  1.210423794451120E-004
                    83 -1.435036811445664E-004
                    84  7.035256668420570E-012
                    85 -1.383646271365056E-004
                    86 -3.846565210441589E-012
                    87 -2.529141818751344E-005
                    88  4.866767238284600E-005
                    89 -2.221072848868380E-012
                    90  8.459334879210888E-013
                    91  5.199327704563965E-006
                    92 -1.432299802798820E-004
                    93 -1.128097522648740E-003
                    94  1.902089499603610E-004
                    95 -1.908750869955740E-004
                    96  7.390275684006530E-012
                    97  6.100870209333390E-004
                    98  7.035035408803220E-004
                    99 -4.672205583617220E-012
                   100  3.684016188770640E-004
                   101  3.822054801701900E-004
                   102 -9.885429337986740E-012
                   103  4.595011964949400E-004
                   104 -1.178447784023860E-003
                   105  6.600715322729422E-005
                   106 -4.418861126464990E-013
                   107 -1.317623175642530E-005
                   108  3.390728370873760E-005
                   109  1.452730087528730E-012
                   110  2.588134664213732E-005
                   111  7.937525099238041E-012
                   112 -8.662744926597620E-005
                   113  1.356982037863778E-004
                   114  3.374847064484540E-013
                   115 -4.955251069763520E-005
                   116 -9.911450676608492E-013
                   117  1.857968482104021E-005
                   118 -1.897159617127600E-006
                   119 -1.211441637052020E-012
                   120  1.384508253036425E-012
                   121 -1.941283437323459E-005
                   122 -2.432885708434520E-004
                   123 -4.611033928366190E-004
                   124  1.587888170659900E-004
                   125  3.314780717040050E-004
                   126  5.956625370557620E-012
                   127 -3.604388588586550E-006
                   128 -5.536440308612460E-004
                   129 -2.772489014642140E-012
                   130  1.536834227999400E-004
                   131  5.532114987058250E-004
                   132 -5.613018278440470E-012
                   133  2.878698634800470E-004
                   134  1.729930439792130E-003
                   135 -3.940065902998309E-005
                   136  3.433251210067380E-012
                   137 -5.401362597828370E-008
                   138 -7.988966014500580E-006
                   139 -1.980710387540200E-012
                   140 -3.624348737625114E-004
                   141 -9.916796925084920E-012
                   142  2.335936951347230E-004
                   143 -4.418047615719040E-006
                   144 -4.270797109199450E-012
                   145 -6.763165614073882E-005
                   146 -1.383787733862952E-013
                   147 -1.169103488738799E-005
                   148 -1.663647280952876E-005
                   149 -2.414780328555630E-012
                   150  1.923400757222357E-012
                   151 -1.145930175749472E-005
                   152 -1.728452271209350E-004
                   153 -2.217440297876660E-004
                   154  5.024353702848180E-005
                   155  3.482350416280600E-004
                   156  2.249682857909770E-012
                   157 -2.866725517919420E-005
                   158 -5.221606738165969E-004
                   159 -1.586900916153050E-012
                   160  9.080465629212429E-006
                   161  9.860154186147941E-005
                   162  4.193005027198530E-012
                   163  6.355444381024070E-004
                   164 -7.795777523910930E-005
                   165  2.911939095794448E-006
                   166  3.137366472750940E-012
                   167  3.206375761753950E-006
                   168  1.024192704386460E-006
                   169  5.298490789076770E-012
                   170 -6.884419092330545E-005
                   171 -1.000151086645490E-012
                   172 -5.811026960475850E-005
                   173  4.199412742722060E-005
                   174 -6.590026010600370E-012
                   175 -1.779507950358067E-005
                   176 -2.876740799846354E-013
                   177 -1.831289144623995E-005
                   178 -2.048471597689080E-006
                   179 -5.405207399512390E-013
                   180  3.172379650674342E-012
                   181 -4.701030753604826E-007
                   182 -1.587932102527450E-004
                   183 -4.484142776879910E-004
                   184  4.508108976786110E-005
                   185  2.261134752894380E-004
                   186  6.052344468163090E-012
                   187 -3.122669159461940E-005
                   188 -5.240353351145930E-005
                   189  3.477585740240170E-012
                   190  1.650771809652790E-004
                   191  5.392886728814940E-005
                   192 -1.610120377103370E-012
                   193  1.029446744679540E-003
                   194 -1.117297787928400E-004
                   195  1.328552450663589E-005
                   196  3.261716683309520E-012
                   197  4.784679604561770E-006
                   198  6.141418327841780E-006
                   199  1.517040900056700E-012
                   200  6.133866246217685E-005
                   201  3.707105505983360E-013
                   202 -1.417899758477420E-004
                   203  5.744098883830340E-005
                   204 -9.752719111373130E-012
                   205 -7.870187095649490E-006
                   206  4.727752082503129E-013
                   207  8.484378137213038E-006
                   208 -9.789705481504959E-007
                   209  1.954076927905910E-012
                   210 -6.356886055946826E-013
                   211 -2.670995605606764E-006
                   212  1.151493234739350E-004
                   213 -6.286060035674220E-005
                   214 -1.062597962571850E-012
                   215  1.660601653434480E-004
                   216  1.612843638383280E-004
                   217  1.408144909450110E-003
                   218 -1.514139798810530E-003
                   219  1.766490404074090E-013
                   220 -3.907990559433220E-004
                   221  2.260755585395620E-004
                   222 -4.415482619677140E-004
                   223 -5.826614707059630E-004
                   224  1.225712743205280E-012
                   225  1.323838094636900E-006
                   226 -6.283272131008750E-005
                   227 -3.312245860801900E-004
                   228 -3.672490603527270E-004
                   229  2.454295780336790E-012
                   230 -3.217757668444110E-006
                   231 -2.386818936166270E-005
                   232 -9.325289694052499E-005
                   233 -5.116686450339680E-004
                   234 -4.407006856962300E-013
                   235  3.149702303107030E-006
                   236  7.409884865738440E-007
                   237 -1.704433621821300E-004
                   238 -4.139619821278220E-004
                   239 -2.147571669951290E-013
                   240  5.953810102003090E-006
                   241  3.109969044618150E-006
                   242  2.034948432845450E-005
                   243 -5.384546412519360E-005
                   244  2.171813360182320E-013
                   245 -5.429692283578590E-007
                   246  2.044949519674150E-005
 Sym= __2_a__
 Ene=  0.000000000000000E+000
 Spin= Alpha
 Occup=    2.00000000000000     
                     1 -4.866741582858510E-005
                     2 -3.256441164054340E-004
                     3  2.610585993197260E-003
                     4  1.467407734023450E-004
                     5  1.344908062730410E-003
                     6  8.225561448080040E-012
                     7 -3.124151573818520E-004
                     8  3.055348743729220E-003
                     9 -6.874110426356040E-012
                    10 -5.980835273575690E-005
                    11 -9.426070866790629E-005
                    12  3.630489524140560E-012
                    13  1.232729010313250E-004
                    14 -4.748802351316470E-004
                    15  2.955275988038168E-005
                    16 -6.080525671270520E-013
                    17  1.642179546228800E-006
                    18  5.892934881915460E-005
                    19 -8.601267968521370E-013
                    20 -1.237156468408288E-004
                    21  7.563404494487870E-012
                    22  1.442876646402750E-005
                    23 -2.232379930195620E-004
                    24  4.313509351323350E-012
                    25  1.679955155110217E-004
                    26  9.071020554927243E-013
                    27 -1.518504874898429E-005
                    28 -1.473371866076744E-005
                    29 -1.603507880832790E-012
                    30 -6.188376065530794E-013
                    31 -2.004855848457475E-005
                    32   1.00101940575695     
                    33  9.364248445891871E-003
                    34  2.726543617835720E-003
                    35 -8.076826971157089E-003
                    36 -9.384242526482800E-012
                    37 -1.000328351483230E-004
                    38 -3.645690705626130E-003
                    39  2.456787587979060E-012
                    40  9.557419497915350E-005
                    41  4.452940049511540E-004
                    42  4.195198536243460E-012
                    43  8.327877385306020E-005
                    44  4.268425236984200E-003
                    45  4.591525691258296E-004
                    46  2.032847732641010E-012
                    47 -7.564455749365870E-006
                    48 -3.963752182604880E-004
                    49  4.814140076471470E-013
                    50  5.496022751951280E-004
                    51  1.137231105599600E-011
                    52  8.001785013087710E-005
                    53  9.482487997351840E-004
                    54 -1.740486702242200E-012
                    55  3.797373035655718E-004
                    56 -1.533073917261643E-012
                    57 -1.657729077237523E-006
                    58 -1.763719550256534E-004
                    59 -7.028204181957690E-013
                    60 -1.878192379278444E-012
                    61 -2.266648555881264E-006
                    62  8.974538696466670E-003
                    63 -2.083517890680740E-003
                    64 -2.936896409196230E-004
                    65  3.094951036121850E-003
                    66 -2.163908058934500E-013
                    67 -1.436517518124620E-006
                    68  7.987880359995920E-005
                    69 -5.851793194421280E-012
                    70  7.372825900090080E-004
                    71 -2.524449085165070E-005
                    72 -1.582984559689360E-011
                    73 -2.054931746456450E-003
                    74  4.824979050751270E-005
                    75 -1.032287715276872E-005
                    76  8.145099877450360E-014
                    77  1.061756111090420E-006
                    78  2.385612846705760E-005
                    79 -7.173811391141370E-013
                    80  7.064613869929324E-004
                    81 -6.109434861885610E-012
                    82 -3.872017422508670E-004
                    83 -5.920211346874180E-005
                    84  8.013427783288460E-013
                    85  7.563381349307001E-005
                    86 -1.404589549467454E-012
                    87  4.317833472741058E-005
                    88 -1.327680576782572E-004
                    89  2.674686595160120E-013
                    90 -3.121670183731848E-012
                    91  4.664494441260345E-005
                    92  9.695039227150971E-003
                    93 -2.084174587287060E-003
                    94 -2.838407915382110E-004
                    95  3.043752069626840E-003
                    96  6.563602672338890E-012
                    97  3.502000783505680E-006
                    98  6.614570107628899E-005
                    99 -1.020962098766540E-011
                   100 -6.599427138661980E-004
                   101  3.292653757607270E-005
                   102  8.236691607331670E-012
                   103  2.081879206388890E-003
                   104  8.553355068657720E-005
                   105 -1.222364302985053E-005
                   106 -1.675840304293920E-012
                   107 -7.885367504386509E-006
                   108  2.768275706128860E-005
                   109 -7.055874246397830E-013
                   110  7.536115866579596E-004
                   111  9.387061386850510E-012
                   112  3.845610915465360E-004
                   113 -4.058508867380900E-005
                   114  7.651960615669920E-014
                   115  7.282991616554058E-005
                   116  1.569785717654490E-012
                   117 -4.151954028792221E-005
                   118 -1.306772546507992E-004
                   119  1.445465517688990E-012
                   120 -1.796532072568343E-012
                   121 -4.367566266484495E-005
                   122 -1.724226789987320E-004
                   123 -6.870114894441440E-004
                   124  2.223299132181850E-004
                   125 -8.946271028361040E-005
                   126 -6.845146124553320E-012
                   127 -4.334320281936300E-006
                   128 -3.199400093283030E-004
                   129  1.195660972714300E-012
                   130 -6.005931634790340E-005
                   131  5.241392408616280E-004
                   132  2.382279858269270E-011
                   133  3.000313406450390E-004
                   134  7.418807353350510E-004
                   135 -1.230119158938924E-005
                   136 -4.851860171435560E-013
                   137  5.232420548725770E-005
                   138  1.394831208368256E-005
                   139  2.031232866450980E-013
                   140 -2.744375792660890E-004
                   141 -7.729116212487510E-012
                   142 -1.819052087840280E-004
                   143 -3.636237637128780E-007
                   144  1.475965259060820E-012
                   145  2.041585020151145E-006
                   146 -1.567833961877860E-012
                   147 -4.794403196019486E-005
                   148 -4.404894445962280E-005
                   149  7.265167890109800E-013
                   150 -2.152435346089194E-012
                   151 -4.887118309699988E-006
                   152 -1.454291067824800E-004
                   153 -6.919828339715300E-004
                   154  2.285141507407000E-004
                   155 -1.278382446919010E-004
                   156 -7.354673069060209E-012
                   157  3.513973015704290E-006
                   158 -3.187860578180930E-004
                   159 -4.149729757132410E-013
                   160  3.629436825519170E-005