[Molden Format]
[Atoms] AU
  N     1    7     0.0000000000    0.0000000000   -4.2907334100        
  C     2    6     0.0000000000    0.0000000000   -1.7772236300        
  C     3    6     0.0000000000   -2.3389203600   -0.4111016300        
  C     4    6     0.0000000000    2.3389203600   -0.4111016300        
  C     5    6     0.0000000000   -2.2998668500    2.1639215300        
  C     6    6     0.0000000000    2.2998668500    2.1639215300        
  C     7    6     0.0000000000    0.0000000000    3.4755251800        
  H     8    1     0.0000000000   -2.4124509000   -5.7790131500        
  H     9    1     0.0000000000    1.6528040300   -5.3103747800        
  H    10    1     0.0000000000   -4.0745407300   -1.4447408500        
  H    11    1     0.0000000000    4.0745407300   -1.4447408500        
  H    12    1     0.0000000000   -4.0420632100    3.1963889500        
  H    13    1     0.0000000000    4.0420632100    3.1963889500        
  H    14    1     0.0000000000    0.0000000000    5.5020335600        
[5D]
[7F]
[GTO]
  1  0
   s    12 1.00
  0.114200D+05  0.172695D-04
  0.171200D+04  0.134411D-03
  0.389300D+03  0.694561D-03
  0.110000D+03  0.278531D-02
  0.355700D+02  0.863457D-02
  0.125400D+02  0.199805D-01
  0.464400D+01  0.262908D-01
  0.129300D+01 -0.243845D-01
  0.511800D+00 -0.924934D-01
  0.178700D+00 -0.339683D+00
  0.246240D-01  0.345111D+00
  0.112530D-01  0.752750D+00
   s    10 1.00
  0.114200D+05  0.523000D-03
  0.171200D+04  0.404500D-02
  0.389300D+03  0.207750D-01
  0.110000D+03  0.807269D-01
  0.355700D+02  0.233074D+00
  0.125400D+02  0.433501D+00
  0.464400D+01  0.347472D+00
  0.129300D+01  0.412620D-01
  0.511800D+00 -0.850799D-02
  0.178700D+00  0.238400D-02
   s    10 1.00
  0.114200D+05 -0.115000D-03
  0.171200D+04 -0.895000D-03
  0.389300D+03 -0.462400D-02
  0.110000D+03 -0.185280D-01
  0.355700D+02 -0.573390D-01
  0.125400D+02 -0.132076D+00
  0.464400D+01 -0.172510D+00
  0.129300D+01  0.151814D+00
  0.511800D+00  0.599944D+00
  0.178700D+00  0.387462D+00
   s     1 1.00
  0.129300D+01  0.100000D+01
   s     1 1.00
  0.178700D+00  0.100000D+01
   p     5 1.00
  0.266300D+02  0.146700D-01
  0.594800D+01  0.917640D-01
  0.174200D+01  0.298683D+00
  0.555000D+00  0.498487D+00
  0.172500D+00  0.337023D+00
   p     1 1.00
  0.174200D+01  0.100000D+01
   p     1 1.00
  0.555000D+00  0.100000D+01
   d     1 1.00
  0.165400D+01  0.100000D+01
   d     1 1.00
  0.469000D+00  0.100000D+01
   f     1 1.00
  0.109300D+01  0.100000D+01
  
  2  0
   s    10 1.00
  0.823600D+04  0.531000D-03
  0.123500D+04  0.410800D-02
  0.280800D+03  0.210870D-01
  0.792700D+02  0.818530D-01
  0.255900D+02  0.234817D+00
  0.899700D+01  0.434401D+00
  0.331900D+01  0.346129D+00
  0.905900D+00  0.393780D-01
  0.364300D+00 -0.898300D-02
  0.128500D+00  0.238500D-02
   s    10 1.00
  0.823600D+04 -0.113000D-03
  0.123500D+04 -0.878000D-03
  0.280800D+03 -0.454000D-02
  0.792700D+02 -0.181330D-01
  0.255900D+02 -0.557600D-01
  0.899700D+01 -0.126895D+00
  0.331900D+01 -0.170352D+00
  0.905900D+00  0.140382D+00
  0.364300D+00  0.598684D+00
  0.128500D+00  0.395389D+00
   s     1 1.00
  0.905900D+00  0.100000D+01
   s     1 1.00
  0.364300D+00  0.100000D+01
   p     5 1.00
  0.187100D+02  0.140310D-01
  0.413300D+01  0.868660D-01
  0.120000D+01  0.290216D+00
  0.382700D+00  0.501008D+00
  0.120900D+00  0.343406D+00
   p     1 1.00
  0.382700D+00  0.100000D+01
   p     1 1.00
  0.120900D+00  0.100000D+01
   d     1 1.00
  0.109700D+01  0.100000D+01
   d     1 1.00
  0.318000D+00  0.100000D+01
   f     1 1.00
  0.761000D+00  0.100000D+01
  
  3  0
   s    10 1.00
  0.823600D+04  0.531000D-03
  0.123500D+04  0.410800D-02
  0.280800D+03  0.210870D-01
  0.792700D+02  0.818530D-01
  0.255900D+02  0.234817D+00
  0.899700D+01  0.434401D+00
  0.331900D+01  0.346129D+00
  0.905900D+00  0.393780D-01
  0.364300D+00 -0.898300D-02
  0.128500D+00  0.238500D-02
   s    10 1.00
  0.823600D+04 -0.113000D-03
  0.123500D+04 -0.878000D-03
  0.280800D+03 -0.454000D-02
  0.792700D+02 -0.181330D-01
  0.255900D+02 -0.557600D-01
  0.899700D+01 -0.126895D+00
  0.331900D+01 -0.170352D+00
  0.905900D+00  0.140382D+00
  0.364300D+00  0.598684D+00
  0.128500D+00  0.395389D+00
   s     1 1.00
  0.905900D+00  0.100000D+01
   s     1 1.00
  0.364300D+00  0.100000D+01
   p     5 1.00
  0.187100D+02  0.140310D-01
  0.413300D+01  0.868660D-01
  0.120000D+01  0.290216D+00
  0.382700D+00  0.501008D+00
  0.120900D+00  0.343406D+00
   p     1 1.00
  0.382700D+00  0.100000D+01
   p     1 1.00
  0.120900D+00  0.100000D+01
   d     1 1.00
  0.109700D+01  0.100000D+01
   d     1 1.00
  0.318000D+00  0.100000D+01
   f     1 1.00
  0.761000D+00  0.100000D+01
  
  4  0
   s    10 1.00
  0.823600D+04  0.531000D-03
  0.123500D+04  0.410800D-02
  0.280800D+03  0.210870D-01
  0.792700D+02  0.818530D-01
  0.255900D+02  0.234817D+00
  0.899700D+01  0.434401D+00
  0.331900D+01  0.346129D+00
  0.905900D+00  0.393780D-01
  0.364300D+00 -0.898300D-02
  0.128500D+00  0.238500D-02
   s    10 1.00
  0.823600D+04 -0.113000D-03
  0.123500D+04 -0.878000D-03
  0.280800D+03 -0.454000D-02
  0.792700D+02 -0.181330D-01
  0.255900D+02 -0.557600D-01
  0.899700D+01 -0.126895D+00
  0.331900D+01 -0.170352D+00
  0.905900D+00  0.140382D+00
  0.364300D+00  0.598684D+00
  0.128500D+00  0.395389D+00
   s     1 1.00
  0.905900D+00  0.100000D+01
   s     1 1.00
  0.364300D+00  0.100000D+01
   p     5 1.00
  0.187100D+02  0.140310D-01
  0.413300D+01  0.868660D-01
  0.120000D+01  0.290216D+00
  0.382700D+00  0.501008D+00
  0.120900D+00  0.343406D+00
   p     1 1.00
  0.382700D+00  0.100000D+01
   p     1 1.00
  0.120900D+00  0.100000D+01
   d     1 1.00
  0.109700D+01  0.100000D+01
   d     1 1.00
  0.318000D+00  0.100000D+01
   f     1 1.00
  0.761000D+00  0.100000D+01
  
  5  0
   s    10 1.00
  0.823600D+04  0.531000D-03
  0.123500D+04  0.410800D-02
  0.280800D+03  0.210870D-01
  0.792700D+02  0.818530D-01
  0.255900D+02  0.234817D+00
  0.899700D+01  0.434401D+00
  0.331900D+01  0.346129D+00
  0.905900D+00  0.393780D-01
  0.364300D+00 -0.898300D-02
  0.128500D+00  0.238500D-02
   s    10 1.00
  0.823600D+04 -0.113000D-03
  0.123500D+04 -0.878000D-03
  0.280800D+03 -0.454000D-02
  0.792700D+02 -0.181330D-01
  0.255900D+02 -0.557600D-01
  0.899700D+01 -0.126895D+00
  0.331900D+01 -0.170352D+00
  0.905900D+00  0.140382D+00
  0.364300D+00  0.598684D+00
  0.128500D+00  0.395389D+00
   s     1 1.00
  0.905900D+00  0.100000D+01
   s     1 1.00
  0.364300D+00  0.100000D+01
   p     5 1.00
  0.187100D+02  0.140310D-01
  0.413300D+01  0.868660D-01
  0.120000D+01  0.290216D+00
  0.382700D+00  0.501008D+00
  0.120900D+00  0.343406D+00
   p     1 1.00
  0.382700D+00  0.100000D+01
   p     1 1.00
  0.120900D+00  0.100000D+01
   d     1 1.00
  0.109700D+01  0.100000D+01
   d     1 1.00
  0.318000D+00  0.100000D+01
   f     1 1.00
  0.761000D+00  0.100000D+01
  
  6  0
   s    10 1.00
  0.823600D+04  0.531000D-03
  0.123500D+04  0.410800D-02
  0.280800D+03  0.210870D-01
  0.792700D+02  0.818530D-01
  0.255900D+02  0.234817D+00
  0.899700D+01  0.434401D+00
  0.331900D+01  0.346129D+00
  0.905900D+00  0.393780D-01
  0.364300D+00 -0.898300D-02
  0.128500D+00  0.238500D-02
   s    10 1.00
  0.823600D+04 -0.113000D-03
  0.123500D+04 -0.878000D-03
  0.280800D+03 -0.454000D-02
  0.792700D+02 -0.181330D-01
  0.255900D+02 -0.557600D-01
  0.899700D+01 -0.126895D+00
  0.331900D+01 -0.170352D+00
  0.905900D+00  0.140382D+00
  0.364300D+00  0.598684D+00
  0.128500D+00  0.395389D+00
   s     1 1.00
  0.905900D+00  0.100000D+01
   s     1 1.00
  0.364300D+00  0.100000D+01
   p     5 1.00
  0.187100D+02  0.140310D-01
  0.413300D+01  0.868660D-01
  0.120000D+01  0.290216D+00
  0.382700D+00  0.501008D+00
  0.120900D+00  0.343406D+00
   p     1 1.00
  0.382700D+00  0.100000D+01
   p     1 1.00
  0.120900D+00  0.100000D+01
   d     1 1.00
  0.109700D+01  0.100000D+01
   d     1 1.00
  0.318000D+00  0.100000D+01
   f     1 1.00
  0.761000D+00  0.100000D+01
  
  7  0
   s    10 1.00
  0.823600D+04  0.531000D-03
  0.123500D+04  0.410800D-02
  0.280800D+03  0.210870D-01
  0.792700D+02  0.818530D-01
  0.255900D+02  0.234817D+00
  0.899700D+01  0.434401D+00
  0.331900D+01  0.346129D+00
  0.905900D+00  0.393780D-01
  0.364300D+00 -0.898300D-02
  0.128500D+00  0.238500D-02
   s    10 1.00
  0.823600D+04 -0.113000D-03
  0.123500D+04 -0.878000D-03
  0.280800D+03 -0.454000D-02
  0.792700D+02 -0.181330D-01
  0.255900D+02 -0.557600D-01
  0.899700D+01 -0.126895D+00
  0.331900D+01 -0.170352D+00
  0.905900D+00  0.140382D+00
  0.364300D+00  0.598684D+00
  0.128500D+00  0.395389D+00
   s     1 1.00
  0.905900D+00  0.100000D+01
   s     1 1.00
  0.364300D+00  0.100000D+01
   p     5 1.00
  0.187100D+02  0.140310D-01
  0.413300D+01  0.868660D-01
  0.120000D+01  0.290216D+00
  0.382700D+00  0.501008D+00
  0.120900D+00  0.343406D+00
   p     1 1.00
  0.382700D+00  0.100000D+01
   p     1 1.00
  0.120900D+00  0.100000D+01
   d     1 1.00
  0.109700D+01  0.100000D+01
   d     1 1.00
  0.318000D+00  0.100000D+01
   f     1 1.00
  0.761000D+00  0.100000D+01
  
  8  0
   s     4 1.00
  0.130100D+02  0.196850D-01
  0.196200D+01  0.137977D+00
  0.444600D+00  0.478148D+00
  0.122000D+00  0.501240D+00
   s     1 1.00
  0.122000D+00  0.100000D+01
   p     1 1.00
  0.727000D+00  0.100000D+01
  
  9  0
   s     4 1.00
  0.130100D+02  0.196850D-01
  0.196200D+01  0.137977D+00
  0.444600D+00  0.478148D+00
  0.122000D+00  0.501240D+00
   s     1 1.00
  0.122000D+00  0.100000D+01
   p     1 1.00
  0.727000D+00  0.100000D+01
  
 10  0
   s     4 1.00
  0.130100D+02  0.196850D-01
  0.196200D+01  0.137977D+00
  0.444600D+00  0.478148D+00
  0.122000D+00  0.501240D+00
   s     1 1.00
  0.122000D+00  0.100000D+01
   p     1 1.00
  0.727000D+00  0.100000D+01
  
 11  0
   s     4 1.00
  0.130100D+02  0.196850D-01
  0.196200D+01  0.137977D+00
  0.444600D+00  0.478148D+00
  0.122000D+00  0.501240D+00
   s     1 1.00
  0.122000D+00  0.100000D+01
   p     1 1.00
  0.727000D+00  0.100000D+01
  
 12  0
   s     4 1.00
  0.130100D+02  0.196850D-01
  0.196200D+01  0.137977D+00
  0.444600D+00  0.478148D+00
  0.122000D+00  0.501240D+00
   s     1 1.00
  0.122000D+00  0.100000D+01
   p     1 1.00
  0.727000D+00  0.100000D+01
  
 13  0
   s     4 1.00
  0.130100D+02  0.196850D-01
  0.196200D+01  0.137977D+00
  0.444600D+00  0.478148D+00
  0.122000D+00  0.501240D+00
   s     1 1.00
  0.122000D+00  0.100000D+01
   p     1 1.00
  0.727000D+00  0.100000D+01
  
 14  0
   s     4 1.00
  0.130100D+02  0.196850D-01
  0.196200D+01  0.137977D+00
  0.444600D+00  0.478148D+00
  0.122000D+00  0.501240D+00
   s     1 1.00
  0.122000D+00  0.100000D+01
   p     1 1.00
  0.727000D+00  0.100000D+01
  
[MO]
 Sym= __1_A__
 Ene=   1.00000000000000     
 Spin= Alpha
 Occup=    1.00000000000000     
                     1  5.989133657899833E-005
                     2  0.998392561019383     
                     3  2.608903240444041E-003
                     4  1.777616387318887E-003
                     5  4.368533922944093E-003
                     6 -1.365635363533454E-011
                     7  2.932787075979799E-003
                     8  5.874909025030059E-003
                     9  1.068139884032350E-011
                    10 -5.552535541636279E-004
                    11 -4.380339004965178E-004
                    12  2.995818170861698E-012
                    13 -2.060281337471066E-003
                    14 -1.247140005521881E-003
                    15  2.374266696189375E-004
                    16 -5.824770610335718E-013
                    17 -8.081476668304850E-005
                    18 -1.722969032723461E-005
                    19  1.106944860731490E-013
                    20  1.120509518884989E-004
                    21 -1.225558226723457E-012
                    22  4.541812026876636E-004
                    23  3.394476340569250E-004
                    24 -2.476206300663386E-012
                    25 -1.368840698910338E-004
                    26  8.699857801712953E-013
                    27  1.310127350453108E-005
                    28  3.647029471460524E-005
                    29  3.146860797299359E-012
                    30  1.638363045979383E-012
                    31 -7.552224983285387E-006
                    32 -3.113847899093739E-004
                    33  1.582806305821456E-003
                    34  2.385293797080380E-004
                    35 -2.786799241257671E-004
                    36  8.826010041601048E-012
                    37 -1.730427628086961E-004
                    38 -5.012209079182083E-003
                    39 -9.587640700612530E-012
                    40  4.194100505160427E-004
                    41  2.529418817605958E-004
                    42  2.774642620807243E-012
                    43 -1.766606168001198E-003
                    44  5.079171567717537E-003
                    45  2.315921188144543E-004
                    46 -2.260472813399057E-012
                    47 -1.959369871437742E-005
                    48  1.063081138193027E-004
                    49 -5.862249182985472E-013
                    50  5.335525553934903E-005
                    51 -3.614429714248643E-012
                    52  6.567587341804027E-004
                    53 -3.015149899683438E-004
                    54  6.995026725802069E-012
                    55 -1.269685417367629E-004
                    56  3.573554061562201E-013
                    57  8.034206651691130E-006
                    58  4.403287017878574E-005
                    59  8.986663964068956E-013
                    60  1.127039331464542E-012
                    61 -1.299034088862682E-005
                    62 -4.215177657195429E-004
                    63 -2.015794541024040E-003
                    64 -6.888378433837634E-005
                    65  1.764720097757566E-003
                    66 -9.409848030362126E-012
                    67 -6.849725991133795E-004
                    68  5.084378808060873E-004
                    69  9.601487825286983E-012
                    70  3.715088466390850E-004
                    71  7.636205345899092E-004
                    72  3.514526689272534E-012
                    73 -1.528546272229842E-003
                    74  6.041391007164384E-004
                    75  8.813841675682111E-005
                    76  5.310516816634335E-013
                    77 -2.830262582652171E-005
                    78  8.694511785337899E-006
                    79 -2.560312019271369E-012
                    80 -1.489072568934937E-005
                    81 -2.552577951419687E-012
                    82  1.210423794451116E-004
                    83 -1.435036811445664E-004
                    84  7.035256668420570E-012
                    85 -1.383646271365056E-004
                    86 -3.846565210441589E-012
                    87 -2.529141818751347E-005
                    88  4.866767238284596E-005
                    89 -2.221072848868379E-012
                    90  8.459334879210887E-013
                    91  5.199327704563965E-006
                    92 -1.432299802798820E-004
                    93 -1.128097522648737E-003
                    94  1.902089499603612E-004
                    95 -1.908750869955742E-004
                    96  7.390275684006533E-012
                    97  6.100870209333387E-004
                    98  7.035035408803216E-004
                    99 -4.672205583617217E-012
                   100  3.684016188770641E-004
                   101  3.822054801701896E-004
                   102 -9.885429337986737E-012
                   103  4.595011964949399E-004
                   104 -1.178447784023862E-003
                   105  6.600715322729429E-005
                   106 -4.418861126464987E-013
                   107 -1.317623175642526E-005
                   108  3.390728370873768E-005
                   109  1.452730087528726E-012
                   110  2.588134664213732E-005
                   111  7.937525099238036E-012
                   112 -8.662744926597624E-005
                   113  1.356982037863778E-004
                   114  3.374847064484536E-013
                   115 -4.955251069763525E-005
                   116 -9.911450676608516E-013
                   117  1.857968482104024E-005
                   118 -1.897159617127600E-006
                   119 -1.211441637052017E-012
                   120  1.384508253036426E-012
                   121 -1.941283437323461E-005
                   122 -2.432885708434518E-004
                   123 -4.611033928366194E-004
                   124  1.587888170659900E-004
                   125  3.314780717040050E-004
                   126  5.956625370557618E-012
                   127 -3.604388588586547E-006
                   128 -5.536440308612456E-004
                   129 -2.772489014642141E-012
                   130  1.536834227999395E-004
                   131  5.532114987058245E-004
                   132 -5.613018278440467E-012
                   133  2.878698634800469E-004
                   134  1.729930439792126E-003
                   135 -3.940065902998295E-005
                   136  3.433251210067379E-012
                   137 -5.401362597828365E-008
                   138 -7.988966014500589E-006
                   139 -1.980710387540202E-012
                   140 -3.624348737625110E-004
                   141 -9.916796925084921E-012
                   142  2.335936951347226E-004
                   143 -4.418047615719044E-006
                   144 -4.270797109199451E-012
                   145 -6.763165614073886E-005
                   146 -1.383787733862954E-013
                   147 -1.169103488738797E-005
                   148 -1.663647280952875E-005
                   149 -2.414780328555628E-012
                   150  1.923400757222365E-012
                   151 -1.145930175749470E-005
                   152 -1.728452271209349E-004
                   153 -2.217440297876662E-004
                   154  5.024353702848176E-005
                   155  3.482350416280599E-004
                   156  2.249682857909767E-012
                   157 -2.866725517919419E-005
                   158 -5.221606738165966E-004
                   159 -1.586900916153050E-012
                   160  9.080465629212429E-006
                   161  9.860154186147945E-005
                   162  4.193005027198535E-012
                   163  6.355444381024066E-004
                   164 -7.795777523910932E-005
                   165  2.911939095794446E-006
                   166  3.137366472750944E-012
                   167  3.206375761753947E-006
                   168  1.024192704386461E-006
                   169  5.298490789076773E-012
                   170 -6.884419092330548E-005
                   171 -1.000151086645491E-012
                   172 -5.811026960475846E-005
                   173  4.199412742722056E-005
                   174 -6.590026010600369E-012
                   175 -1.779507950358069E-005
                   176 -2.876740799846352E-013
                   177 -1.831289144623996E-005
                   178 -2.048471597689080E-006
                   179 -5.405207399512393E-013
                   180  3.172379650674343E-012
                   181 -4.701030753604827E-007
                   182 -1.587932102527448E-004
                   183 -4.484142776879907E-004
                   184  4.508108976786112E-005
                   185  2.261134752894382E-004
                   186  6.052344468163091E-012
                   187 -3.122669159461936E-005
                   188 -5.240353351145927E-005
                   189  3.477585740240169E-012
                   190  1.650771809652788E-004
                   191  5.392886728814945E-005
                   192 -1.610120377103370E-012
                   193  1.029446744679538E-003
                   194 -1.117297787928395E-004
                   195  1.328552450663588E-005
                   196  3.261716683309520E-012
                   197  4.784679604561773E-006
                   198  6.141418327841780E-006
                   199  1.517040900056699E-012
                   200  6.133866246217667E-005
                   201  3.707105505983359E-013
                   202 -1.417899758477419E-004
                   203  5.744098883830346E-005
                   204 -9.752719111373129E-012
                   205 -7.870187095649499E-006
                   206  4.727752082503132E-013
                   207  8.484378137213020E-006
                   208 -9.789705481504961E-007
                   209  1.954076927905911E-012
                   210 -6.356886055946832E-013
                   211 -2.670995605606765E-006
                   212  1.151493234739355E-004
                   213 -6.286060035674220E-005
                   214 -1.062597962571853E-012
                   215  1.660601653434475E-004
                   216  1.612843638383284E-004
                   217  1.408144909450107E-003
                   218 -1.514139798810527E-003
                   219  1.766490404074091E-013
                   220 -3.907990559433222E-004
                   221  2.260755585395620E-004
                   222 -4.415482619677140E-004
                   223 -5.826614707059631E-004
                   224  1.225712743205277E-012
                   225  1.323838094636904E-006
                   226 -6.283272131008748E-005
                   227 -3.312245860801903E-004
                   228 -3.672490603527273E-004
                   229  2.454295780336793E-012
                   230 -3.217757668444113E-006
                   231 -2.386818936166275E-005
                   232 -9.325289694052498E-005
                   233 -5.116686450339679E-004
                   234 -4.407006856962301E-013
                   235  3.149702303107034E-006
                   236  7.409884865738441E-007
                   237 -1.704433621821298E-004
                   238 -4.139619821278216E-004
                   239 -2.147571669951291E-013
                   240  5.953810102003087E-006
                   241  3.109969044618153E-006
                   242  2.034948432845454E-005
                   243 -5.384546412519360E-005
                   244  2.171813360182320E-013
                   245 -5.429692283578586E-007
                   246  2.044949519674147E-005
 Sym= __2_A__
 Ene=   2.00000000000000     
 Spin= Alpha
 Occup=    1.00000000000000     
                     1 -4.866741582858511E-005
                     2 -3.256441164054335E-004
                     3  2.610585993197262E-003
                     4  1.467407734023454E-004
                     5  1.344908062730415E-003
                     6  8.225561448080037E-012
                     7 -3.124151573818518E-004
                     8  3.055348743729224E-003
                     9 -6.874110426356037E-012
                    10 -5.980835273575686E-005
                    11 -9.426070866790625E-005
                    12  3.630489524140557E-012
                    13  1.232729010313254E-004
                    14 -4.748802351316466E-004
                    15  2.955275988038168E-005
                    16 -6.080525671270516E-013
                    17  1.642179546228795E-006
                    18  5.892934881915458E-005
                    19 -8.601267968521373E-013
                    20 -1.237156468408289E-004
                    21  7.563404494487869E-012
                    22  1.442876646402753E-005
                    23 -2.232379930195622E-004
                    24  4.313509351323345E-012
                    25  1.679955155110216E-004
                    26  9.071020554927224E-013
                    27 -1.518504874898430E-005
                    28 -1.473371866076743E-005
                    29 -1.603507880832785E-012
                    30 -6.188376065530797E-013
                    31 -2.004855848457475E-005
                    32   1.00101940575695     
                    33  9.364248445891872E-003
                    34  2.726543617835725E-003
                    35 -8.076826971157093E-003
                    36 -9.384242526482797E-012
                    37 -1.000328351483235E-004
                    38 -3.645690705626127E-003
                    39  2.456787587979055E-012
                    40  9.557419497915351E-005
                    41  4.452940049511545E-004
                    42  4.195198536243457E-012
                    43  8.327877385306019E-005
                    44  4.268425236984204E-003
                    45  4.591525691258298E-004
                    46  2.032847732641012E-012
                    47 -7.564455749365871E-006
                    48 -3.963752182604888E-004
                    49  4.814140076471472E-013
                    50  5.496022751951263E-004
                    51  1.137231105599603E-011
                    52  8.001785013087709E-005
                    53  9.482487997351832E-004
                    54 -1.740486702242200E-012
                    55  3.797373035655721E-004
                    56 -1.533073917261640E-012
                    57 -1.657729077237523E-006
                    58 -1.763719550256533E-004
                    59 -7.028204181957694E-013
                    60 -1.878192379278445E-012
                    61 -2.266648555881262E-006
                    62  8.974538696466666E-003
                    63 -2.083517890680738E-003
                    64 -2.936896409196230E-004
                    65  3.094951036121849E-003
                    66 -2.163908058934502E-013
                    67 -1.436517518124619E-006
                    68  7.987880359995921E-005
                    69 -5.851793194421280E-012
                    70  7.372825900090084E-004
                    71 -2.524449085165075E-005
                    72 -1.582984559689362E-011
                    73 -2.054931746456452E-003
                    74  4.824979050751272E-005
                    75 -1.032287715276872E-005
                    76  8.145099877450355E-014
                    77  1.061756111090417E-006
                    78  2.385612846705750E-005
                    79 -7.173811391141370E-013
                    80  7.064613869929334E-004
                    81 -6.109434861885613E-012
                    82 -3.872017422508666E-004
                    83 -5.920211346874172E-005
                    84  8.013427783288457E-013
                    85  7.563381349307004E-005
                    86 -1.404589549467457E-012
                    87  4.317833472741054E-005
                    88 -1.327680576782572E-004
                    89  2.674686595160125E-013
                    90 -3.121670183731851E-012
                    91  4.664494441260346E-005
                    92  9.695039227150969E-003
                    93 -2.084174587287055E-003
                    94 -2.838407915382107E-004
                    95  3.043752069626842E-003
                    96  6.563602672338886E-012
                    97  3.502000783505682E-006
                    98  6.614570107628899E-005
                    99 -1.020962098766540E-011
                   100 -6.599427138661982E-004
                   101  3.292653757607270E-005
                   102  8.236691607331667E-012
                   103  2.081879206388893E-003
                   104  8.553355068657723E-005
                   105 -1.222364302985052E-005
                   106 -1.675840304293920E-012
                   107 -7.885367504386513E-006
                   108  2.768275706128858E-005
                   109 -7.055874246397826E-013
                   110  7.536115866579610E-004
                   111  9.387061386850511E-012
                   112  3.845610915465358E-004
                   113 -4.058508867380904E-005
                   114  7.651960615669925E-014
                   115  7.282991616554063E-005
                   116  1.569785717654492E-012
                   117 -4.151954028792220E-005
                   118 -1.306772546507992E-004
                   119  1.445465517688992E-012
                   120 -1.796532072568346E-012
                   121 -4.367566266484494E-005
                   122 -1.724226789987317E-004
                   123 -6.870114894441442E-004
                   124  2.223299132181849E-004
                   125 -8.946271028361042E-005
                   126 -6.845146124553316E-012
                   127 -4.334320281936302E-006
                   128 -3.199400093283025E-004
                   129  1.195660972714301E-012
                   130 -6.005931634790337E-005
                   131  5.241392408616276E-004
                   132  2.382279858269272E-011
                   133  3.000313406450392E-004
                   134  7.418807353350510E-004
                   135 -1.230119158938925E-005
                   136 -4.851860171435558E-013
                   137  5.232420548725766E-005
                   138  1.394831208368256E-005
                   139  2.031232866450976E-013
                   140 -2.744375792660891E-004
                   141 -7.729116212487505E-012
                   142 -1.819052087840276E-004
                   143 -3.636237637128776E-007
                   144  1.475965259060824E-012
                   145  2.041585020151145E-006
                   146 -1.567833961877858E-012
                   147 -4.794403196019486E-005
                   148 -4.404894445962276E-005
                   149  7.265167890109796E-013
                   150 -2.152435346089186E-012
                   151 -4.887118309699987E-006
                   152 -1.454291067824800E-004
                   153 -6.919828339715305E-004
                   154  2.285141507406997E-004
                   155 -1.278382446919011E-004
                   156 -7.354673069060213E-012
                   157  3.513973015704290E-006
                   158 -3.187860578180932E-004
                   159 -4.149729757132406E-013
                   160  3.629436825519173E-005