[Molden Format]
[Atoms] AU
  N     1    7    -4.4667020200    0.2087891900   -0.0021899400        
  C     2    6    -1.7670196500   -0.0218957400   -0.0083141000        
  C     3    6    -0.4240787900   -0.0029362600   -2.2750398700        
  C     4    6    -0.4316823100   -0.0208890600    2.2628487500        
  C     5    6     2.1908962200    0.0029641600   -2.2581538100        
  C     6    6     2.1857978000   -0.0054297900    2.2563386300        
  C     7    6     3.5124445100    0.0047195900    0.0021402700        
  H     8    1    -5.2489878300   -1.0397500200   -1.7259973900        
  H     9    1    -5.1704284300   -0.7272529300    1.5500100200        
  H    10    1    -1.4274718400    0.0121912200   -4.0369045500        
  H    11    1    -1.4377610000   -0.0325609900    4.0239406600        
  H    12    1     3.1977168100    0.0074870600   -4.0200121300        
  H    13    1     3.1858511500   -0.0098528900    4.0220314200        
  H    14    1     5.5404830800    0.0099047800    0.0046356200        
[5D]
[7F]
[GTO]
  1  0
   s    12 1.00
  0.114200D+05  0.172695D-04
  0.171200D+04  0.134411D-03
  0.389300D+03  0.694561D-03
  0.110000D+03  0.278531D-02
  0.355700D+02  0.863457D-02
  0.125400D+02  0.199805D-01
  0.464400D+01  0.262908D-01
  0.129300D+01 -0.243845D-01
  0.511800D+00 -0.924934D-01
  0.178700D+00 -0.339683D+00
  0.246240D-01  0.345111D+00
  0.112530D-01  0.752750D+00
   s    10 1.00
  0.114200D+05  0.523000D-03
  0.171200D+04  0.404500D-02
  0.389300D+03  0.207750D-01
  0.110000D+03  0.807269D-01
  0.355700D+02  0.233074D+00
  0.125400D+02  0.433501D+00
  0.464400D+01  0.347472D+00
  0.129300D+01  0.412620D-01
  0.511800D+00 -0.850799D-02
  0.178700D+00  0.238400D-02
   s    10 1.00
  0.114200D+05 -0.115000D-03
  0.171200D+04 -0.895000D-03
  0.389300D+03 -0.462400D-02
  0.110000D+03 -0.185280D-01
  0.355700D+02 -0.573390D-01
  0.125400D+02 -0.132076D+00
  0.464400D+01 -0.172510D+00
  0.129300D+01  0.151814D+00
  0.511800D+00  0.599944D+00
  0.178700D+00  0.387462D+00
   s     1 1.00
  0.129300D+01  0.100000D+01
   s     1 1.00
  0.178700D+00  0.100000D+01
   p     5 1.00
  0.266300D+02  0.146700D-01
  0.594800D+01  0.917640D-01
  0.174200D+01  0.298683D+00
  0.555000D+00  0.498487D+00
  0.172500D+00  0.337023D+00
   p     1 1.00
  0.174200D+01  0.100000D+01
   p     1 1.00
  0.555000D+00  0.100000D+01
   d     1 1.00
  0.165400D+01  0.100000D+01
   d     1 1.00
  0.469000D+00  0.100000D+01
   f     1 1.00
  0.109300D+01  0.100000D+01
  
  2  0
   s    10 1.00
  0.823600D+04  0.531000D-03
  0.123500D+04  0.410800D-02
  0.280800D+03  0.210870D-01
  0.792700D+02  0.818530D-01
  0.255900D+02  0.234817D+00
  0.899700D+01  0.434401D+00
  0.331900D+01  0.346129D+00
  0.905900D+00  0.393780D-01
  0.364300D+00 -0.898300D-02
  0.128500D+00  0.238500D-02
   s    10 1.00
  0.823600D+04 -0.113000D-03
  0.123500D+04 -0.878000D-03
  0.280800D+03 -0.454000D-02
  0.792700D+02 -0.181330D-01
  0.255900D+02 -0.557600D-01
  0.899700D+01 -0.126895D+00
  0.331900D+01 -0.170352D+00
  0.905900D+00  0.140382D+00
  0.364300D+00  0.598684D+00
  0.128500D+00  0.395389D+00
   s     1 1.00
  0.905900D+00  0.100000D+01
   s     1 1.00
  0.364300D+00  0.100000D+01
   p     5 1.00
  0.187100D+02  0.140310D-01
  0.413300D+01  0.868660D-01
  0.120000D+01  0.290216D+00
  0.382700D+00  0.501008D+00
  0.120900D+00  0.343406D+00
   p     1 1.00
  0.382700D+00  0.100000D+01
   p     1 1.00
  0.120900D+00  0.100000D+01
   d     1 1.00
  0.109700D+01  0.100000D+01
   d     1 1.00
  0.318000D+00  0.100000D+01
   f     1 1.00
  0.761000D+00  0.100000D+01
  
  3  0
   s    10 1.00
  0.823600D+04  0.531000D-03
  0.123500D+04  0.410800D-02
  0.280800D+03  0.210870D-01
  0.792700D+02  0.818530D-01
  0.255900D+02  0.234817D+00
  0.899700D+01  0.434401D+00
  0.331900D+01  0.346129D+00
  0.905900D+00  0.393780D-01
  0.364300D+00 -0.898300D-02
  0.128500D+00  0.238500D-02
   s    10 1.00
  0.823600D+04 -0.113000D-03
  0.123500D+04 -0.878000D-03
  0.280800D+03 -0.454000D-02
  0.792700D+02 -0.181330D-01
  0.255900D+02 -0.557600D-01
  0.899700D+01 -0.126895D+00
  0.331900D+01 -0.170352D+00
  0.905900D+00  0.140382D+00
  0.364300D+00  0.598684D+00
  0.128500D+00  0.395389D+00
   s     1 1.00
  0.905900D+00  0.100000D+01
   s     1 1.00
  0.364300D+00  0.100000D+01
   p     5 1.00
  0.187100D+02  0.140310D-01
  0.413300D+01  0.868660D-01
  0.120000D+01  0.290216D+00
  0.382700D+00  0.501008D+00
  0.120900D+00  0.343406D+00
   p     1 1.00
  0.382700D+00  0.100000D+01
   p     1 1.00
  0.120900D+00  0.100000D+01
   d     1 1.00
  0.109700D+01  0.100000D+01
   d     1 1.00
  0.318000D+00  0.100000D+01
   f     1 1.00
  0.761000D+00  0.100000D+01
  
  4  0
   s    10 1.00
  0.823600D+04  0.531000D-03
  0.123500D+04  0.410800D-02
  0.280800D+03  0.210870D-01
  0.792700D+02  0.818530D-01
  0.255900D+02  0.234817D+00
  0.899700D+01  0.434401D+00
  0.331900D+01  0.346129D+00
  0.905900D+00  0.393780D-01
  0.364300D+00 -0.898300D-02
  0.128500D+00  0.238500D-02
   s    10 1.00
  0.823600D+04 -0.113000D-03
  0.123500D+04 -0.878000D-03
  0.280800D+03 -0.454000D-02
  0.792700D+02 -0.181330D-01
  0.255900D+02 -0.557600D-01
  0.899700D+01 -0.126895D+00
  0.331900D+01 -0.170352D+00
  0.905900D+00  0.140382D+00
  0.364300D+00  0.598684D+00
  0.128500D+00  0.395389D+00
   s     1 1.00
  0.905900D+00  0.100000D+01
   s     1 1.00
  0.364300D+00  0.100000D+01
   p     5 1.00
  0.187100D+02  0.140310D-01
  0.413300D+01  0.868660D-01
  0.120000D+01  0.290216D+00
  0.382700D+00  0.501008D+00
  0.120900D+00  0.343406D+00
   p     1 1.00
  0.382700D+00  0.100000D+01
   p     1 1.00
  0.120900D+00  0.100000D+01
   d     1 1.00
  0.109700D+01  0.100000D+01
   d     1 1.00
  0.318000D+00  0.100000D+01
   f     1 1.00
  0.761000D+00  0.100000D+01
  
  5  0
   s    10 1.00
  0.823600D+04  0.531000D-03
  0.123500D+04  0.410800D-02
  0.280800D+03  0.210870D-01
  0.792700D+02  0.818530D-01
  0.255900D+02  0.234817D+00
  0.899700D+01  0.434401D+00
  0.331900D+01  0.346129D+00
  0.905900D+00  0.393780D-01
  0.364300D+00 -0.898300D-02
  0.128500D+00  0.238500D-02
   s    10 1.00
  0.823600D+04 -0.113000D-03
  0.123500D+04 -0.878000D-03
  0.280800D+03 -0.454000D-02
  0.792700D+02 -0.181330D-01
  0.255900D+02 -0.557600D-01
  0.899700D+01 -0.126895D+00
  0.331900D+01 -0.170352D+00
  0.905900D+00  0.140382D+00
  0.364300D+00  0.598684D+00
  0.128500D+00  0.395389D+00
   s     1 1.00
  0.905900D+00  0.100000D+01
   s     1 1.00
  0.364300D+00  0.100000D+01
   p     5 1.00
  0.187100D+02  0.140310D-01
  0.413300D+01  0.868660D-01
  0.120000D+01  0.290216D+00
  0.382700D+00  0.501008D+00
  0.120900D+00  0.343406D+00
   p     1 1.00
  0.382700D+00  0.100000D+01
   p     1 1.00
  0.120900D+00  0.100000D+01
   d     1 1.00
  0.109700D+01  0.100000D+01
   d     1 1.00
  0.318000D+00  0.100000D+01
   f     1 1.00
  0.761000D+00  0.100000D+01
  
  6  0
   s    10 1.00
  0.823600D+04  0.531000D-03
  0.123500D+04  0.410800D-02
  0.280800D+03  0.210870D-01
  0.792700D+02  0.818530D-01
  0.255900D+02  0.234817D+00
  0.899700D+01  0.434401D+00
  0.331900D+01  0.346129D+00
  0.905900D+00  0.393780D-01
  0.364300D+00 -0.898300D-02
  0.128500D+00  0.238500D-02
   s    10 1.00
  0.823600D+04 -0.113000D-03
  0.123500D+04 -0.878000D-03
  0.280800D+03 -0.454000D-02
  0.792700D+02 -0.181330D-01
  0.255900D+02 -0.557600D-01
  0.899700D+01 -0.126895D+00
  0.331900D+01 -0.170352D+00
  0.905900D+00  0.140382D+00
  0.364300D+00  0.598684D+00
  0.128500D+00  0.395389D+00
   s     1 1.00
  0.905900D+00  0.100000D+01
   s     1 1.00
  0.364300D+00  0.100000D+01
   p     5 1.00
  0.187100D+02  0.140310D-01
  0.413300D+01  0.868660D-01
  0.120000D+01  0.290216D+00
  0.382700D+00  0.501008D+00
  0.120900D+00  0.343406D+00
   p     1 1.00
  0.382700D+00  0.100000D+01
   p     1 1.00
  0.120900D+00  0.100000D+01
   d     1 1.00
  0.109700D+01  0.100000D+01
   d     1 1.00
  0.318000D+00  0.100000D+01
   f     1 1.00
  0.761000D+00  0.100000D+01
  
  7  0
   s    10 1.00
  0.823600D+04  0.531000D-03
  0.123500D+04  0.410800D-02
  0.280800D+03  0.210870D-01
  0.792700D+02  0.818530D-01
  0.255900D+02  0.234817D+00
  0.899700D+01  0.434401D+00
  0.331900D+01  0.346129D+00
  0.905900D+00  0.393780D-01
  0.364300D+00 -0.898300D-02
  0.128500D+00  0.238500D-02
   s    10 1.00
  0.823600D+04 -0.113000D-03
  0.123500D+04 -0.878000D-03
  0.280800D+03 -0.454000D-02
  0.792700D+02 -0.181330D-01
  0.255900D+02 -0.557600D-01
  0.899700D+01 -0.126895D+00
  0.331900D+01 -0.170352D+00
  0.905900D+00  0.140382D+00
  0.364300D+00  0.598684D+00
  0.128500D+00  0.395389D+00
   s     1 1.00
  0.905900D+00  0.100000D+01
   s     1 1.00
  0.364300D+00  0.100000D+01
   p     5 1.00
  0.187100D+02  0.140310D-01
  0.413300D+01  0.868660D-01
  0.120000D+01  0.290216D+00
  0.382700D+00  0.501008D+00
  0.120900D+00  0.343406D+00
   p     1 1.00
  0.382700D+00  0.100000D+01
   p     1 1.00
  0.120900D+00  0.100000D+01
   d     1 1.00
  0.109700D+01  0.100000D+01
   d     1 1.00
  0.318000D+00  0.100000D+01
   f     1 1.00
  0.761000D+00  0.100000D+01
  
  8  0
   s     4 1.00
  0.130100D+02  0.196850D-01
  0.196200D+01  0.137977D+00
  0.444600D+00  0.478148D+00
  0.122000D+00  0.501240D+00
   s     1 1.00
  0.122000D+00  0.100000D+01
   p     1 1.00
  0.727000D+00  0.100000D+01
  
  9  0
   s     4 1.00
  0.130100D+02  0.196850D-01
  0.196200D+01  0.137977D+00
  0.444600D+00  0.478148D+00
  0.122000D+00  0.501240D+00
   s     1 1.00
  0.122000D+00  0.100000D+01
   p     1 1.00
  0.727000D+00  0.100000D+01
  
 10  0
   s     4 1.00
  0.130100D+02  0.196850D-01
  0.196200D+01  0.137977D+00
  0.444600D+00  0.478148D+00
  0.122000D+00  0.501240D+00
   s     1 1.00
  0.122000D+00  0.100000D+01
   p     1 1.00
  0.727000D+00  0.100000D+01
  
 11  0
   s     4 1.00
  0.130100D+02  0.196850D-01
  0.196200D+01  0.137977D+00
  0.444600D+00  0.478148D+00
  0.122000D+00  0.501240D+00
   s     1 1.00
  0.122000D+00  0.100000D+01
   p     1 1.00
  0.727000D+00  0.100000D+01
  
 12  0
   s     4 1.00
  0.130100D+02  0.196850D-01
  0.196200D+01  0.137977D+00
  0.444600D+00  0.478148D+00
  0.122000D+00  0.501240D+00
   s     1 1.00
  0.122000D+00  0.100000D+01
   p     1 1.00
  0.727000D+00  0.100000D+01
  
 13  0
   s     4 1.00
  0.130100D+02  0.196850D-01
  0.196200D+01  0.137977D+00
  0.444600D+00  0.478148D+00
  0.122000D+00  0.501240D+00
   s     1 1.00
  0.122000D+00  0.100000D+01
   p     1 1.00
  0.727000D+00  0.100000D+01
  
 14  0
   s     4 1.00
  0.130100D+02  0.196850D-01
  0.196200D+01  0.137977D+00
  0.444600D+00  0.478148D+00
  0.122000D+00  0.501240D+00
   s     1 1.00
  0.122000D+00  0.100000D+01
   p     1 1.00
  0.727000D+00  0.100000D+01
  
[MO]
 Sym= __1_a__
 Ene=  0.000000000000000E+000
 Spin= Alpha
 Occup=    2.00000000000000     
                     1  2.265012221852920E-004
                     2  0.998327246734510     
                     3  1.173236806679060E-003
                     4  1.634999473704130E-003
                     5  6.430450279168210E-003
                     6  6.085894986463250E-003
                     7 -5.605948718197680E-003
                     8  5.355462060166510E-004
                     9 -9.193241291700060E-004
                    10  4.755487238316610E-004
                    11 -2.624005850681800E-005
                    12 -1.845985515314260E-003
                    13  3.574114087390690E-003
                    14 -3.728561742086170E-004
                    15 -4.254728497695241E-005
                    16 -3.722516705391200E-005
                    17 -5.991500420879220E-005
                    18  6.582161293634659E-005
                    19  3.085243961318310E-005
                    20 -3.561164414823008E-004
                    21  5.870256050389710E-005
                    22 -2.487385473835430E-005
                    23  6.990962153792360E-005
                    24 -5.120168862181260E-004
                    25 -9.351350492200275E-007
                    26 -1.083300118704546E-004
                    27 -3.052877450256926E-005
                    28 -1.604511887351256E-005
                    29  2.148985635420290E-005
                    30 -7.658857469565003E-005
                    31 -6.125457934055000E-005
                    32 -3.868709482444240E-004
                    33  5.266633134899350E-004
                    34  2.821866173073640E-004
                    35 -1.309727817648180E-004
                    36 -3.551779083673900E-003
                    37 -1.536493337813850E-004
                    38 -4.473384263718640E-005
                    39  1.835141987480000E-004
                    40 -3.649108893866840E-006
                    41  9.534365274912050E-005
                    42  5.007671886314030E-003
                    43  7.636329800029150E-004
                    44 -4.051002118023080E-004
                    45 -1.980795368968781E-004
                    46 -5.249308990824990E-006
                    47  1.243440529354340E-006
                    48  1.854499636488436E-004
                    49  4.704639708910750E-005
                    50  5.391117932135171E-004
                    51  9.080684617473329E-005
                    52 -3.689194012840070E-006
                    53 -1.514312145579760E-004
                    54 -3.744906816070370E-004
                    55  4.499642542748955E-006
                    56 -4.785912457962350E-005
                    57  8.275356839060299E-006
                    58  9.225505931841379E-006
                    59 -3.588642758714760E-007
                    60 -3.563672639906295E-005
                    61  3.764320688182019E-005
                    62 -4.209430783038860E-004
                    63 -1.814104822834820E-003
                    64  9.570246232371200E-005
                    65  1.041963772519920E-003
                    66  3.625464445360420E-004
                    67 -1.620331722052290E-004
                    68 -4.887171233614470E-004
                    69  6.331539836094010E-004
                    70  9.162583857773419E-005
                    71  1.980941834766620E-004
                    72 -2.275010345876080E-004
                    73 -3.376459701586410E-004
                    74 -1.050663064675950E-003
                    75 -6.548106892662778E-005
                    76 -1.759585439698910E-005
                    77  1.623113110618650E-005
                    78  6.416686263628359E-005
                    79 -1.012844614372240E-005
                    80  2.475611571107656E-004
                    81  1.921816933048530E-004
                    82 -2.855548849058550E-005
                    83 -1.492688181944886E-004
                    84  6.276952898787300E-005
                    85 -1.576729366804982E-005
                    86 -6.024487666073535E-005
                    87  2.091427853974792E-005
                    88 -7.730483352037660E-006
                    89  1.454091283013670E-005
                    90 -4.610399250488210E-005
                    91 -1.250848353516419E-005
                    92 -3.668138035761820E-004
                    93 -1.666997561618990E-003
                    94  1.352126255124260E-004
                    95  6.979501003130700E-004
                    96  4.089722914040210E-004
                    97 -1.628639987136520E-004
                    98  4.882846223876840E-004
                    99  5.924550866727081E-004
                   100  9.824883843797831E-005
                   101 -6.532395493169691E-005
                   102 -7.772481963636370E-004
                   103 -3.573900579818250E-004
                   104  7.787732693192320E-004
                   105 -6.976977386013731E-005
                   106  1.008148657890600E-005
                   107 -1.584927334379880E-005
                   108  5.898890721341000E-005
                   109 -1.176594466391410E-005
                   110  1.944469051557128E-004
                   111 -1.809777181072890E-004
                   112  2.525843144233720E-005
                   113 -1.595381362827204E-004
                   114  7.405204981343360E-005
                   115  1.136285177988551E-005
                   116 -4.459844325600281E-005
                   117  2.066438646326013E-005
                   118  9.057650692299580E-006
                   119 -1.459537976595900E-005
                   120 -3.998748414003062E-005
                   121 -1.156449324157688E-005
                   122 -2.220040778374040E-004
                   123 -4.942689975540500E-004
                   124  4.751226008535330E-005
                   125  7.087156129587430E-004
                   126 -4.224862386415380E-004
                   127 -5.653327610724070E-005
                   128  1.230724236918500E-005
                   129  2.270982798618070E-004
                   130 -3.258658136906170E-005
                   131  3.794638559651340E-005
                   132  1.153228444004940E-003
                   133  1.679355310179510E-004
                   134 -1.741958074295700E-004
                   135  7.506797719601369E-006
                   136 -9.344034292205680E-007
                   137 -5.124381783023730E-006
                   138  9.186663748527580E-007
                   139  1.082158477883470E-005
                   140  9.720394882992947E-005
                   141  2.161206227085860E-004
                   142  1.143238347220680E-005
                   143 -2.080218304889840E-004
                   144 -1.182055927459480E-005
                   145 -1.551479552627667E-005
                   146 -1.462915851559908E-005
                   147  3.033763962125886E-006
                   148 -5.941042017135740E-006
                   149 -1.283321046937530E-006
                   150 -5.026238097893909E-005
                   151 -2.640587358665544E-006
                   152 -1.995349618507250E-004
                   153 -4.133201804535790E-004
                   154  3.779970256678700E-005
                   155  6.363813364066650E-004
                   156 -4.215978337924030E-004
                   157 -5.464629211952320E-005
                   158 -2.223907154885110E-005
                   159  1.510927152219870E-004
                   160 -3.806978376593340E-005
                   161  1.343744735389590E-005
                   162  6.270664280156700E-004
                   163  1.668321039419090E-004
                   164  4.192087462791320E-004
                   165  2.886653764338202E-006
                   166  1.402352365366390E-006
                   167  5.022608319442010E-006
                   168  3.761301744338940E-006
                   169  1.091932617851970E-005
                   170  5.452637476121066E-005
                   171 -1.702467300308520E-004
                   172 -1.114937031098250E-005
                   173 -1.683484504821050E-004
                   174 -6.511483512885550E-006
                   175  8.837017269114809E-006
                   176 -1.485183990740929E-005
                   177  3.575811271414923E-006
                   178  2.824108965005040E-006
                   179  7.518539995469640E-007
                   180 -4.284345309729636E-005
                   181 -3.707090926363737E-006
                   182 -1.344294216855530E-004
                   183 -4.163903534544750E-004
                   184  2.882057695134190E-005
                   185  1.760256854793660E-004
                   186 -2.342709875983950E-005
                   187 -5.174824452111990E-005
                   188 -9.684943700463020E-006
                   189  1.084738246930780E-004
                   190  1.962176876776160E-005
                   191  4.947096245586620E-005
                   192 -4.361811870854050E-004
                   193 -1.127412443523080E-004
                   194  2.929514288409490E-004
                   195 -6.647931607430428E-006
                   196 -1.259208490911860E-007
                   197  1.954177496623490E-007
                   198  2.139512730767620E-006
                   199 -1.641349769013620E-006
                   200 -1.207733491806927E-004
                   201 -3.855513902294500E-005
                   202 -1.056982853825510E-006
                   203  6.425192439746640E-005
                   204  1.843929592431910E-005
                   205  9.303634438464163E-007
                   206  3.060750429487534E-006
                   207  2.834065845233464E-006
                   208  3.272017821836780E-006
                   209 -8.206444375639799E-009
                   210 -5.810252606420696E-006
                   211 -3.054137526443069E-006
                   212  1.100492159133210E-003
                   213 -1.125665579244350E-003
                   214  1.260662779707620E-004
                   215  2.906831741181610E-004
                   216  2.468574017773730E-004
                   217  1.836966622371620E-003
                   218 -1.837398525328790E-003
                   219  1.451197196115440E-004
                   220  2.980808378691980E-004
                   221 -3.077421350874580E-004
                   222 -4.038143303098730E-004
                   223 -4.319365089315800E-004
                   224 -6.806491756942701E-005
                   225  1.058576928270010E-005
                   226  5.298147752449680E-005
                   227 -3.915369878615970E-004
                   228 -3.930132213086540E-004
                   229 -5.930038160758360E-005
                   230  1.148383128352680E-005
                   231 -5.519347451899310E-005
                   232 -6.597275387202000E-005
                   233 -5.136400482842560E-004
                   234  4.894959711957140E-006
                   235 -1.530045154504300E-006
                   236 -8.784095030848029E-006
                   237 -8.155969462834240E-005
                   238 -4.809128258919930E-004
                   239  5.892724294554650E-006
                   240 -1.889183384702390E-006
                   241  9.305301694536151E-006
                   242 -1.120080765031010E-005
                   243  1.474475435057830E-004
                   244  3.330054993634830E-005
                   245  2.394362220723540E-006
                   246 -4.412616188130840E-007
 Sym= __2_a__
 Ene=  0.000000000000000E+000
 Spin= Alpha
 Occup=    2.00000000000000     
                     1 -1.937791921048950E-005
                     2 -9.406305587715309E-005
                     3  2.180099440700860E-003
                     4 -1.820235930153470E-005
                     5  1.189239915341670E-003
                     6  1.841903347272320E-003
                     7  1.615111909407450E-004
                     8 -9.398603185683841E-005
                     9 -1.462818610657840E-004
                    10  1.232462243253250E-004
                    11 -9.410570919611461E-006
                    12  8.022154169334510E-005
                    13  6.926396650694881E-005
                    14  8.059555610514970E-006
                    15 -6.916665694442416E-005
                    16 -8.931565910320810E-007
                    17 -7.360691288578360E-007
                    18  4.545193739394380E-005
                    19 -6.310888109928440E-006
                    20  1.259071645563493E-004
                    21  2.075509540853850E-005
                    22  1.205182489007160E-005
                    23  1.168678787649904E-004
                    24 -3.351091312267290E-005
                    25 -6.199578305564137E-006
                    26  1.373451306777805E-004
                    27 -5.354477325296936E-005
                    28  2.259724508399760E-006
                    29 -5.149809344436770E-006
                    30  1.162964991079255E-004
                    31  3.990271527295877E-005
                    32   1.00094699208510     
                    33  8.736084267149740E-003
                    34  2.790994375894870E-003
                    35 -8.268800892262880E-003
                    36 -2.462333498250290E-003
                    37  7.166520153125329E-004
                    38  6.712486517256260E-006
                    39  1.027694674877740E-003
                    40 -2.375691999998540E-004
                    41  1.129747264970160E-005
                    42  3.336663386989120E-003
                    43 -1.310460002893850E-004
                    44  1.181601445375450E-006
                    45  3.005868372852677E-004
                    46 -4.285127793083140E-006
                    47 -1.432095188834890E-006
                    48  3.992882247268340E-004
                    49 -3.211865636536430E-005
                    50 -1.033504392467763E-003
                    51  4.353290572777890E-005
                    52  4.767908779344320E-006
                    53 -1.134696234785968E-004
                    54  5.474822939249030E-005
                    55  1.253425960004004E-006
                    56  2.978829219175436E-004
                    57 -8.633414027422345E-006
                    58  9.269383704990980E-007
                    59 -9.898748062668560E-007
                    60  7.764197879564932E-005
                    61  2.035967713196555E-005
                    62  1.313934515773440E-002
                    63 -1.844735130976440E-003
                    64 -3.167059365790080E-004
                    65  3.166583132659070E-003
                    66 -1.358222977333830E-004
                    67  1.294856253862170E-004
                    68  2.545964682033280E-004
                    69  2.184208575589280E-005
                    70 -6.264864071849050E-006
                    71  5.428995593775960E-004
                    72  1.594575036243120E-004
                    73 -3.331072561167720E-005
                    74 -1.785058018278140E-003
                    75 -8.944380486786911E-006
                    76  2.234479527101850E-005
                    77  9.805928275016560E-006
                    78 -3.397883029997400E-005
                    79 -4.654782252510340E-006
                    80 -3.976420593194229E-004
                    81 -4.654482172961600E-004
                    82 -7.134084068007870E-006
                    83  7.501144307027380E-004
                    84 -6.810116850367050E-007
                    85  4.849024155501192E-005
                    86  1.038287584559989E-004
                    87  1.908964892284692E-007
                    88 -1.940513605060484E-005
                    89 -7.997454402397820E-006
                    90 -3.117571656014825E-005
                    91  5.307309261400251E-006
                    92  1.354817563008140E-002
                    93 -1.826464126178850E-003
                    94 -3.096324004017010E-004
                    95  3.110550806045350E-003
                    96 -1.379475041138870E-004
                    97  1.307039124661900E-004
                    98 -2.564742962129040E-004
                    99  2.651961901949720E-005
                   100  2.546621212542920E-006
                   101 -5.075467749743510E-004
                   102  1.622777931861120E-004
                   103 -4.514750493030350E-005
                   104  1.819168581615340E-003
                   105 -8.755819330798493E-006
                   106 -2.429358867555110E-005
                   107 -9.049515554052739E-006
                   108 -3.573323558434740E-005
                   109 -4.539600393497370E-006
                   110 -4.220268977977055E-004
                   111  4.724737227889130E-004
                   112  4.855920061776890E-006
                   113  7.611808917033100E-004
                   114 -3.638585237868660E-006
                   115 -5.142664794526339E-005
                   116  1.056777151511939E-004
                   117 -9.828242961299585E-007
                   118  1.749778849846438E-005
                   119  7.040882617542710E-006
                   120 -3.021354341695064E-005
                   121  5.773971675172303E-006
                   122 -1.256544040043270E-004
                   123 -7.021736763839270E-004
                   124  2.516506019040540E-004
                   125 -3.190895646471050E-004
                   126 -1.988051106344470E-004
                   127  2.643721180696980E-005
                   128 -4.250951419811120E-005
                   129  5.966183242282260E-004
                   130 -3.094889700796660E-007
                   131  4.102296612186480E-005
                   132  5.632413692265230E-004
                   133  7.026428143722900E-006
                   134  3.300315536187000E-004
                   135  2.739682088425883E-007
                   136  4.155350320204240E-005
                   137  1.487389386004080E-007
                   138 -3.461177262669640E-005
                   139 -1.674914205745740E-006
                   140  1.908861800886779E-004
                   141 -2.613090013378580E-004
                   142  4.058834544992380E-006
                   143 -2.638269672968520E-004
                   144 -5.130729652453860E-006
                   145 -1.749254133013234E-005
                   146  1.212234133705515E-005
                   147  4.847444295312244E-008
                   148 -1.200133904904518E-005
                   149 -2.565823550943500E-006
                   150 -2.635408621874166E-005
                   151 -2.267548510494058E-007
                   152 -1.218480001323360E-004
                   153 -7.032707320826770E-004
                   154  2.514376732079120E-004
                   155 -3.293135669562820E-004
                   156 -1.960766533763240E-004
                   157  2.421470335814290E-005
                   158  4.247472594010580E-005
                   159  6.018079980183240E-004
                   160  3.367471403433040E-006