[Molden Format]
[Atoms] AU
  N     1    7    -4.4667020200    0.2087891900   -0.0021899400        
  C     2    6    -1.7670196500   -0.0218957400   -0.0083141000        
  C     3    6    -0.4240787900   -0.0029362600   -2.2750398700        
  C     4    6    -0.4316823100   -0.0208890600    2.2628487500        
  C     5    6     2.1908962200    0.0029641600   -2.2581538100        
  C     6    6     2.1857978000   -0.0054297900    2.2563386300        
  C     7    6     3.5124445100    0.0047195900    0.0021402700        
  H     8    1    -5.2489878300   -1.0397500200   -1.7259973900        
  H     9    1    -5.1704284300   -0.7272529300    1.5500100200        
  H    10    1    -1.4274718400    0.0121912200   -4.0369045500        
  H    11    1    -1.4377610000   -0.0325609900    4.0239406600        
  H    12    1     3.1977168100    0.0074870600   -4.0200121300        
  H    13    1     3.1858511500   -0.0098528900    4.0220314200        
  H    14    1     5.5404830800    0.0099047800    0.0046356200        
[5D]
[7F]
[GTO]
  1  0
   s    12 1.00
  0.114200D+05  0.172695D-04
  0.171200D+04  0.134411D-03
  0.389300D+03  0.694561D-03
  0.110000D+03  0.278531D-02
  0.355700D+02  0.863457D-02
  0.125400D+02  0.199805D-01
  0.464400D+01  0.262908D-01
  0.129300D+01 -0.243845D-01
  0.511800D+00 -0.924934D-01
  0.178700D+00 -0.339683D+00
  0.246240D-01  0.345111D+00
  0.112530D-01  0.752750D+00
   s    10 1.00
  0.114200D+05  0.523000D-03
  0.171200D+04  0.404500D-02
  0.389300D+03  0.207750D-01
  0.110000D+03  0.807269D-01
  0.355700D+02  0.233074D+00
  0.125400D+02  0.433501D+00
  0.464400D+01  0.347472D+00
  0.129300D+01  0.412620D-01
  0.511800D+00 -0.850799D-02
  0.178700D+00  0.238400D-02
   s    10 1.00
  0.114200D+05 -0.115000D-03
  0.171200D+04 -0.895000D-03
  0.389300D+03 -0.462400D-02
  0.110000D+03 -0.185280D-01
  0.355700D+02 -0.573390D-01
  0.125400D+02 -0.132076D+00
  0.464400D+01 -0.172510D+00
  0.129300D+01  0.151814D+00
  0.511800D+00  0.599944D+00
  0.178700D+00  0.387462D+00
   s     1 1.00
  0.129300D+01  0.100000D+01
   s     1 1.00
  0.178700D+00  0.100000D+01
   p     5 1.00
  0.266300D+02  0.146700D-01
  0.594800D+01  0.917640D-01
  0.174200D+01  0.298683D+00
  0.555000D+00  0.498487D+00
  0.172500D+00  0.337023D+00
   p     1 1.00
  0.174200D+01  0.100000D+01
   p     1 1.00
  0.555000D+00  0.100000D+01
   d     1 1.00
  0.165400D+01  0.100000D+01
   d     1 1.00
  0.469000D+00  0.100000D+01
   f     1 1.00
  0.109300D+01  0.100000D+01
  
  2  0
   s    10 1.00
  0.823600D+04  0.531000D-03
  0.123500D+04  0.410800D-02
  0.280800D+03  0.210870D-01
  0.792700D+02  0.818530D-01
  0.255900D+02  0.234817D+00
  0.899700D+01  0.434401D+00
  0.331900D+01  0.346129D+00
  0.905900D+00  0.393780D-01
  0.364300D+00 -0.898300D-02
  0.128500D+00  0.238500D-02
   s    10 1.00
  0.823600D+04 -0.113000D-03
  0.123500D+04 -0.878000D-03
  0.280800D+03 -0.454000D-02
  0.792700D+02 -0.181330D-01
  0.255900D+02 -0.557600D-01
  0.899700D+01 -0.126895D+00
  0.331900D+01 -0.170352D+00
  0.905900D+00  0.140382D+00
  0.364300D+00  0.598684D+00
  0.128500D+00  0.395389D+00
   s     1 1.00
  0.905900D+00  0.100000D+01
   s     1 1.00
  0.364300D+00  0.100000D+01
   p     5 1.00
  0.187100D+02  0.140310D-01
  0.413300D+01  0.868660D-01
  0.120000D+01  0.290216D+00
  0.382700D+00  0.501008D+00
  0.120900D+00  0.343406D+00
   p     1 1.00
  0.382700D+00  0.100000D+01
   p     1 1.00
  0.120900D+00  0.100000D+01
   d     1 1.00
  0.109700D+01  0.100000D+01
   d     1 1.00
  0.318000D+00  0.100000D+01
   f     1 1.00
  0.761000D+00  0.100000D+01
  
  3  0
   s    10 1.00
  0.823600D+04  0.531000D-03
  0.123500D+04  0.410800D-02
  0.280800D+03  0.210870D-01
  0.792700D+02  0.818530D-01
  0.255900D+02  0.234817D+00
  0.899700D+01  0.434401D+00
  0.331900D+01  0.346129D+00
  0.905900D+00  0.393780D-01
  0.364300D+00 -0.898300D-02
  0.128500D+00  0.238500D-02
   s    10 1.00
  0.823600D+04 -0.113000D-03
  0.123500D+04 -0.878000D-03
  0.280800D+03 -0.454000D-02
  0.792700D+02 -0.181330D-01
  0.255900D+02 -0.557600D-01
  0.899700D+01 -0.126895D+00
  0.331900D+01 -0.170352D+00
  0.905900D+00  0.140382D+00
  0.364300D+00  0.598684D+00
  0.128500D+00  0.395389D+00
   s     1 1.00
  0.905900D+00  0.100000D+01
   s     1 1.00
  0.364300D+00  0.100000D+01
   p     5 1.00
  0.187100D+02  0.140310D-01
  0.413300D+01  0.868660D-01
  0.120000D+01  0.290216D+00
  0.382700D+00  0.501008D+00
  0.120900D+00  0.343406D+00
   p     1 1.00
  0.382700D+00  0.100000D+01
   p     1 1.00
  0.120900D+00  0.100000D+01
   d     1 1.00
  0.109700D+01  0.100000D+01
   d     1 1.00
  0.318000D+00  0.100000D+01
   f     1 1.00
  0.761000D+00  0.100000D+01
  
  4  0
   s    10 1.00
  0.823600D+04  0.531000D-03
  0.123500D+04  0.410800D-02
  0.280800D+03  0.210870D-01
  0.792700D+02  0.818530D-01
  0.255900D+02  0.234817D+00
  0.899700D+01  0.434401D+00
  0.331900D+01  0.346129D+00
  0.905900D+00  0.393780D-01
  0.364300D+00 -0.898300D-02
  0.128500D+00  0.238500D-02
   s    10 1.00
  0.823600D+04 -0.113000D-03
  0.123500D+04 -0.878000D-03
  0.280800D+03 -0.454000D-02
  0.792700D+02 -0.181330D-01
  0.255900D+02 -0.557600D-01
  0.899700D+01 -0.126895D+00
  0.331900D+01 -0.170352D+00
  0.905900D+00  0.140382D+00
  0.364300D+00  0.598684D+00
  0.128500D+00  0.395389D+00
   s     1 1.00
  0.905900D+00  0.100000D+01
   s     1 1.00
  0.364300D+00  0.100000D+01
   p     5 1.00
  0.187100D+02  0.140310D-01
  0.413300D+01  0.868660D-01
  0.120000D+01  0.290216D+00
  0.382700D+00  0.501008D+00
  0.120900D+00  0.343406D+00
   p     1 1.00
  0.382700D+00  0.100000D+01
   p     1 1.00
  0.120900D+00  0.100000D+01
   d     1 1.00
  0.109700D+01  0.100000D+01
   d     1 1.00
  0.318000D+00  0.100000D+01
   f     1 1.00
  0.761000D+00  0.100000D+01
  
  5  0
   s    10 1.00
  0.823600D+04  0.531000D-03
  0.123500D+04  0.410800D-02
  0.280800D+03  0.210870D-01
  0.792700D+02  0.818530D-01
  0.255900D+02  0.234817D+00
  0.899700D+01  0.434401D+00
  0.331900D+01  0.346129D+00
  0.905900D+00  0.393780D-01
  0.364300D+00 -0.898300D-02
  0.128500D+00  0.238500D-02
   s    10 1.00
  0.823600D+04 -0.113000D-03
  0.123500D+04 -0.878000D-03
  0.280800D+03 -0.454000D-02
  0.792700D+02 -0.181330D-01
  0.255900D+02 -0.557600D-01
  0.899700D+01 -0.126895D+00
  0.331900D+01 -0.170352D+00
  0.905900D+00  0.140382D+00
  0.364300D+00  0.598684D+00
  0.128500D+00  0.395389D+00
   s     1 1.00
  0.905900D+00  0.100000D+01
   s     1 1.00
  0.364300D+00  0.100000D+01
   p     5 1.00
  0.187100D+02  0.140310D-01
  0.413300D+01  0.868660D-01
  0.120000D+01  0.290216D+00
  0.382700D+00  0.501008D+00
  0.120900D+00  0.343406D+00
   p     1 1.00
  0.382700D+00  0.100000D+01
   p     1 1.00
  0.120900D+00  0.100000D+01
   d     1 1.00
  0.109700D+01  0.100000D+01
   d     1 1.00
  0.318000D+00  0.100000D+01
   f     1 1.00
  0.761000D+00  0.100000D+01
  
  6  0
   s    10 1.00
  0.823600D+04  0.531000D-03
  0.123500D+04  0.410800D-02
  0.280800D+03  0.210870D-01
  0.792700D+02  0.818530D-01
  0.255900D+02  0.234817D+00
  0.899700D+01  0.434401D+00
  0.331900D+01  0.346129D+00
  0.905900D+00  0.393780D-01
  0.364300D+00 -0.898300D-02
  0.128500D+00  0.238500D-02
   s    10 1.00
  0.823600D+04 -0.113000D-03
  0.123500D+04 -0.878000D-03
  0.280800D+03 -0.454000D-02
  0.792700D+02 -0.181330D-01
  0.255900D+02 -0.557600D-01
  0.899700D+01 -0.126895D+00
  0.331900D+01 -0.170352D+00
  0.905900D+00  0.140382D+00
  0.364300D+00  0.598684D+00
  0.128500D+00  0.395389D+00
   s     1 1.00
  0.905900D+00  0.100000D+01
   s     1 1.00
  0.364300D+00  0.100000D+01
   p     5 1.00
  0.187100D+02  0.140310D-01
  0.413300D+01  0.868660D-01
  0.120000D+01  0.290216D+00
  0.382700D+00  0.501008D+00
  0.120900D+00  0.343406D+00
   p     1 1.00
  0.382700D+00  0.100000D+01
   p     1 1.00
  0.120900D+00  0.100000D+01
   d     1 1.00
  0.109700D+01  0.100000D+01
   d     1 1.00
  0.318000D+00  0.100000D+01
   f     1 1.00
  0.761000D+00  0.100000D+01
  
  7  0
   s    10 1.00
  0.823600D+04  0.531000D-03
  0.123500D+04  0.410800D-02
  0.280800D+03  0.210870D-01
  0.792700D+02  0.818530D-01
  0.255900D+02  0.234817D+00
  0.899700D+01  0.434401D+00
  0.331900D+01  0.346129D+00
  0.905900D+00  0.393780D-01
  0.364300D+00 -0.898300D-02
  0.128500D+00  0.238500D-02
   s    10 1.00
  0.823600D+04 -0.113000D-03
  0.123500D+04 -0.878000D-03
  0.280800D+03 -0.454000D-02
  0.792700D+02 -0.181330D-01
  0.255900D+02 -0.557600D-01
  0.899700D+01 -0.126895D+00
  0.331900D+01 -0.170352D+00
  0.905900D+00  0.140382D+00
  0.364300D+00  0.598684D+00
  0.128500D+00  0.395389D+00
   s     1 1.00
  0.905900D+00  0.100000D+01
   s     1 1.00
  0.364300D+00  0.100000D+01
   p     5 1.00
  0.187100D+02  0.140310D-01
  0.413300D+01  0.868660D-01
  0.120000D+01  0.290216D+00
  0.382700D+00  0.501008D+00
  0.120900D+00  0.343406D+00
   p     1 1.00
  0.382700D+00  0.100000D+01
   p     1 1.00
  0.120900D+00  0.100000D+01
   d     1 1.00
  0.109700D+01  0.100000D+01
   d     1 1.00
  0.318000D+00  0.100000D+01
   f     1 1.00
  0.761000D+00  0.100000D+01
  
  8  0
   s     4 1.00
  0.130100D+02  0.196850D-01
  0.196200D+01  0.137977D+00
  0.444600D+00  0.478148D+00
  0.122000D+00  0.501240D+00
   s     1 1.00
  0.122000D+00  0.100000D+01
   p     1 1.00
  0.727000D+00  0.100000D+01
  
  9  0
   s     4 1.00
  0.130100D+02  0.196850D-01
  0.196200D+01  0.137977D+00
  0.444600D+00  0.478148D+00
  0.122000D+00  0.501240D+00
   s     1 1.00
  0.122000D+00  0.100000D+01
   p     1 1.00
  0.727000D+00  0.100000D+01
  
 10  0
   s     4 1.00
  0.130100D+02  0.196850D-01
  0.196200D+01  0.137977D+00
  0.444600D+00  0.478148D+00
  0.122000D+00  0.501240D+00
   s     1 1.00
  0.122000D+00  0.100000D+01
   p     1 1.00
  0.727000D+00  0.100000D+01
  
 11  0
   s     4 1.00
  0.130100D+02  0.196850D-01
  0.196200D+01  0.137977D+00
  0.444600D+00  0.478148D+00
  0.122000D+00  0.501240D+00
   s     1 1.00
  0.122000D+00  0.100000D+01
   p     1 1.00
  0.727000D+00  0.100000D+01
  
 12  0
   s     4 1.00
  0.130100D+02  0.196850D-01
  0.196200D+01  0.137977D+00
  0.444600D+00  0.478148D+00
  0.122000D+00  0.501240D+00
   s     1 1.00
  0.122000D+00  0.100000D+01
   p     1 1.00
  0.727000D+00  0.100000D+01
  
 13  0
   s     4 1.00
  0.130100D+02  0.196850D-01
  0.196200D+01  0.137977D+00
  0.444600D+00  0.478148D+00
  0.122000D+00  0.501240D+00
   s     1 1.00
  0.122000D+00  0.100000D+01
   p     1 1.00
  0.727000D+00  0.100000D+01
  
 14  0
   s     4 1.00
  0.130100D+02  0.196850D-01
  0.196200D+01  0.137977D+00
  0.444600D+00  0.478148D+00
  0.122000D+00  0.501240D+00
   s     1 1.00
  0.122000D+00  0.100000D+01
   p     1 1.00
  0.727000D+00  0.100000D+01
  
[MO]
 Sym= __1_A__
 Ene=  0.000000000000000E+000
 Spin= Alpha
 Occup=    2.00000000000000     
                     1  2.265012220094995E-004
                     2  0.998327246734777     
                     3  1.173236805325805E-003
                     4  1.634999473712767E-003
                     5  6.430450279719942E-003
                     6  6.085894986771682E-003
                     7 -5.605948719076251E-003
                     8  5.355462060273755E-004
                     9 -9.193241293722140E-004
                    10  4.755487239765983E-004
                    11 -2.624005851943360E-005
                    12 -1.845985515279141E-003
                    13  3.574114087479580E-003
                    14 -3.728561742068138E-004
                    15 -4.254728496956335E-005
                    16 -3.722516703597985E-005
                    17 -5.991500420536316E-005
                    18  6.582161288882557E-005
                    19  3.085243960067792E-005
                    20 -3.561164413803201E-004
                    21  5.870256055220193E-005
                    22 -2.487385473836882E-005
                    23  6.990962132975014E-005
                    24 -5.120168861914080E-004
                    25 -9.351350428982634E-007
                    26 -1.083300118674943E-004
                    27 -3.052877449897302E-005
                    28 -1.604511886485249E-005
                    29  2.148985634882844E-005
                    30 -7.658857465854832E-005
                    31 -6.125457933423815E-005
                    32 -3.868709425785962E-004
                    33  5.266632869564903E-004
                    34  2.821866175243944E-004
                    35 -1.309727801322096E-004
                    36 -3.551779092605763E-003
                    37 -1.536493343036899E-004
                    38 -4.473383988448302E-005
                    39  1.835141989892024E-004
                    40 -3.649108855867338E-006
                    41  9.534365264360691E-005
                    42  5.007671884671183E-003
                    43  7.636329799123505E-004
                    44 -4.051002122448438E-004
                    45 -1.980795376248145E-004
                    46 -5.249308901950051E-006
                    47  1.243440538128289E-006
                    48  1.854499635938279E-004
                    49  4.704639708719926E-005
                    50  5.391117926720115E-004
                    51  9.080684632423496E-005
                    52 -3.689194025640428E-006
                    53 -1.514312151265697E-004
                    54 -3.744906816517566E-004
                    55  4.499642530760082E-006
                    56 -4.785912503534903E-005
                    57  8.275356829804426E-006
                    58  9.225505951532654E-006
                    59 -3.588642723468009E-007
                    60 -3.563672641876131E-005
                    61  3.764320685480784E-005
                    62 -4.209430774719893E-004
                    63 -1.814104829166651E-003
                    64  9.570246234773945E-005
                    65  1.041963772495081E-003
                    66  3.625464613100676E-004
                    67 -1.620331724261951E-004
                    68 -4.887171320962735E-004
                    69  6.331539816121031E-004
                    70  9.162583856619634E-005
                    71  1.980941840280219E-004
                    72 -2.275010390050169E-004
                    73 -3.376459701323275E-004
                    74 -1.050663059971125E-003
                    75 -6.548106948515237E-005
                    76 -1.759585407256117E-005
                    77  1.623113110217679E-005
                    78  6.416686281036581E-005
                    79 -1.012844614015893E-005
                    80  2.475611570405288E-004
                    81  1.921816940455923E-004
                    82 -2.855548848812220E-005
                    83 -1.492688184522677E-004
                    84  6.276952895700276E-005
                    85 -1.576729361829395E-005
                    86 -6.024487649655202E-005
                    87  2.091427854021595E-005
                    88 -7.730483421681987E-006
                    89  1.454091282893979E-005
                    90 -4.610399257976117E-005
                    91 -1.250848353641190E-005
                    92 -3.668138028161415E-004
                    93 -1.666997567778815E-003
                    94  1.352126255340278E-004
                    95  6.979501001964032E-004
                    96  4.089723062212925E-004
                    97 -1.628639989245757E-004
                    98  4.882846269906317E-004
                    99  5.924550847433587E-004
                   100  9.824883843751790E-005
                   101 -6.532395504542963E-005
                   102 -7.772482000485188E-004
                   103 -3.573900579271134E-004
                   104  7.787732650532044E-004
                   105 -6.976977439466531E-005
                   106  1.008148640875705E-005
                   107 -1.584927333211209E-005
                   108  5.898890737666504E-005
                   109 -1.176594465624936E-005
                   110  1.944469051811752E-004
                   111 -1.809777188758908E-004
                   112  2.525843143338596E-005
                   113 -1.595381365443116E-004
                   114  7.405204978667195E-005
                   115  1.136285172920303E-005
                   116 -4.459844311416909E-005
                   117  2.066438646267849E-005
                   118  9.057650728048096E-006
                   119 -1.459537976653020E-005
                   120 -3.998748419483530E-005
                   121 -1.156449324246498E-005
                   122 -2.220040777415715E-004
                   123 -4.942689904911010E-004
                   124  4.751225978235833E-005
                   125  7.087156126739258E-004
                   126 -4.224862493475189E-004
                   127 -5.653327617119513E-005
                   128  1.230724416416348E-005
                   129  2.270982800285940E-004
                   130 -3.258658135745647E-005
                   131  3.794638513151205E-005
                   132  1.153228443457900E-003
                   133  1.679355310232271E-004
                   134 -1.741958076338629E-004
                   135  7.506797510253895E-006
                   136 -9.344032679826977E-007
                   137 -5.124381780738236E-006
                   138  9.186666382512656E-007
                   139  1.082158478536278E-005
                   140  9.720394849382657E-005
                   141  2.161206228477241E-004
                   142  1.143238346835160E-005
                   143 -2.080218299839082E-004
                   144 -1.182055926714503E-005
                   145 -1.551479558549217E-005
                   146 -1.462915841197934E-005
                   147  3.033763961842377E-006
                   148 -5.941042056636080E-006
                   149 -1.283321045515881E-006
                   150 -5.026238083916510E-005
                   151 -2.640587359578775E-006
                   152 -1.995349616494496E-004
                   153 -4.133201739493819E-004
                   154  3.779970226121758E-005
                   155  6.363813362422995E-004
                   156 -4.215978430816105E-004
                   157 -5.464629218260835E-005
                   158 -2.223907317256097E-005
                   159  1.510927152444462E-004
                   160 -3.806978375976291E-005
                   161  1.343744780448167E-005
                   162  6.270664273739167E-004
                   163  1.668321039475513E-004
                   164  4.192087467677778E-004
                   165  2.886653591359735E-006
                   166  1.402352269263468E-006
                   167  5.022608317683452E-006
                   168  3.761301978048514E-006
                   169  1.091932618710394E-005
                   170  5.452637439079224E-005
                   171 -1.702467301823412E-004
                   172 -1.114937030610603E-005
                   173 -1.683484499909863E-004
                   174 -6.511483500576644E-006
                   175  8.837017313452889E-006
                   176 -1.485183980565456E-005
                   177  3.575811272108216E-006
                   178  2.824108989496300E-006
                   179  7.518539976636111E-007
                   180 -4.284345297295033E-005
                   181 -3.707090928800358E-006
                   182 -1.344294214416735E-004
                   183 -4.163903524468164E-004
                   184  2.882057689977826E-005
                   185  1.760256850229759E-004
                   186 -2.342709895761736E-005
                   187 -5.174824443823470E-005
                   188 -9.684943674389237E-006
                   189  1.084738244967548E-004
                   190  1.962176877216521E-005
                   191  4.947096242292093E-005
                   192 -4.361811857411194E-004
                   193 -1.127412443206126E-004
                   194  2.929514287338669E-004
                   195 -6.647931795913590E-006
                   196 -1.259208460483779E-007
                   197  1.954177499535318E-007
                   198  2.139512860003178E-006
                   199 -1.641349768053111E-006
                   200 -1.207733493152437E-004
                   201 -3.855513901280252E-005
                   202 -1.056982853384249E-006
                   203  6.425192432341394E-005
                   204  1.843929592546253E-005
                   205  9.303634440405574E-007
                   206  3.060750462403769E-006
                   207  2.834065846069912E-006
                   208  3.272017823200668E-006
                   209 -8.206444391380571E-009
                   210 -5.810252586626355E-006
                   211 -3.054137526507345E-006
                   212  1.100492158712068E-003
                   213 -1.125665579472001E-003
                   214  1.260662779573201E-004
                   215  2.906831740783284E-004
                   216  2.468574017558858E-004
                   217  1.836966621615800E-003
                   218 -1.837398525727931E-003
                   219  1.451197196044952E-004
                   220  2.980808378277339E-004
                   221 -3.077421350698603E-004
                   222 -4.038143344241832E-004
                   223 -4.319365057912110E-004
                   224 -6.806491750457552E-005
                   225  1.058576927974069E-005
                   226  5.298147717100423E-005
                   227 -3.915369948820466E-004
                   228 -3.930132171614037E-004
                   229 -5.930038166656359E-005
                   230  1.148383127797175E-005
                   231 -5.519347405344279E-005
                   232 -6.597275858837854E-005
                   233 -5.136400464478058E-004
                   234  4.894959689217957E-006
                   235 -1.530045154487782E-006
                   236 -8.784095251157169E-006
                   237 -8.155969832265031E-005
                   238 -4.809128243521244E-004
                   239  5.892724273710334E-006
                   240 -1.889183386147451E-006
                   241  9.305301869918647E-006
                   242 -1.120080600507015E-005
                   243  1.474475437012144E-004
                   244  3.330054984097844E-005
                   245  2.394362221918068E-006
                   246 -4.412616155917428E-007
 Sym= __2_A__
 Ene=  0.000000000000000E+000
 Spin= Alpha
 Occup=    2.00000000000000     
                     1 -1.937791933840070E-005
                     2 -9.406306076690565E-005
                     3  2.180099440709112E-003
                     4 -1.820235929048491E-005
                     5  1.189239914790162E-003
                     6  1.841903347228843E-003
                     7  1.615111907926410E-004
                     8 -9.398603188828459E-005
                     9 -1.462818609839778E-004
                    10  1.232462243584507E-004
                    11 -9.410570901173134E-006
                    12  8.022154178111707E-005
                    13  6.926396650616130E-005
                    14  8.059555585661966E-006
                    15 -6.916665693642435E-005
                    16 -8.931565809329732E-007
                    17 -7.360691269729708E-007
                    18  4.545193739795916E-005
                    19 -6.310888111789186E-006
                    20  1.259071644477255E-004
                    21  2.075509541025268E-005
                    22  1.205182489092259E-005
                    23  1.168678786914456E-004
                    24 -3.351091313638010E-005
                    25 -6.199578308107838E-006
                    26  1.373451306329588E-004
                    27 -5.354477324632656E-005
                    28  2.259724504800470E-006
                    29 -5.149809345386126E-006
                    30  1.162964991353007E-004
                    31  3.990271528016670E-005
                    32   1.00094699206207     
                    33  8.736084263489262E-003
                    34  2.790994375134988E-003
                    35 -8.268800886809797E-003
                    36 -2.462333498003965E-003
                    37  7.166520152305853E-004
                    38  6.712488115591271E-006
                    39  1.027694675674519E-003
                    40 -2.375691999825626E-004
                    41  1.129747268232397E-005
                    42  3.336663385608293E-003
                    43 -1.310460002749365E-004
                    44  1.181600955705398E-006
                    45  3.005868371484852E-004
                    46 -4.285127733551037E-006
                    47 -1.432095186787713E-006
                    48  3.992882247042536E-004
                    49 -3.211865636236532E-005
                    50 -1.033504391018245E-003
                    51  4.353290571373686E-005
                    52  4.767908772783876E-006
                    53 -1.134696234055215E-004
                    54  5.474822937505872E-005
                    55  1.253425964480993E-006
                    56  2.978829217162817E-004
                    57 -8.633414026740609E-006
                    58  9.269383702445218E-007
                    59 -9.898748069875351E-007
                    60  7.764197877112350E-005
                    61  2.035967713517096E-005
                    62  1.313934585619708E-002
                    63 -1.844735126074144E-003
                    64 -3.167059341293521E-004
                    65  3.166583126179023E-003
                    66 -1.358222946440579E-004
                    67  1.294856252943099E-004
                    68  2.545964682575442E-004
                    69  2.184208567663080E-005
                    70 -6.264864020390058E-006
                    71  5.428995582807574E-004
                    72  1.594575035425755E-004
                    73 -3.331072559440970E-005
                    74 -1.785058017768652E-003
                    75 -8.944380497251629E-006
                    76  2.234479524677054E-005
                    77  9.805928272026519E-006
                    78 -3.397882997347370E-005
                    79 -4.654782250551765E-006
                    80 -3.976420591226917E-004
                    81 -4.654482162137584E-004
                    82 -7.134084061863324E-006
                    83  7.501144300628390E-004
                    84 -6.810117039839475E-007
                    85  4.849024160847755E-005
                    86  1.038287582472194E-004
                    87  1.908964921512850E-007
                    88 -1.940513611987742E-005
                    89 -7.997454400654616E-006
                    90 -3.117571662494323E-005
                    91  5.307309263421604E-006
                    92  1.354817650606302E-002
                    93 -1.826464119371730E-003
                    94 -3.096323974427293E-004
                    95  3.110550798059476E-003
                    96 -1.379475017804991E-004
                    97  1.307039124190922E-004
                    98 -2.564742986532544E-004
                    99  2.651961883325968E-005
                   100  2.546621234690040E-006
                   101 -5.075467736401832E-004
                   102  1.622777933412402E-004
                   103 -4.514750491469691E-005
                   104  1.819168581130088E-003
                   105 -8.755819294831038E-006
                   106 -2.429358854266969E-005
                   107 -9.049515554366973E-006
                   108 -3.573323518234354E-005
                   109 -4.539600389022773E-006
                   110 -4.220268975023632E-004
                   111  4.724737215566720E-004
                   112  4.855920057557482E-006
                   113  7.611808909489452E-004
                   114 -3.638585246035239E-006
                   115 -5.142664800158667E-005
                   116  1.056777148828994E-004
                   117 -9.828242968677666E-007
                   118  1.749778856253977E-005
                   119  7.040882618588242E-006
                   120 -3.021354347565158E-005
                   121  5.773971676112887E-006
                   122 -1.256543878331300E-004
                   123 -7.021736767663932E-004
                   124  2.516506016277362E-004
                   125 -3.190895618709721E-004
                   126 -1.988051132284278E-004
                   127  2.643721180297841E-005
                   128 -4.250951376281859E-005
                   129  5.966183239340280E-004
                   130 -3.094889682107374E-007
                   131  4.102296618322592E-005
                   132  5.632413705244562E-004
                   133  7.026428150551378E-006
                   134  3.300315529382688E-004
                   135  2.739681504940779E-007
                   136  4.155350319813387E-005
                   137  1.487389395006338E-007
                   138 -3.461177258475014E-005
                   139 -1.674914203939818E-006
                   140  1.908861801454581E-004
                   141 -2.613090007846894E-004
                   142  4.058834542339812E-006
                   143 -2.638269668972288E-004
                   144 -5.130729652748145E-006
                   145 -1.749254133975652E-005
                   146  1.212234131919119E-005
                   147  4.847444276897031E-008
                   148 -1.200133902897924E-005
                   149 -2.565823550598778E-006
                   150 -2.635408627288223E-005
                   151 -2.267548509511016E-007
                   152 -1.218479770731865E-004
                   153 -7.032707326195931E-004
                   154  2.514376728782963E-004
                   155 -3.293135637755900E-004
                   156 -1.960766556062772E-004
                   157  2.421470335722317E-005
                   158  4.247472584872297E-005
                   159  6.018079975294248E-004
                   160  3.367471402155772E-006