[Molden Format]
[Atoms] AU
  N     1    7    -4.4667020200    0.2087891900   -0.0021899400        
  C     2    6    -1.7670196500   -0.0218957400   -0.0083141000        
  C     3    6    -0.4240787900   -0.0029362600   -2.2750398700        
  C     4    6    -0.4316823100   -0.0208890600    2.2628487500        
  C     5    6     2.1908962200    0.0029641600   -2.2581538100        
  C     6    6     2.1857978000   -0.0054297900    2.2563386300        
  C     7    6     3.5124445100    0.0047195900    0.0021402700        
  H     8    1    -5.2489878300   -1.0397500200   -1.7259973900        
  H     9    1    -5.1704284300   -0.7272529300    1.5500100200        
  H    10    1    -1.4274718400    0.0121912200   -4.0369045500        
  H    11    1    -1.4377610000   -0.0325609900    4.0239406600        
  H    12    1     3.1977168100    0.0074870600   -4.0200121300        
  H    13    1     3.1858511500   -0.0098528900    4.0220314200        
  H    14    1     5.5404830800    0.0099047800    0.0046356200        
[5D]
[7F]
[GTO]
  1  0
   s    12 1.00
  0.114200D+05  0.172695D-04
  0.171200D+04  0.134411D-03
  0.389300D+03  0.694561D-03
  0.110000D+03  0.278531D-02
  0.355700D+02  0.863457D-02
  0.125400D+02  0.199805D-01
  0.464400D+01  0.262908D-01
  0.129300D+01 -0.243845D-01
  0.511800D+00 -0.924934D-01
  0.178700D+00 -0.339683D+00
  0.246240D-01  0.345111D+00
  0.112530D-01  0.752750D+00
   s    10 1.00
  0.114200D+05  0.523000D-03
  0.171200D+04  0.404500D-02
  0.389300D+03  0.207750D-01
  0.110000D+03  0.807269D-01
  0.355700D+02  0.233074D+00
  0.125400D+02  0.433501D+00
  0.464400D+01  0.347472D+00
  0.129300D+01  0.412620D-01
  0.511800D+00 -0.850799D-02
  0.178700D+00  0.238400D-02
   s    10 1.00
  0.114200D+05 -0.115000D-03
  0.171200D+04 -0.895000D-03
  0.389300D+03 -0.462400D-02
  0.110000D+03 -0.185280D-01
  0.355700D+02 -0.573390D-01
  0.125400D+02 -0.132076D+00
  0.464400D+01 -0.172510D+00
  0.129300D+01  0.151814D+00
  0.511800D+00  0.599944D+00
  0.178700D+00  0.387462D+00
   s     1 1.00
  0.129300D+01  0.100000D+01
   s     1 1.00
  0.178700D+00  0.100000D+01
   p     5 1.00
  0.266300D+02  0.146700D-01
  0.594800D+01  0.917640D-01
  0.174200D+01  0.298683D+00
  0.555000D+00  0.498487D+00
  0.172500D+00  0.337023D+00
   p     1 1.00
  0.174200D+01  0.100000D+01
   p     1 1.00
  0.555000D+00  0.100000D+01
   d     1 1.00
  0.165400D+01  0.100000D+01
   d     1 1.00
  0.469000D+00  0.100000D+01
   f     1 1.00
  0.109300D+01  0.100000D+01
  
  2  0
   s    10 1.00
  0.823600D+04  0.531000D-03
  0.123500D+04  0.410800D-02
  0.280800D+03  0.210870D-01
  0.792700D+02  0.818530D-01
  0.255900D+02  0.234817D+00
  0.899700D+01  0.434401D+00
  0.331900D+01  0.346129D+00
  0.905900D+00  0.393780D-01
  0.364300D+00 -0.898300D-02
  0.128500D+00  0.238500D-02
   s    10 1.00
  0.823600D+04 -0.113000D-03
  0.123500D+04 -0.878000D-03
  0.280800D+03 -0.454000D-02
  0.792700D+02 -0.181330D-01
  0.255900D+02 -0.557600D-01
  0.899700D+01 -0.126895D+00
  0.331900D+01 -0.170352D+00
  0.905900D+00  0.140382D+00
  0.364300D+00  0.598684D+00
  0.128500D+00  0.395389D+00
   s     1 1.00
  0.905900D+00  0.100000D+01
   s     1 1.00
  0.364300D+00  0.100000D+01
   p     5 1.00
  0.187100D+02  0.140310D-01
  0.413300D+01  0.868660D-01
  0.120000D+01  0.290216D+00
  0.382700D+00  0.501008D+00
  0.120900D+00  0.343406D+00
   p     1 1.00
  0.382700D+00  0.100000D+01
   p     1 1.00
  0.120900D+00  0.100000D+01
   d     1 1.00
  0.109700D+01  0.100000D+01
   d     1 1.00
  0.318000D+00  0.100000D+01
   f     1 1.00
  0.761000D+00  0.100000D+01
  
  3  0
   s    10 1.00
  0.823600D+04  0.531000D-03
  0.123500D+04  0.410800D-02
  0.280800D+03  0.210870D-01
  0.792700D+02  0.818530D-01
  0.255900D+02  0.234817D+00
  0.899700D+01  0.434401D+00
  0.331900D+01  0.346129D+00
  0.905900D+00  0.393780D-01
  0.364300D+00 -0.898300D-02
  0.128500D+00  0.238500D-02
   s    10 1.00
  0.823600D+04 -0.113000D-03
  0.123500D+04 -0.878000D-03
  0.280800D+03 -0.454000D-02
  0.792700D+02 -0.181330D-01
  0.255900D+02 -0.557600D-01
  0.899700D+01 -0.126895D+00
  0.331900D+01 -0.170352D+00
  0.905900D+00  0.140382D+00
  0.364300D+00  0.598684D+00
  0.128500D+00  0.395389D+00
   s     1 1.00
  0.905900D+00  0.100000D+01
   s     1 1.00
  0.364300D+00  0.100000D+01
   p     5 1.00
  0.187100D+02  0.140310D-01
  0.413300D+01  0.868660D-01
  0.120000D+01  0.290216D+00
  0.382700D+00  0.501008D+00
  0.120900D+00  0.343406D+00
   p     1 1.00
  0.382700D+00  0.100000D+01
   p     1 1.00
  0.120900D+00  0.100000D+01
   d     1 1.00
  0.109700D+01  0.100000D+01
   d     1 1.00
  0.318000D+00  0.100000D+01
   f     1 1.00
  0.761000D+00  0.100000D+01
  
  4  0
   s    10 1.00
  0.823600D+04  0.531000D-03
  0.123500D+04  0.410800D-02
  0.280800D+03  0.210870D-01
  0.792700D+02  0.818530D-01
  0.255900D+02  0.234817D+00
  0.899700D+01  0.434401D+00
  0.331900D+01  0.346129D+00
  0.905900D+00  0.393780D-01
  0.364300D+00 -0.898300D-02
  0.128500D+00  0.238500D-02
   s    10 1.00
  0.823600D+04 -0.113000D-03
  0.123500D+04 -0.878000D-03
  0.280800D+03 -0.454000D-02
  0.792700D+02 -0.181330D-01
  0.255900D+02 -0.557600D-01
  0.899700D+01 -0.126895D+00
  0.331900D+01 -0.170352D+00
  0.905900D+00  0.140382D+00
  0.364300D+00  0.598684D+00
  0.128500D+00  0.395389D+00
   s     1 1.00
  0.905900D+00  0.100000D+01
   s     1 1.00
  0.364300D+00  0.100000D+01
   p     5 1.00
  0.187100D+02  0.140310D-01
  0.413300D+01  0.868660D-01
  0.120000D+01  0.290216D+00
  0.382700D+00  0.501008D+00
  0.120900D+00  0.343406D+00
   p     1 1.00
  0.382700D+00  0.100000D+01
   p     1 1.00
  0.120900D+00  0.100000D+01
   d     1 1.00
  0.109700D+01  0.100000D+01
   d     1 1.00
  0.318000D+00  0.100000D+01
   f     1 1.00
  0.761000D+00  0.100000D+01
  
  5  0
   s    10 1.00
  0.823600D+04  0.531000D-03
  0.123500D+04  0.410800D-02
  0.280800D+03  0.210870D-01
  0.792700D+02  0.818530D-01
  0.255900D+02  0.234817D+00
  0.899700D+01  0.434401D+00
  0.331900D+01  0.346129D+00
  0.905900D+00  0.393780D-01
  0.364300D+00 -0.898300D-02
  0.128500D+00  0.238500D-02
   s    10 1.00
  0.823600D+04 -0.113000D-03
  0.123500D+04 -0.878000D-03
  0.280800D+03 -0.454000D-02
  0.792700D+02 -0.181330D-01
  0.255900D+02 -0.557600D-01
  0.899700D+01 -0.126895D+00
  0.331900D+01 -0.170352D+00
  0.905900D+00  0.140382D+00
  0.364300D+00  0.598684D+00
  0.128500D+00  0.395389D+00
   s     1 1.00
  0.905900D+00  0.100000D+01
   s     1 1.00
  0.364300D+00  0.100000D+01
   p     5 1.00
  0.187100D+02  0.140310D-01
  0.413300D+01  0.868660D-01
  0.120000D+01  0.290216D+00
  0.382700D+00  0.501008D+00
  0.120900D+00  0.343406D+00
   p     1 1.00
  0.382700D+00  0.100000D+01
   p     1 1.00
  0.120900D+00  0.100000D+01
   d     1 1.00
  0.109700D+01  0.100000D+01
   d     1 1.00
  0.318000D+00  0.100000D+01
   f     1 1.00
  0.761000D+00  0.100000D+01
  
  6  0
   s    10 1.00
  0.823600D+04  0.531000D-03
  0.123500D+04  0.410800D-02
  0.280800D+03  0.210870D-01
  0.792700D+02  0.818530D-01
  0.255900D+02  0.234817D+00
  0.899700D+01  0.434401D+00
  0.331900D+01  0.346129D+00
  0.905900D+00  0.393780D-01
  0.364300D+00 -0.898300D-02
  0.128500D+00  0.238500D-02
   s    10 1.00
  0.823600D+04 -0.113000D-03
  0.123500D+04 -0.878000D-03
  0.280800D+03 -0.454000D-02
  0.792700D+02 -0.181330D-01
  0.255900D+02 -0.557600D-01
  0.899700D+01 -0.126895D+00
  0.331900D+01 -0.170352D+00
  0.905900D+00  0.140382D+00
  0.364300D+00  0.598684D+00
  0.128500D+00  0.395389D+00
   s     1 1.00
  0.905900D+00  0.100000D+01
   s     1 1.00
  0.364300D+00  0.100000D+01
   p     5 1.00
  0.187100D+02  0.140310D-01
  0.413300D+01  0.868660D-01
  0.120000D+01  0.290216D+00
  0.382700D+00  0.501008D+00
  0.120900D+00  0.343406D+00
   p     1 1.00
  0.382700D+00  0.100000D+01
   p     1 1.00
  0.120900D+00  0.100000D+01
   d     1 1.00
  0.109700D+01  0.100000D+01
   d     1 1.00
  0.318000D+00  0.100000D+01
   f     1 1.00
  0.761000D+00  0.100000D+01
  
  7  0
   s    10 1.00
  0.823600D+04  0.531000D-03
  0.123500D+04  0.410800D-02
  0.280800D+03  0.210870D-01
  0.792700D+02  0.818530D-01
  0.255900D+02  0.234817D+00
  0.899700D+01  0.434401D+00
  0.331900D+01  0.346129D+00
  0.905900D+00  0.393780D-01
  0.364300D+00 -0.898300D-02
  0.128500D+00  0.238500D-02
   s    10 1.00
  0.823600D+04 -0.113000D-03
  0.123500D+04 -0.878000D-03
  0.280800D+03 -0.454000D-02
  0.792700D+02 -0.181330D-01
  0.255900D+02 -0.557600D-01
  0.899700D+01 -0.126895D+00
  0.331900D+01 -0.170352D+00
  0.905900D+00  0.140382D+00
  0.364300D+00  0.598684D+00
  0.128500D+00  0.395389D+00
   s     1 1.00
  0.905900D+00  0.100000D+01
   s     1 1.00
  0.364300D+00  0.100000D+01
   p     5 1.00
  0.187100D+02  0.140310D-01
  0.413300D+01  0.868660D-01
  0.120000D+01  0.290216D+00
  0.382700D+00  0.501008D+00
  0.120900D+00  0.343406D+00
   p     1 1.00
  0.382700D+00  0.100000D+01
   p     1 1.00
  0.120900D+00  0.100000D+01
   d     1 1.00
  0.109700D+01  0.100000D+01
   d     1 1.00
  0.318000D+00  0.100000D+01
   f     1 1.00
  0.761000D+00  0.100000D+01
  
  8  0
   s     4 1.00
  0.130100D+02  0.196850D-01
  0.196200D+01  0.137977D+00
  0.444600D+00  0.478148D+00
  0.122000D+00  0.501240D+00
   s     1 1.00
  0.122000D+00  0.100000D+01
   p     1 1.00
  0.727000D+00  0.100000D+01
  
  9  0
   s     4 1.00
  0.130100D+02  0.196850D-01
  0.196200D+01  0.137977D+00
  0.444600D+00  0.478148D+00
  0.122000D+00  0.501240D+00
   s     1 1.00
  0.122000D+00  0.100000D+01
   p     1 1.00
  0.727000D+00  0.100000D+01
  
 10  0
   s     4 1.00
  0.130100D+02  0.196850D-01
  0.196200D+01  0.137977D+00
  0.444600D+00  0.478148D+00
  0.122000D+00  0.501240D+00
   s     1 1.00
  0.122000D+00  0.100000D+01
   p     1 1.00
  0.727000D+00  0.100000D+01
  
 11  0
   s     4 1.00
  0.130100D+02  0.196850D-01
  0.196200D+01  0.137977D+00
  0.444600D+00  0.478148D+00
  0.122000D+00  0.501240D+00
   s     1 1.00
  0.122000D+00  0.100000D+01
   p     1 1.00
  0.727000D+00  0.100000D+01
  
 12  0
   s     4 1.00
  0.130100D+02  0.196850D-01
  0.196200D+01  0.137977D+00
  0.444600D+00  0.478148D+00
  0.122000D+00  0.501240D+00
   s     1 1.00
  0.122000D+00  0.100000D+01
   p     1 1.00
  0.727000D+00  0.100000D+01
  
 13  0
   s     4 1.00
  0.130100D+02  0.196850D-01
  0.196200D+01  0.137977D+00
  0.444600D+00  0.478148D+00
  0.122000D+00  0.501240D+00
   s     1 1.00
  0.122000D+00  0.100000D+01
   p     1 1.00
  0.727000D+00  0.100000D+01
  
 14  0
   s     4 1.00
  0.130100D+02  0.196850D-01
  0.196200D+01  0.137977D+00
  0.444600D+00  0.478148D+00
  0.122000D+00  0.501240D+00
   s     1 1.00
  0.122000D+00  0.100000D+01
   p     1 1.00
  0.727000D+00  0.100000D+01
  
[MO]
 Sym= __1_A__
 Ene=   1.00000000000000     
 Spin= Alpha
 Occup=    1.00000000000000     
                     1  2.265012221852915E-004
                     2  0.998327246734510     
                     3  1.173236806679064E-003
                     4  1.634999473704128E-003
                     5  6.430450279168209E-003
                     6  6.085894986463253E-003
                     7 -5.605948718197680E-003
                     8  5.355462060166512E-004
                     9 -9.193241291700060E-004
                    10  4.755487238316613E-004
                    11 -2.624005850681796E-005
                    12 -1.845985515314262E-003
                    13  3.574114087390690E-003
                    14 -3.728561742086165E-004
                    15 -4.254728497695241E-005
                    16 -3.722516705391195E-005
                    17 -5.991500420879220E-005
                    18  6.582161293634658E-005
                    19  3.085243961318306E-005
                    20 -3.561164414823001E-004
                    21  5.870256050389710E-005
                    22 -2.487385473835432E-005
                    23  6.990962153792354E-005
                    24 -5.120168862181258E-004
                    25 -9.351350492200288E-007
                    26 -1.083300118704546E-004
                    27 -3.052877450256928E-005
                    28 -1.604511887351255E-005
                    29  2.148985635420290E-005
                    30 -7.658857469565003E-005
                    31 -6.125457934055015E-005
                    32 -3.868709482444235E-004
                    33  5.266633134899352E-004
                    34  2.821866173073642E-004
                    35 -1.309727817648181E-004
                    36 -3.551779083673897E-003
                    37 -1.536493337813848E-004
                    38 -4.473384263718643E-005
                    39  1.835141987479997E-004
                    40 -3.649108893866836E-006
                    41  9.534365274912049E-005
                    42  5.007671886314028E-003
                    43  7.636329800029145E-004
                    44 -4.051002118023079E-004
                    45 -1.980795368968782E-004
                    46 -5.249308990824989E-006
                    47  1.243440529354338E-006
                    48  1.854499636488436E-004
                    49  4.704639708910754E-005
                    50  5.391117932135157E-004
                    51  9.080684617473327E-005
                    52 -3.689194012840071E-006
                    53 -1.514312145579761E-004
                    54 -3.744906816070373E-004
                    55  4.499642542748955E-006
                    56 -4.785912457962354E-005
                    57  8.275356839060317E-006
                    58  9.225505931841374E-006
                    59 -3.588642758714762E-007
                    60 -3.563672639906294E-005
                    61  3.764320688182021E-005
                    62 -4.209430783038858E-004
                    63 -1.814104822834824E-003
                    64  9.570246232371201E-005
                    65  1.041963772519920E-003
                    66  3.625464445360416E-004
                    67 -1.620331722052287E-004
                    68 -4.887171233614470E-004
                    69  6.331539836094011E-004
                    70  9.162583857773421E-005
                    71  1.980941834766617E-004
                    72 -2.275010345876083E-004
                    73 -3.376459701586405E-004
                    74 -1.050663064675946E-003
                    75 -6.548106892662769E-005
                    76 -1.759585439698905E-005
                    77  1.623113110618651E-005
                    78  6.416686263628368E-005
                    79 -1.012844614372236E-005
                    80  2.475611571107656E-004
                    81  1.921816933048529E-004
                    82 -2.855548849058550E-005
                    83 -1.492688181944887E-004
                    84  6.276952898787299E-005
                    85 -1.576729366804981E-005
                    86 -6.024487666073533E-005
                    87  2.091427853974790E-005
                    88 -7.730483352037652E-006
                    89  1.454091283013673E-005
                    90 -4.610399250488208E-005
                    91 -1.250848353516417E-005
                    92 -3.668138035761825E-004
                    93 -1.666997561618986E-003
                    94  1.352126255124257E-004
                    95  6.979501003130704E-004
                    96  4.089722914040206E-004
                    97 -1.628639987136517E-004
                    98  4.882846223876841E-004
                    99  5.924550866727079E-004
                   100  9.824883843797832E-005
                   101 -6.532395493169687E-005
                   102 -7.772481963636371E-004
                   103 -3.573900579818247E-004
                   104  7.787732693192318E-004
                   105 -6.976977386013731E-005
                   106  1.008148657890599E-005
                   107 -1.584927334379884E-005
                   108  5.898890721341004E-005
                   109 -1.176594466391409E-005
                   110  1.944469051557129E-004
                   111 -1.809777181072887E-004
                   112  2.525843144233718E-005
                   113 -1.595381362827204E-004
                   114  7.405204981343357E-005
                   115  1.136285177988551E-005
                   116 -4.459844325600278E-005
                   117  2.066438646326016E-005
                   118  9.057650692299572E-006
                   119 -1.459537976595901E-005
                   120 -3.998748414003059E-005
                   121 -1.156449324157689E-005
                   122 -2.220040778374043E-004
                   123 -4.942689975540497E-004
                   124  4.751226008535335E-005
                   125  7.087156129587427E-004
                   126 -4.224862386415382E-004
                   127 -5.653327610724070E-005
                   128  1.230724236918504E-005
                   129  2.270982798618066E-004
                   130 -3.258658136906167E-005
                   131  3.794638559651336E-005
                   132  1.153228444004943E-003
                   133  1.679355310179507E-004
                   134 -1.741958074295696E-004
                   135  7.506797719601365E-006
                   136 -9.344034292205679E-007
                   137 -5.124381783023732E-006
                   138  9.186663748527590E-007
                   139  1.082158477883469E-005
                   140  9.720394882992940E-005
                   141  2.161206227085862E-004
                   142  1.143238347220676E-005
                   143 -2.080218304889834E-004
                   144 -1.182055927459477E-005
                   145 -1.551479552627667E-005
                   146 -1.462915851559908E-005
                   147  3.033763962125883E-006
                   148 -5.941042017135736E-006
                   149 -1.283321046937527E-006
                   150 -5.026238097893917E-005
                   151 -2.640587358665543E-006
                   152 -1.995349618507253E-004
                   153 -4.133201804535786E-004
                   154  3.779970256678702E-005
                   155  6.363813364066650E-004
                   156 -4.215978337924028E-004
                   157 -5.464629211952321E-005
                   158 -2.223907154885111E-005
                   159  1.510927152219869E-004
                   160 -3.806978376593341E-005
                   161  1.343744735389590E-005
                   162  6.270664280156696E-004
                   163  1.668321039419093E-004
                   164  4.192087462791319E-004
                   165  2.886653764338204E-006
                   166  1.402352365366387E-006
                   167  5.022608319442007E-006
                   168  3.761301744338938E-006
                   169  1.091932617851974E-005
                   170  5.452637476121057E-005
                   171 -1.702467300308518E-004
                   172 -1.114937031098252E-005
                   173 -1.683484504821050E-004
                   174 -6.511483512885548E-006
                   175  8.837017269114809E-006
                   176 -1.485183990740928E-005
                   177  3.575811271414920E-006
                   178  2.824108965005032E-006
                   179  7.518539995469638E-007
                   180 -4.284345309729629E-005
                   181 -3.707090926363737E-006
                   182 -1.344294216855528E-004
                   183 -4.163903534544753E-004
                   184  2.882057695134185E-005
                   185  1.760256854793657E-004
                   186 -2.342709875983948E-005
                   187 -5.174824452111990E-005
                   188 -9.684943700463020E-006
                   189  1.084738246930778E-004
                   190  1.962176876776158E-005
                   191  4.947096245586622E-005
                   192 -4.361811870854054E-004
                   193 -1.127412443523082E-004
                   194  2.929514288409492E-004
                   195 -6.647931607430422E-006
                   196 -1.259208490911864E-007
                   197  1.954177496623493E-007
                   198  2.139512730767626E-006
                   199 -1.641349769013617E-006
                   200 -1.207733491806927E-004
                   201 -3.855513902294501E-005
                   202 -1.056982853825514E-006
                   203  6.425192439746633E-005
                   204  1.843929592431913E-005
                   205  9.303634438464162E-007
                   206  3.060750429487534E-006
                   207  2.834065845233462E-006
                   208  3.272017821836772E-006
                   209 -8.206444375639796E-009
                   210 -5.810252606420698E-006
                   211 -3.054137526443068E-006
                   212  1.100492159133214E-003
                   213 -1.125665579244354E-003
                   214  1.260662779707620E-004
                   215  2.906831741181612E-004
                   216  2.468574017773733E-004
                   217  1.836966622371619E-003
                   218 -1.837398525328789E-003
                   219  1.451197196115439E-004
                   220  2.980808378691975E-004
                   221 -3.077421350874580E-004
                   222 -4.038143303098732E-004
                   223 -4.319365089315803E-004
                   224 -6.806491756942702E-005
                   225  1.058576928270006E-005
                   226  5.298147752449681E-005
                   227 -3.915369878615969E-004
                   228 -3.930132213086540E-004
                   229 -5.930038160758360E-005
                   230  1.148383128352679E-005
                   231 -5.519347451899306E-005
                   232 -6.597275387202002E-005
                   233 -5.136400482842557E-004
                   234  4.894959711957137E-006
                   235 -1.530045154504303E-006
                   236 -8.784095030848031E-006
                   237 -8.155969462834236E-005
                   238 -4.809128258919932E-004
                   239  5.892724294554645E-006
                   240 -1.889183384702386E-006
                   241  9.305301694536151E-006
                   242 -1.120080765031009E-005
                   243  1.474475435057832E-004
                   244  3.330054993634835E-005
                   245  2.394362220723536E-006
                   246 -4.412616188130836E-007
 Sym= __2_A__
 Ene=   2.00000000000000     
 Spin= Alpha
 Occup=    1.00000000000000     
                     1 -1.937791921048951E-005
                     2 -9.406305587715353E-005
                     3  2.180099440700857E-003
                     4 -1.820235930153474E-005
                     5  1.189239915341672E-003
                     6  1.841903347272316E-003
                     7  1.615111909407453E-004
                     8 -9.398603185683839E-005
                     9 -1.462818610657839E-004
                    10  1.232462243253255E-004
                    11 -9.410570919611464E-006
                    12  8.022154169334513E-005
                    13  6.926396650694879E-005
                    14  8.059555610514967E-006
                    15 -6.916665694442424E-005
                    16 -8.931565910320808E-007
                    17 -7.360691288578359E-007
                    18  4.545193739394382E-005
                    19 -6.310888109928442E-006
                    20  1.259071645563492E-004
                    21  2.075509540853849E-005
                    22  1.205182489007161E-005
                    23  1.168678787649903E-004
                    24 -3.351091312267287E-005
                    25 -6.199578305564142E-006
                    26  1.373451306777802E-004
                    27 -5.354477325296939E-005
                    28  2.259724508399750E-006
                    29 -5.149809344436774E-006
                    30  1.162964991079255E-004
                    31  3.990271527295881E-005
                    32   1.00094699208510     
                    33  8.736084267149743E-003
                    34  2.790994375894868E-003
                    35 -8.268800892262885E-003
                    36 -2.462333498250289E-003
                    37  7.166520153125332E-004
                    38  6.712486517256260E-006
                    39  1.027694674877737E-003
                    40 -2.375691999998544E-004
                    41  1.129747264970165E-005
                    42  3.336663386989121E-003
                    43 -1.310460002893851E-004
                    44  1.181601445375447E-006
                    45  3.005868372852680E-004
                    46 -4.285127793083145E-006
                    47 -1.432095188834893E-006
                    48  3.992882247268334E-004
                    49 -3.211865636536435E-005
                    50 -1.033504392467763E-003
                    51  4.353290572777894E-005
                    52  4.767908779344317E-006
                    53 -1.134696234785968E-004
                    54  5.474822939249031E-005
                    55  1.253425960004003E-006
                    56  2.978829219175440E-004
                    57 -8.633414027422371E-006
                    58  9.269383704990978E-007
                    59 -9.898748062668562E-007
                    60  7.764197879564928E-005
                    61  2.035967713196557E-005
                    62  1.313934515773444E-002
                    63 -1.844735130976441E-003
                    64 -3.167059365790084E-004
                    65  3.166583132659074E-003
                    66 -1.358222977333833E-004
                    67  1.294856253862169E-004
                    68  2.545964682033280E-004
                    69  2.184208575589284E-005
                    70 -6.264864071849055E-006
                    71  5.428995593775957E-004
                    72  1.594575036243118E-004
                    73 -3.331072561167723E-005
                    74 -1.785058018278144E-003
                    75 -8.944380486786911E-006
                    76  2.234479527101854E-005
                    77  9.805928275016563E-006
                    78 -3.397883029997408E-005
                    79 -4.654782252510344E-006
                    80 -3.976420593194233E-004
                    81 -4.654482172961599E-004
                    82 -7.134084068007876E-006
                    83  7.501144307027372E-004
                    84 -6.810116850367053E-007
                    85  4.849024155501202E-005
                    86  1.038287584559991E-004
                    87  1.908964892284693E-007
                    88 -1.940513605060483E-005
                    89 -7.997454402397820E-006
                    90 -3.117571656014820E-005
                    91  5.307309261400275E-006
                    92  1.354817563008137E-002
                    93 -1.826464126178855E-003
                    94 -3.096324004017014E-004
                    95  3.110550806045350E-003
                    96 -1.379475041138870E-004
                    97  1.307039124661905E-004
                    98 -2.564742962129037E-004
                    99  2.651961901949719E-005
                   100  2.546621212542922E-006
                   101 -5.075467749743510E-004
                   102  1.622777931861121E-004
                   103 -4.514750493030355E-005
                   104  1.819168581615343E-003
                   105 -8.755819330798482E-006
                   106 -2.429358867555115E-005
                   107 -9.049515554052741E-006
                   108 -3.573323558434732E-005
                   109 -4.539600393497366E-006
                   110 -4.220268977977062E-004
                   111  4.724737227889127E-004
                   112  4.855920061776891E-006
                   113  7.611808917033094E-004
                   114 -3.638585237868664E-006
                   115 -5.142664794526345E-005
                   116  1.056777151511939E-004
                   117 -9.828242961299617E-007
                   118  1.749778849846438E-005
                   119  7.040882617542712E-006
                   120 -3.021354341695068E-005
                   121  5.773971675172287E-006
                   122 -1.256544040043266E-004
                   123 -7.021736763839267E-004
                   124  2.516506019040537E-004
                   125 -3.190895646471047E-004
                   126 -1.988051106344472E-004
                   127  2.643721180696980E-005
                   128 -4.250951419811117E-005
                   129  5.966183242282262E-004
                   130 -3.094889700796665E-007
                   131  4.102296612186481E-005
                   132  5.632413692265229E-004
                   133  7.026428143722904E-006
                   134  3.300315536186998E-004
                   135  2.739682088425884E-007
                   136  4.155350320204238E-005
                   137  1.487389386004075E-007
                   138 -3.461177262669632E-005
                   139 -1.674914205745741E-006
                   140  1.908861800886779E-004
                   141 -2.613090013378580E-004
                   142  4.058834544992385E-006
                   143 -2.638269672968510E-004
                   144 -5.130729652453860E-006
                   145 -1.749254133013234E-005
                   146  1.212234133705515E-005
                   147  4.847444295312242E-008
                   148 -1.200133904904518E-005
                   149 -2.565823550943497E-006
                   150 -2.635408621874166E-005
                   151 -2.267548510494055E-007
                   152 -1.218480001323363E-004
                   153 -7.032707320826771E-004
                   154  2.514376732079120E-004
                   155 -3.293135669562821E-004
                   156 -1.960766533763245E-004
                   157  2.421470335814291E-005
                   158  4.247472594010578E-005
                   159  6.018079980183246E-004
                   160  3.367471403433041E-006