[Molden Format]
[Atoms] AU
  N     1    7    -4.4759662800    0.1572704100   -0.2360249700        
  C     2    6    -1.7555168000    0.0174609000   -0.1062475400        
  C     3    6    -0.3748721400    0.2003568000   -2.3410281600        
  C     4    6    -0.4591202800   -0.1479177000    2.1774112400        
  C     5    6     2.2369814400    0.1650388000   -2.2848992800        
  C     6    6     2.1603495700   -0.1317823000    2.2200817600        
  C     7    6     3.5171225200    0.0120847500   -0.0061980200        
  H     8    1    -5.1724635900   -1.5835638300   -0.7636130800        
  H     9    1    -5.1274978700    0.4120078400    1.5763837800        
  H    10    1    -1.3609518700    0.3844892400   -4.1014723000        
  H    11    1    -1.4945816800   -0.3039812300    3.9147751400        
  H    12    1     3.2779057100    0.2939664200   -4.0217060900        
  H    13    1     3.1327199400   -0.2519860700    3.9971283400        
  H    14    1     5.5453341700    0.0099751400    0.0288810400        
[5D]
[7F]
[GTO]
  1  0
   s    12 1.00
  0.114200D+05  0.172695D-04
  0.171200D+04  0.134411D-03
  0.389300D+03  0.694561D-03
  0.110000D+03  0.278531D-02
  0.355700D+02  0.863457D-02
  0.125400D+02  0.199805D-01
  0.464400D+01  0.262908D-01
  0.129300D+01 -0.243845D-01
  0.511800D+00 -0.924934D-01
  0.178700D+00 -0.339683D+00
  0.246240D-01  0.345111D+00
  0.112530D-01  0.752750D+00
   s    10 1.00
  0.114200D+05  0.523000D-03
  0.171200D+04  0.404500D-02
  0.389300D+03  0.207750D-01
  0.110000D+03  0.807269D-01
  0.355700D+02  0.233074D+00
  0.125400D+02  0.433501D+00
  0.464400D+01  0.347472D+00
  0.129300D+01  0.412620D-01
  0.511800D+00 -0.850799D-02
  0.178700D+00  0.238400D-02
   s    10 1.00
  0.114200D+05 -0.115000D-03
  0.171200D+04 -0.895000D-03
  0.389300D+03 -0.462400D-02
  0.110000D+03 -0.185280D-01
  0.355700D+02 -0.573390D-01
  0.125400D+02 -0.132076D+00
  0.464400D+01 -0.172510D+00
  0.129300D+01  0.151814D+00
  0.511800D+00  0.599944D+00
  0.178700D+00  0.387462D+00
   s     1 1.00
  0.129300D+01  0.100000D+01
   s     1 1.00
  0.178700D+00  0.100000D+01
   p     5 1.00
  0.266300D+02  0.146700D-01
  0.594800D+01  0.917640D-01
  0.174200D+01  0.298683D+00
  0.555000D+00  0.498487D+00
  0.172500D+00  0.337023D+00
   p     1 1.00
  0.174200D+01  0.100000D+01
   p     1 1.00
  0.555000D+00  0.100000D+01
   d     1 1.00
  0.165400D+01  0.100000D+01
   d     1 1.00
  0.469000D+00  0.100000D+01
   f     1 1.00
  0.109300D+01  0.100000D+01
  
  2  0
   s    10 1.00
  0.823600D+04  0.531000D-03
  0.123500D+04  0.410800D-02
  0.280800D+03  0.210870D-01
  0.792700D+02  0.818530D-01
  0.255900D+02  0.234817D+00
  0.899700D+01  0.434401D+00
  0.331900D+01  0.346129D+00
  0.905900D+00  0.393780D-01
  0.364300D+00 -0.898300D-02
  0.128500D+00  0.238500D-02
   s    10 1.00
  0.823600D+04 -0.113000D-03
  0.123500D+04 -0.878000D-03
  0.280800D+03 -0.454000D-02
  0.792700D+02 -0.181330D-01
  0.255900D+02 -0.557600D-01
  0.899700D+01 -0.126895D+00
  0.331900D+01 -0.170352D+00
  0.905900D+00  0.140382D+00
  0.364300D+00  0.598684D+00
  0.128500D+00  0.395389D+00
   s     1 1.00
  0.905900D+00  0.100000D+01
   s     1 1.00
  0.364300D+00  0.100000D+01
   p     5 1.00
  0.187100D+02  0.140310D-01
  0.413300D+01  0.868660D-01
  0.120000D+01  0.290216D+00
  0.382700D+00  0.501008D+00
  0.120900D+00  0.343406D+00
   p     1 1.00
  0.382700D+00  0.100000D+01
   p     1 1.00
  0.120900D+00  0.100000D+01
   d     1 1.00
  0.109700D+01  0.100000D+01
   d     1 1.00
  0.318000D+00  0.100000D+01
   f     1 1.00
  0.761000D+00  0.100000D+01
  
  3  0
   s    10 1.00
  0.823600D+04  0.531000D-03
  0.123500D+04  0.410800D-02
  0.280800D+03  0.210870D-01
  0.792700D+02  0.818530D-01
  0.255900D+02  0.234817D+00
  0.899700D+01  0.434401D+00
  0.331900D+01  0.346129D+00
  0.905900D+00  0.393780D-01
  0.364300D+00 -0.898300D-02
  0.128500D+00  0.238500D-02
   s    10 1.00
  0.823600D+04 -0.113000D-03
  0.123500D+04 -0.878000D-03
  0.280800D+03 -0.454000D-02
  0.792700D+02 -0.181330D-01
  0.255900D+02 -0.557600D-01
  0.899700D+01 -0.126895D+00
  0.331900D+01 -0.170352D+00
  0.905900D+00  0.140382D+00
  0.364300D+00  0.598684D+00
  0.128500D+00  0.395389D+00
   s     1 1.00
  0.905900D+00  0.100000D+01
   s     1 1.00
  0.364300D+00  0.100000D+01
   p     5 1.00
  0.187100D+02  0.140310D-01
  0.413300D+01  0.868660D-01
  0.120000D+01  0.290216D+00
  0.382700D+00  0.501008D+00
  0.120900D+00  0.343406D+00
   p     1 1.00
  0.382700D+00  0.100000D+01
   p     1 1.00
  0.120900D+00  0.100000D+01
   d     1 1.00
  0.109700D+01  0.100000D+01
   d     1 1.00
  0.318000D+00  0.100000D+01
   f     1 1.00
  0.761000D+00  0.100000D+01
  
  4  0
   s    10 1.00
  0.823600D+04  0.531000D-03
  0.123500D+04  0.410800D-02
  0.280800D+03  0.210870D-01
  0.792700D+02  0.818530D-01
  0.255900D+02  0.234817D+00
  0.899700D+01  0.434401D+00
  0.331900D+01  0.346129D+00
  0.905900D+00  0.393780D-01
  0.364300D+00 -0.898300D-02
  0.128500D+00  0.238500D-02
   s    10 1.00
  0.823600D+04 -0.113000D-03
  0.123500D+04 -0.878000D-03
  0.280800D+03 -0.454000D-02
  0.792700D+02 -0.181330D-01
  0.255900D+02 -0.557600D-01
  0.899700D+01 -0.126895D+00
  0.331900D+01 -0.170352D+00
  0.905900D+00  0.140382D+00
  0.364300D+00  0.598684D+00
  0.128500D+00  0.395389D+00
   s     1 1.00
  0.905900D+00  0.100000D+01
   s     1 1.00
  0.364300D+00  0.100000D+01
   p     5 1.00
  0.187100D+02  0.140310D-01
  0.413300D+01  0.868660D-01
  0.120000D+01  0.290216D+00
  0.382700D+00  0.501008D+00
  0.120900D+00  0.343406D+00
   p     1 1.00
  0.382700D+00  0.100000D+01
   p     1 1.00
  0.120900D+00  0.100000D+01
   d     1 1.00
  0.109700D+01  0.100000D+01
   d     1 1.00
  0.318000D+00  0.100000D+01
   f     1 1.00
  0.761000D+00  0.100000D+01
  
  5  0
   s    10 1.00
  0.823600D+04  0.531000D-03
  0.123500D+04  0.410800D-02
  0.280800D+03  0.210870D-01
  0.792700D+02  0.818530D-01
  0.255900D+02  0.234817D+00
  0.899700D+01  0.434401D+00
  0.331900D+01  0.346129D+00
  0.905900D+00  0.393780D-01
  0.364300D+00 -0.898300D-02
  0.128500D+00  0.238500D-02
   s    10 1.00
  0.823600D+04 -0.113000D-03
  0.123500D+04 -0.878000D-03
  0.280800D+03 -0.454000D-02
  0.792700D+02 -0.181330D-01
  0.255900D+02 -0.557600D-01
  0.899700D+01 -0.126895D+00
  0.331900D+01 -0.170352D+00
  0.905900D+00  0.140382D+00
  0.364300D+00  0.598684D+00
  0.128500D+00  0.395389D+00
   s     1 1.00
  0.905900D+00  0.100000D+01
   s     1 1.00
  0.364300D+00  0.100000D+01
   p     5 1.00
  0.187100D+02  0.140310D-01
  0.413300D+01  0.868660D-01
  0.120000D+01  0.290216D+00
  0.382700D+00  0.501008D+00
  0.120900D+00  0.343406D+00
   p     1 1.00
  0.382700D+00  0.100000D+01
   p     1 1.00
  0.120900D+00  0.100000D+01
   d     1 1.00
  0.109700D+01  0.100000D+01
   d     1 1.00
  0.318000D+00  0.100000D+01
   f     1 1.00
  0.761000D+00  0.100000D+01
  
  6  0
   s    10 1.00
  0.823600D+04  0.531000D-03
  0.123500D+04  0.410800D-02
  0.280800D+03  0.210870D-01
  0.792700D+02  0.818530D-01
  0.255900D+02  0.234817D+00
  0.899700D+01  0.434401D+00
  0.331900D+01  0.346129D+00
  0.905900D+00  0.393780D-01
  0.364300D+00 -0.898300D-02
  0.128500D+00  0.238500D-02
   s    10 1.00
  0.823600D+04 -0.113000D-03
  0.123500D+04 -0.878000D-03
  0.280800D+03 -0.454000D-02
  0.792700D+02 -0.181330D-01
  0.255900D+02 -0.557600D-01
  0.899700D+01 -0.126895D+00
  0.331900D+01 -0.170352D+00
  0.905900D+00  0.140382D+00
  0.364300D+00  0.598684D+00
  0.128500D+00  0.395389D+00
   s     1 1.00
  0.905900D+00  0.100000D+01
   s     1 1.00
  0.364300D+00  0.100000D+01
   p     5 1.00
  0.187100D+02  0.140310D-01
  0.413300D+01  0.868660D-01
  0.120000D+01  0.290216D+00
  0.382700D+00  0.501008D+00
  0.120900D+00  0.343406D+00
   p     1 1.00
  0.382700D+00  0.100000D+01
   p     1 1.00
  0.120900D+00  0.100000D+01
   d     1 1.00
  0.109700D+01  0.100000D+01
   d     1 1.00
  0.318000D+00  0.100000D+01
   f     1 1.00
  0.761000D+00  0.100000D+01
  
  7  0
   s    10 1.00
  0.823600D+04  0.531000D-03
  0.123500D+04  0.410800D-02
  0.280800D+03  0.210870D-01
  0.792700D+02  0.818530D-01
  0.255900D+02  0.234817D+00
  0.899700D+01  0.434401D+00
  0.331900D+01  0.346129D+00
  0.905900D+00  0.393780D-01
  0.364300D+00 -0.898300D-02
  0.128500D+00  0.238500D-02
   s    10 1.00
  0.823600D+04 -0.113000D-03
  0.123500D+04 -0.878000D-03
  0.280800D+03 -0.454000D-02
  0.792700D+02 -0.181330D-01
  0.255900D+02 -0.557600D-01
  0.899700D+01 -0.126895D+00
  0.331900D+01 -0.170352D+00
  0.905900D+00  0.140382D+00
  0.364300D+00  0.598684D+00
  0.128500D+00  0.395389D+00
   s     1 1.00
  0.905900D+00  0.100000D+01
   s     1 1.00
  0.364300D+00  0.100000D+01
   p     5 1.00
  0.187100D+02  0.140310D-01
  0.413300D+01  0.868660D-01
  0.120000D+01  0.290216D+00
  0.382700D+00  0.501008D+00
  0.120900D+00  0.343406D+00
   p     1 1.00
  0.382700D+00  0.100000D+01
   p     1 1.00
  0.120900D+00  0.100000D+01
   d     1 1.00
  0.109700D+01  0.100000D+01
   d     1 1.00
  0.318000D+00  0.100000D+01
   f     1 1.00
  0.761000D+00  0.100000D+01
  
  8  0
   s     4 1.00
  0.130100D+02  0.196850D-01
  0.196200D+01  0.137977D+00
  0.444600D+00  0.478148D+00
  0.122000D+00  0.501240D+00
   s     1 1.00
  0.122000D+00  0.100000D+01
   p     1 1.00
  0.727000D+00  0.100000D+01
  
  9  0
   s     4 1.00
  0.130100D+02  0.196850D-01
  0.196200D+01  0.137977D+00
  0.444600D+00  0.478148D+00
  0.122000D+00  0.501240D+00
   s     1 1.00
  0.122000D+00  0.100000D+01
   p     1 1.00
  0.727000D+00  0.100000D+01
  
 10  0
   s     4 1.00
  0.130100D+02  0.196850D-01
  0.196200D+01  0.137977D+00
  0.444600D+00  0.478148D+00
  0.122000D+00  0.501240D+00
   s     1 1.00
  0.122000D+00  0.100000D+01
   p     1 1.00
  0.727000D+00  0.100000D+01
  
 11  0
   s     4 1.00
  0.130100D+02  0.196850D-01
  0.196200D+01  0.137977D+00
  0.444600D+00  0.478148D+00
  0.122000D+00  0.501240D+00
   s     1 1.00
  0.122000D+00  0.100000D+01
   p     1 1.00
  0.727000D+00  0.100000D+01
  
 12  0
   s     4 1.00
  0.130100D+02  0.196850D-01
  0.196200D+01  0.137977D+00
  0.444600D+00  0.478148D+00
  0.122000D+00  0.501240D+00
   s     1 1.00
  0.122000D+00  0.100000D+01
   p     1 1.00
  0.727000D+00  0.100000D+01
  
 13  0
   s     4 1.00
  0.130100D+02  0.196850D-01
  0.196200D+01  0.137977D+00
  0.444600D+00  0.478148D+00
  0.122000D+00  0.501240D+00
   s     1 1.00
  0.122000D+00  0.100000D+01
   p     1 1.00
  0.727000D+00  0.100000D+01
  
 14  0
   s     4 1.00
  0.130100D+02  0.196850D-01
  0.196200D+01  0.137977D+00
  0.444600D+00  0.478148D+00
  0.122000D+00  0.501240D+00
   s     1 1.00
  0.122000D+00  0.100000D+01
   p     1 1.00
  0.727000D+00  0.100000D+01
  
[MO]
 Sym= __1_a__
 Ene=  0.000000000000000E+000
 Spin= Alpha
 Occup=    2.00000000000000     
                     1  2.278813967492760E-004
                     2  0.998103521202845     
                     3 -1.265574233708400E-004
                     4  1.941394560576620E-003
                     5  6.576605508918090E-003
                     6  6.079144225026930E-003
                     7 -4.191219419184440E-003
                     8  4.842760935303070E-003
                     9 -9.358985778503840E-004
                    10  3.306712272105080E-004
                    11 -5.834311507544640E-004
                    12 -1.862726181732480E-003
                    13  2.692578342452680E-003
                    14 -2.760976314890720E-003
                    15  7.044705097450715E-006
                    16 -6.430895461257761E-005
                    17 -2.637130226689000E-005
                    18  4.070938559576420E-005
                    19  3.742579302142210E-005
                    20 -2.070834581487243E-004
                    21  4.838483584767240E-004
                    22 -2.207469833174780E-004
                    23  1.517921863729488E-004
                    24 -3.776359550320330E-004
                    25 -3.268354819824672E-005
                    26 -1.029233432712179E-004
                    27  4.566799196123103E-005
                    28  5.252090859125340E-005
                    29 -1.223181948401810E-005
                    30 -9.978737584533749E-005
                    31 -1.514159688892613E-005
                    32 -3.369122963223140E-004
                    33  5.641648774442900E-004
                    34  2.559760060220780E-004
                    35 -6.254349843072730E-005
                    36 -3.229912876276890E-003
                    37 -2.523983687526960E-004
                    38 -2.522720304592420E-004
                    39  2.026202649298580E-004
                    40 -8.713344348889281E-005
                    41  8.271366520769729E-004
                    42  4.745414293893160E-003
                    43  7.499737163877570E-004
                    44 -3.289418955537250E-003
                    45 -1.768302088741135E-004
                    46  2.529394002200410E-005
                    47  1.374035636316430E-005
                    48  1.760861986534520E-004
                    49  3.871434609711350E-005
                    50  5.332556296476047E-004
                    51  6.509579482670880E-004
                    52 -9.594800115163030E-005
                    53 -1.439299811140154E-004
                    54 -3.263541765659010E-004
                    55  3.836849508662610E-005
                    56 -4.409353885926828E-005
                    57 -1.745751515484624E-006
                    58  3.861563879586920E-005
                    59  1.598330788713790E-006
                    60 -3.471958403712491E-005
                    61  1.725052328456822E-005
                    62 -7.035899404671620E-004
                    63 -2.668327801632770E-003
                    64 -4.618046978425740E-005
                    65  2.457357243231550E-003
                    66  1.766434506617440E-004
                    67 -1.553423225821900E-004
                    68 -5.151557959397090E-004
                    69  8.647309404704640E-004
                    70  4.837376985113610E-006
                    71  5.909840323294841E-004
                    72  1.576664523640630E-003
                    73 -8.872434970473149E-005
                    74 -1.497107444217850E-003
                    75 -5.998571057273198E-005
                    76 -3.606469683219950E-005
                    77  1.165614340772690E-005
                    78  7.903899468566079E-005
                    79 -7.806149354017120E-007
                    80  4.276637008050236E-004
                    81  1.885903089593300E-004
                    82 -7.832352473363590E-005
                    83 -5.873798875519200E-005
                    84  7.099948520510590E-006
                    85 -2.361071957603097E-005
                    86 -1.351212274776809E-004
                    87  1.276259877185586E-005
                    88  7.184742508672860E-006
                    89  1.733820789370520E-005
                    90 -7.126122938451294E-005
                    91 -1.090500487020938E-005
                    92 -3.036024473546280E-005
                    93 -5.011484126280289E-004
                    94  2.697466059101850E-004
                    95 -8.766559767150520E-004
                    96  4.276053460486760E-004
                    97 -1.853386894270320E-004
                    98  3.151514789065970E-004
                    99  2.637072047190120E-004
                   100  4.364415138553140E-005
                   101  4.008402451373410E-004
                   102 -2.342985260252670E-003
                   103 -1.955743952720900E-004
                   104  1.600321864551710E-004
                   105 -5.777367826107347E-005
                   106 -3.386665013634460E-006
                   107 -3.632971450172380E-006
                   108  3.580678821683340E-005
                   109 -5.712952860335250E-006
                   110 -6.694960629628428E-005
                   111 -2.071778160216370E-004
                   112  2.087269306470040E-005
                   113 -2.317219140075860E-004
                   114  5.139816338264930E-005
                   115 -1.994740715457555E-005
                   116  3.476452330449856E-005
                   117  1.287519822696312E-005
                   118  1.847482496475044E-005
                   119 -1.147623529624160E-005
                   120 -1.279538316506551E-005
                   121 -6.685477718171640E-006
                   122 -3.073766306563540E-004
                   123 -8.073142087103230E-004
                   124  1.091737659526700E-004
                   125  8.877939819341200E-004
                   126 -4.006899481317620E-004
                   127 -5.068154864896800E-005
                   128 -3.207337143790730E-005
                   129  5.533766635609710E-004
                   130 -2.910487840664440E-005
                   131  2.679208291609100E-004
                   132  2.790971858726320E-003
                   133  5.066892579780250E-005
                   134  4.501101514022640E-004
                   135  3.065853438686872E-005
                   136  1.258998244250510E-007
                   137 -4.863029902489110E-006
                   138 -1.669522194219384E-005
                   139  8.773593679051160E-006
                   140  2.474587240254786E-004
                   141  3.682513022594830E-004
                   142  1.476083850143160E-006
                   143 -3.782169555212460E-004
                   144 -2.790547082234100E-005
                   145 -3.606477368133396E-005
                   146 -2.301038161329772E-005
                   147 -3.132211095198743E-006
                   148 -1.395855681782824E-005
                   149 -5.041985778221980E-006
                   150 -8.218443144611845E-005
                   151 -1.923061289622296E-006
                   152 -1.377448153324610E-004
                   153 -2.459340183628200E-004
                   154 -3.029000378154170E-005
                   155  4.958066611978110E-004
                   156 -3.194708219168200E-004
                   157 -3.744201083621810E-005
                   158 -5.813491060880580E-005
                   159 -1.886444351109980E-004
                   160 -3.503927615080660E-005
                   161  2.429969253716930E-004
                   162 -1.099076881797480E-003
                   163  5.653237528163710E-006
                   164  9.241219882859360E-004
                   165 -1.885064435922040E-005
                   166  8.786249700938220E-006
                   167  2.353928709141360E-006
                   168  1.723869449594734E-005
                   169  5.347092110161280E-006
                   170 -8.260082422650426E-005
                   171 -2.197642328507390E-005
                   172  1.139927907081150E-005
                   173  3.226805932829760E-005
                   174  7.778730681158200E-006
                   175 -1.211067266727528E-005
                   176 -5.083855191594828E-006
                   177  4.066582368618855E-007
                   178 -6.776494855655040E-006
                   179  2.217908613145750E-007
                   180 -2.365130747700466E-006
                   181 -3.251394128257538E-006
                   182 -1.537729443306750E-004
                   183 -4.773930389983650E-004
                   184  3.700154629174860E-005
                   185  1.982925201642940E-004
                   186 -1.941137235746580E-005
                   187 -6.965772869012090E-006
                   188 -8.711131809625540E-005
                   189  9.106178536690281E-005
                   190 -1.193108253380950E-005
                   191  3.918686872428920E-004
                   192 -4.256877300743250E-004
                   193 -1.803228558198470E-004
                   194  2.130451247155290E-003
                   195 -6.442882946660934E-006
                   196  4.460416265379740E-006
                   197  3.809386842936480E-007
                   198  1.701365863560830E-006
                   199 -3.470943273273810E-007
                   200 -1.303036073442693E-004
                   201 -3.210775245903440E-004
                   202  1.382012459264340E-005
                   203  6.603944426778740E-005
                   204  2.737181475891270E-005
                   205  3.604627985432509E-006
                   206  3.136165832390459E-006
                   207 -3.508314172402682E-007
                   208  2.471815902584680E-005
                   209 -1.967735468368670E-006
                   210 -4.608236324218308E-006
                   211 -3.241974853902535E-006
                   212  1.177536144016660E-003
                   213 -1.431031981900360E-003
                   214  1.175178706052960E-004
                   215  3.487379771267610E-004
                   216  4.152896864039670E-005
                   217  1.955282519247340E-003
                   218 -1.778267281047390E-003
                   219  1.595508355178440E-004
                   220  1.904513214686290E-005
                   221 -4.347431516915510E-004
                   222 -4.565813903635360E-004
                   223 -2.172262586985350E-004
                   224 -9.708939804435529E-005
                   225  3.653373085456240E-006
                   226  4.173962287681920E-005
                   227 -2.758513086776500E-004
                   228 -5.234642681391060E-004
                   229 -2.896080586773420E-005
                   230  1.427413007708570E-005
                   231 -5.042880866240310E-005
                   232  1.864873441933370E-005
                   233 -7.113013637469890E-004
                   234 -1.724256335802350E-006
                   235 -1.330506033460810E-006
                   236  3.528858964356570E-006
                   237 -1.228341791210000E-004
                   238 -2.501242841724310E-004
                   239  1.898218511251190E-005
                   240 -3.718932439182120E-006
                   241  2.162091149749540E-005
                   242 -1.629943299704340E-005
                   243  1.208651842217570E-004
                   244  3.051262953897700E-005
                   245  1.710482756211540E-006
                   246  1.701923571620640E-006
 Sym= __2_a__
 Ene=  0.000000000000000E+000
 Spin= Alpha
 Occup=    2.00000000000000     
                     1 -2.897998596720710E-006
                     2 -8.897027138933030E-005
                     3  1.538887013307780E-003
                     4 -2.214258466655220E-005
                     5  1.191994258898800E-003
                     6  1.578474917368660E-003
                     7 -3.308866194979140E-005
                     8 -1.908311748053430E-004
                     9 -1.561759891115260E-004
                    10  1.072111055844350E-004
                    11 -3.366106913830120E-005
                    12  1.599348895658480E-004
                    13  1.426849518216100E-004
                    14  3.446792091170660E-005
                    15 -6.149374833143205E-005
                    16  1.667594819474630E-005
                    17 -6.920168794014560E-006
                    18  4.608813290011460E-005
                    19 -1.187697983434230E-006
                    20  1.089462771355653E-004
                    21 -7.144709302583319E-005
                    22  2.900800700485350E-005
                    23  1.224815352004502E-004
                    24 -6.406516405698491E-005
                    25 -5.933245635773035E-005
                    26  1.276916992339469E-004
                    27  2.661807971001719E-006
                    28 -1.708436198933770E-005
                    29 -5.790963588958930E-006
                    30  1.242113908933625E-004
                    31  3.477203018702628E-005
                    32   1.00090654680188     
                    33  8.685619186172890E-003
                    34  2.833101677988740E-003
                    35 -8.366681834609650E-003
                    36 -2.100044289378830E-003
                    37  4.357717842494770E-004
                    38  7.720665656607540E-005
                    39  1.056096134995790E-003
                    40 -1.671478799683690E-004
                    41 -1.911551840691590E-004
                    42  2.973350689602340E-003
                    43 -1.208663676168120E-004
                    44 -1.564374241548300E-004
                    45  3.063336620466499E-004
                    46  1.747055519715500E-005
                    47 -5.177178387449390E-005
                    48  3.651834629848400E-004
                    49 -9.555209986719460E-006
                    50 -9.948786291564286E-004
                    51 -2.146606938612190E-004
                    52  1.490242685284070E-004
                    53 -1.488055488098530E-004
                    54  1.771803531014220E-005
                    55 -1.180765349506780E-005
                    56  2.799906266450010E-004
                    57 -1.066208548879080E-005
                    58 -2.067783048342760E-005
                    59 -1.842886775539150E-005
                    60  7.057628248090773E-005
                    61  1.234868359384683E-005
                    62  1.436533093241620E-002
                    63 -1.747455824733930E-003
                    64 -2.862700221466740E-004
                    65  2.925510874734650E-003
                    66 -1.835302122030340E-004
                    67  3.430834049593890E-005
                    68  3.274657568947120E-004
                    69  3.221445967050090E-005
                    70 -2.925420393680390E-005
                    71  3.729644974772780E-004
                    72  4.290759423054490E-004
                    73  1.497526108002110E-004
                    74 -1.795272184126700E-003
                    75 -2.907931145720539E-006
                    76  2.549520803417970E-005
                    77  6.145075199875830E-006
                    78 -4.078409984346900E-005
                    79 -2.860798136998140E-006
                    80 -4.714856177402043E-004
                    81 -4.028001673893730E-004
                    82  2.252126943989890E-005
                    83  7.914189666702660E-004
                    84  1.190042370020500E-005
                    85  4.235540881200391E-005
                    86  1.068589831615226E-004
                    87  1.568110616683888E-005
                    88 -1.982452127808972E-005
                    89 -2.090027336272010E-005
                    90 -2.440294886245568E-005
                    91  2.013084284540230E-006
                    92  1.617062267900870E-002
                    93 -1.689354836898350E-003
                    94 -3.373731753974970E-004
                    95  3.268434654000580E-003
                    96 -2.247305422508640E-004
                    97  8.223026816203161E-005
                    98 -3.162681061341010E-004
                    99 -4.969402730239590E-005
                   100  5.610186921347370E-005
                   101 -6.661284641054520E-004
                   102  8.135974057283930E-005
                   103 -1.163255278483050E-004
                   104  1.654665343413770E-003
                   105  3.072385564446574E-006
                   106 -1.266202358838350E-005
                   107 -1.070387061125220E-007
                   108 -3.098492259607440E-005
                   109 -1.773308314600150E-006
                   110 -3.035402536489251E-004
                   111  4.876865516141810E-004
                   112 -2.886030070756050E-005
                   113  6.808046634952800E-004
                   114 -3.996386120021300E-005
                   115 -5.004028832166628E-005
                   116  9.427861399951496E-005
                   117 -8.659197647564877E-006
                   118  2.079941916380180E-005
                   119 -7.903116066467671E-006
                   120 -3.252500178016893E-005
                   121  1.161440516564698E-006
                   122 -1.181366381578380E-004
                   123 -7.663113844901910E-004
                   124  2.411008353092480E-004
                   125 -2.857837648218520E-004
                   126 -1.574597979918140E-004
                   127  1.451324097999100E-005
                   128 -5.363391995739640E-005
                   129  6.109708035753130E-004
                   130 -1.541356393333270E-005
                   131  7.757011319579009E-005
                   132  6.662901298064780E-004
                   133 -3.886784129093230E-005
                   134  4.183998719443280E-004
                   135  6.176564334873573E-007
                   136  3.966900548837900E-005
                   137  1.668282400412510E-006
                   138 -3.441590037019000E-005
                   139 -3.516494487446280E-006
                   140  1.982240672473153E-004
                   141 -2.640655687491580E-004
                   142 -3.213538471703290E-006
                   143 -2.464333129988980E-004
                   144  2.310224491117990E-005
                   145 -1.566366985081379E-005
                   146  1.446528943454242E-005
                   147 -2.363570377355783E-006
                   148 -8.653827772042200E-006
                   149 -3.748392929106120E-006
                   150 -2.131981357442957E-005
                   151  8.650162572459297E-007
                   152 -7.147777036214210E-005
                   153 -7.403661820430660E-004
                   154  2.479887988940620E-004
                   155 -2.859332872362330E-004
                   156 -1.334856943963420E-004
                   157 -3.753271041585690E-006
                   158  3.448938850177330E-005
                   159  5.373940938427570E-004
                   160  5.215980912171370E-006