[Molden Format]
[Atoms] AU
  N     1    7     0.0000000000    0.0000000000   -4.3133247800        
  C     2    6     0.0000000000    0.0000000000   -1.7589987800        
  C     3    6     0.0000000000   -2.3655248300   -0.4706409600        
  C     4    6     0.0000000000    2.3655248300   -0.4706409600        
  C     5    6     0.0000000000   -2.3322893200    2.2153052700        
  C     6    6     0.0000000000    2.3322893200    2.2153052700        
  C     7    6     0.0000000000    0.0000000000    3.4490011900        
  H     8    1     0.0000000000   -1.6450413100   -5.2806810700        
  H     9    1     0.0000000000    1.6450413100   -5.2806810700        
  H    10    1     0.0000000000   -4.0860088200   -1.5343422800        
  H    11    1     0.0000000000    4.0860088200   -1.5343422800        
  H    12    1     0.0000000000   -4.0519601400    3.2782653600        
  H    13    1     0.0000000000    4.0519601400    3.2782653600        
  H    14    1     0.0000000000    0.0000000000    5.4835994000        
[5D]
[7F]
[GTO]
  1  0
   s    12 1.00
  0.114200D+05  0.172695D-04
  0.171200D+04  0.134411D-03
  0.389300D+03  0.694561D-03
  0.110000D+03  0.278531D-02
  0.355700D+02  0.863457D-02
  0.125400D+02  0.199805D-01
  0.464400D+01  0.262908D-01
  0.129300D+01 -0.243845D-01
  0.511800D+00 -0.924934D-01
  0.178700D+00 -0.339683D+00
  0.246240D-01  0.345111D+00
  0.112530D-01  0.752750D+00
   s    10 1.00
  0.114200D+05  0.523000D-03
  0.171200D+04  0.404500D-02
  0.389300D+03  0.207750D-01
  0.110000D+03  0.807269D-01
  0.355700D+02  0.233074D+00
  0.125400D+02  0.433501D+00
  0.464400D+01  0.347472D+00
  0.129300D+01  0.412620D-01
  0.511800D+00 -0.850799D-02
  0.178700D+00  0.238400D-02
   s    10 1.00
  0.114200D+05 -0.115000D-03
  0.171200D+04 -0.895000D-03
  0.389300D+03 -0.462400D-02
  0.110000D+03 -0.185280D-01
  0.355700D+02 -0.573390D-01
  0.125400D+02 -0.132076D+00
  0.464400D+01 -0.172510D+00
  0.129300D+01  0.151814D+00
  0.511800D+00  0.599944D+00
  0.178700D+00  0.387462D+00
   s     1 1.00
  0.129300D+01  0.100000D+01
   s     1 1.00
  0.178700D+00  0.100000D+01
   p     5 1.00
  0.266300D+02  0.146700D-01
  0.594800D+01  0.917640D-01
  0.174200D+01  0.298683D+00
  0.555000D+00  0.498487D+00
  0.172500D+00  0.337023D+00
   p     1 1.00
  0.174200D+01  0.100000D+01
   p     1 1.00
  0.555000D+00  0.100000D+01
   d     1 1.00
  0.165400D+01  0.100000D+01
   d     1 1.00
  0.469000D+00  0.100000D+01
   f     1 1.00
  0.109300D+01  0.100000D+01
  
  2  0
   s    10 1.00
  0.823600D+04  0.531000D-03
  0.123500D+04  0.410800D-02
  0.280800D+03  0.210870D-01
  0.792700D+02  0.818530D-01
  0.255900D+02  0.234817D+00
  0.899700D+01  0.434401D+00
  0.331900D+01  0.346129D+00
  0.905900D+00  0.393780D-01
  0.364300D+00 -0.898300D-02
  0.128500D+00  0.238500D-02
   s    10 1.00
  0.823600D+04 -0.113000D-03
  0.123500D+04 -0.878000D-03
  0.280800D+03 -0.454000D-02
  0.792700D+02 -0.181330D-01
  0.255900D+02 -0.557600D-01
  0.899700D+01 -0.126895D+00
  0.331900D+01 -0.170352D+00
  0.905900D+00  0.140382D+00
  0.364300D+00  0.598684D+00
  0.128500D+00  0.395389D+00
   s     1 1.00
  0.905900D+00  0.100000D+01
   s     1 1.00
  0.364300D+00  0.100000D+01
   p     5 1.00
  0.187100D+02  0.140310D-01
  0.413300D+01  0.868660D-01
  0.120000D+01  0.290216D+00
  0.382700D+00  0.501008D+00
  0.120900D+00  0.343406D+00
   p     1 1.00
  0.382700D+00  0.100000D+01
   p     1 1.00
  0.120900D+00  0.100000D+01
   d     1 1.00
  0.109700D+01  0.100000D+01
   d     1 1.00
  0.318000D+00  0.100000D+01
   f     1 1.00
  0.761000D+00  0.100000D+01
  
  3  0
   s    10 1.00
  0.823600D+04  0.531000D-03
  0.123500D+04  0.410800D-02
  0.280800D+03  0.210870D-01
  0.792700D+02  0.818530D-01
  0.255900D+02  0.234817D+00
  0.899700D+01  0.434401D+00
  0.331900D+01  0.346129D+00
  0.905900D+00  0.393780D-01
  0.364300D+00 -0.898300D-02
  0.128500D+00  0.238500D-02
   s    10 1.00
  0.823600D+04 -0.113000D-03
  0.123500D+04 -0.878000D-03
  0.280800D+03 -0.454000D-02
  0.792700D+02 -0.181330D-01
  0.255900D+02 -0.557600D-01
  0.899700D+01 -0.126895D+00
  0.331900D+01 -0.170352D+00
  0.905900D+00  0.140382D+00
  0.364300D+00  0.598684D+00
  0.128500D+00  0.395389D+00
   s     1 1.00
  0.905900D+00  0.100000D+01
   s     1 1.00
  0.364300D+00  0.100000D+01
   p     5 1.00
  0.187100D+02  0.140310D-01
  0.413300D+01  0.868660D-01
  0.120000D+01  0.290216D+00
  0.382700D+00  0.501008D+00
  0.120900D+00  0.343406D+00
   p     1 1.00
  0.382700D+00  0.100000D+01
   p     1 1.00
  0.120900D+00  0.100000D+01
   d     1 1.00
  0.109700D+01  0.100000D+01
   d     1 1.00
  0.318000D+00  0.100000D+01
   f     1 1.00
  0.761000D+00  0.100000D+01
  
  4  0
   s    10 1.00
  0.823600D+04  0.531000D-03
  0.123500D+04  0.410800D-02
  0.280800D+03  0.210870D-01
  0.792700D+02  0.818530D-01
  0.255900D+02  0.234817D+00
  0.899700D+01  0.434401D+00
  0.331900D+01  0.346129D+00
  0.905900D+00  0.393780D-01
  0.364300D+00 -0.898300D-02
  0.128500D+00  0.238500D-02
   s    10 1.00
  0.823600D+04 -0.113000D-03
  0.123500D+04 -0.878000D-03
  0.280800D+03 -0.454000D-02
  0.792700D+02 -0.181330D-01
  0.255900D+02 -0.557600D-01
  0.899700D+01 -0.126895D+00
  0.331900D+01 -0.170352D+00
  0.905900D+00  0.140382D+00
  0.364300D+00  0.598684D+00
  0.128500D+00  0.395389D+00
   s     1 1.00
  0.905900D+00  0.100000D+01
   s     1 1.00
  0.364300D+00  0.100000D+01
   p     5 1.00
  0.187100D+02  0.140310D-01
  0.413300D+01  0.868660D-01
  0.120000D+01  0.290216D+00
  0.382700D+00  0.501008D+00
  0.120900D+00  0.343406D+00
   p     1 1.00
  0.382700D+00  0.100000D+01
   p     1 1.00
  0.120900D+00  0.100000D+01
   d     1 1.00
  0.109700D+01  0.100000D+01
   d     1 1.00
  0.318000D+00  0.100000D+01
   f     1 1.00
  0.761000D+00  0.100000D+01
  
  5  0
   s    10 1.00
  0.823600D+04  0.531000D-03
  0.123500D+04  0.410800D-02
  0.280800D+03  0.210870D-01
  0.792700D+02  0.818530D-01
  0.255900D+02  0.234817D+00
  0.899700D+01  0.434401D+00
  0.331900D+01  0.346129D+00
  0.905900D+00  0.393780D-01
  0.364300D+00 -0.898300D-02
  0.128500D+00  0.238500D-02
   s    10 1.00
  0.823600D+04 -0.113000D-03
  0.123500D+04 -0.878000D-03
  0.280800D+03 -0.454000D-02
  0.792700D+02 -0.181330D-01
  0.255900D+02 -0.557600D-01
  0.899700D+01 -0.126895D+00
  0.331900D+01 -0.170352D+00
  0.905900D+00  0.140382D+00
  0.364300D+00  0.598684D+00
  0.128500D+00  0.395389D+00
   s     1 1.00
  0.905900D+00  0.100000D+01
   s     1 1.00
  0.364300D+00  0.100000D+01
   p     5 1.00
  0.187100D+02  0.140310D-01
  0.413300D+01  0.868660D-01
  0.120000D+01  0.290216D+00
  0.382700D+00  0.501008D+00
  0.120900D+00  0.343406D+00
   p     1 1.00
  0.382700D+00  0.100000D+01
   p     1 1.00
  0.120900D+00  0.100000D+01
   d     1 1.00
  0.109700D+01  0.100000D+01
   d     1 1.00
  0.318000D+00  0.100000D+01
   f     1 1.00
  0.761000D+00  0.100000D+01
  
  6  0
   s    10 1.00
  0.823600D+04  0.531000D-03
  0.123500D+04  0.410800D-02
  0.280800D+03  0.210870D-01
  0.792700D+02  0.818530D-01
  0.255900D+02  0.234817D+00
  0.899700D+01  0.434401D+00
  0.331900D+01  0.346129D+00
  0.905900D+00  0.393780D-01
  0.364300D+00 -0.898300D-02
  0.128500D+00  0.238500D-02
   s    10 1.00
  0.823600D+04 -0.113000D-03
  0.123500D+04 -0.878000D-03
  0.280800D+03 -0.454000D-02
  0.792700D+02 -0.181330D-01
  0.255900D+02 -0.557600D-01
  0.899700D+01 -0.126895D+00
  0.331900D+01 -0.170352D+00
  0.905900D+00  0.140382D+00
  0.364300D+00  0.598684D+00
  0.128500D+00  0.395389D+00
   s     1 1.00
  0.905900D+00  0.100000D+01
   s     1 1.00
  0.364300D+00  0.100000D+01
   p     5 1.00
  0.187100D+02  0.140310D-01
  0.413300D+01  0.868660D-01
  0.120000D+01  0.290216D+00
  0.382700D+00  0.501008D+00
  0.120900D+00  0.343406D+00
   p     1 1.00
  0.382700D+00  0.100000D+01
   p     1 1.00
  0.120900D+00  0.100000D+01
   d     1 1.00
  0.109700D+01  0.100000D+01
   d     1 1.00
  0.318000D+00  0.100000D+01
   f     1 1.00
  0.761000D+00  0.100000D+01
  
  7  0
   s    10 1.00
  0.823600D+04  0.531000D-03
  0.123500D+04  0.410800D-02
  0.280800D+03  0.210870D-01
  0.792700D+02  0.818530D-01
  0.255900D+02  0.234817D+00
  0.899700D+01  0.434401D+00
  0.331900D+01  0.346129D+00
  0.905900D+00  0.393780D-01
  0.364300D+00 -0.898300D-02
  0.128500D+00  0.238500D-02
   s    10 1.00
  0.823600D+04 -0.113000D-03
  0.123500D+04 -0.878000D-03
  0.280800D+03 -0.454000D-02
  0.792700D+02 -0.181330D-01
  0.255900D+02 -0.557600D-01
  0.899700D+01 -0.126895D+00
  0.331900D+01 -0.170352D+00
  0.905900D+00  0.140382D+00
  0.364300D+00  0.598684D+00
  0.128500D+00  0.395389D+00
   s     1 1.00
  0.905900D+00  0.100000D+01
   s     1 1.00
  0.364300D+00  0.100000D+01
   p     5 1.00
  0.187100D+02  0.140310D-01
  0.413300D+01  0.868660D-01
  0.120000D+01  0.290216D+00
  0.382700D+00  0.501008D+00
  0.120900D+00  0.343406D+00
   p     1 1.00
  0.382700D+00  0.100000D+01
   p     1 1.00
  0.120900D+00  0.100000D+01
   d     1 1.00
  0.109700D+01  0.100000D+01
   d     1 1.00
  0.318000D+00  0.100000D+01
   f     1 1.00
  0.761000D+00  0.100000D+01
  
  8  0
   s     4 1.00
  0.130100D+02  0.196850D-01
  0.196200D+01  0.137977D+00
  0.444600D+00  0.478148D+00
  0.122000D+00  0.501240D+00
   s     1 1.00
  0.122000D+00  0.100000D+01
   p     1 1.00
  0.727000D+00  0.100000D+01
  
  9  0
   s     4 1.00
  0.130100D+02  0.196850D-01
  0.196200D+01  0.137977D+00
  0.444600D+00  0.478148D+00
  0.122000D+00  0.501240D+00
   s     1 1.00
  0.122000D+00  0.100000D+01
   p     1 1.00
  0.727000D+00  0.100000D+01
  
 10  0
   s     4 1.00
  0.130100D+02  0.196850D-01
  0.196200D+01  0.137977D+00
  0.444600D+00  0.478148D+00
  0.122000D+00  0.501240D+00
   s     1 1.00
  0.122000D+00  0.100000D+01
   p     1 1.00
  0.727000D+00  0.100000D+01
  
 11  0
   s     4 1.00
  0.130100D+02  0.196850D-01
  0.196200D+01  0.137977D+00
  0.444600D+00  0.478148D+00
  0.122000D+00  0.501240D+00
   s     1 1.00
  0.122000D+00  0.100000D+01
   p     1 1.00
  0.727000D+00  0.100000D+01
  
 12  0
   s     4 1.00
  0.130100D+02  0.196850D-01
  0.196200D+01  0.137977D+00
  0.444600D+00  0.478148D+00
  0.122000D+00  0.501240D+00
   s     1 1.00
  0.122000D+00  0.100000D+01
   p     1 1.00
  0.727000D+00  0.100000D+01
  
 13  0
   s     4 1.00
  0.130100D+02  0.196850D-01
  0.196200D+01  0.137977D+00
  0.444600D+00  0.478148D+00
  0.122000D+00  0.501240D+00
   s     1 1.00
  0.122000D+00  0.100000D+01
   p     1 1.00
  0.727000D+00  0.100000D+01
  
 14  0
   s     4 1.00
  0.130100D+02  0.196850D-01
  0.196200D+01  0.137977D+00
  0.444600D+00  0.478148D+00
  0.122000D+00  0.501240D+00
   s     1 1.00
  0.122000D+00  0.100000D+01
   p     1 1.00
  0.727000D+00  0.100000D+01
  
[MO]
 Sym= __1_A__
 Ene=   1.00000000000000     
 Spin= Alpha
 Occup=    1.00000000000000     
                     1  4.092710404512526E-005
                     2  0.998050016793473     
                     3  8.144037872592259E-003
                     4  2.115545677023789E-003
                     5  1.687836821392443E-003
                     6  1.784128086610071E-012
                     7  2.845602035423838E-009
                     8  4.123445108302877E-003
                     9 -5.438992966481842E-012
                    10  9.468837182052683E-009
                    11 -1.401539319185750E-004
                    12  3.414384389476317E-012
                    13 -5.224658602827970E-008
                    14 -1.595907096628761E-004
                    15  2.119714212172901E-004
                    16 -1.702274520594180E-012
                    17 -2.786205014281420E-010
                    18 -1.337265496938288E-004
                    19  3.539977166284512E-013
                    20  1.187518584637385E-004
                    21  2.762251077829465E-012
                    22  2.055169932234129E-009
                    23  5.657139786784283E-004
                    24 -5.464651504007645E-013
                    25 -1.736122870165977E-004
                    26 -1.243287597111959E-012
                    27 -1.663673862691334E-009
                    28  1.038938701950777E-004
                    29 -5.078099643424327E-013
                    30  3.510193984927054E-013
                    31  9.232862981300889E-010
                    32 -3.167168599294198E-004
                    33  2.280706337288429E-003
                    34  6.007667654998029E-005
                    35 -3.908094398307594E-005
                    36  1.113880205432389E-012
                    37  2.151133667931051E-008
                    38 -6.386139911693111E-003
                    39  4.195976069503142E-012
                    40 -8.344944047210648E-008
                    41  1.122874154721892E-004
                    42  1.709262427250940E-012
                    43 -7.955009741217755E-008
                    44  4.027385739932485E-003
                    45  3.493331874722715E-004
                    46 -3.410418472313523E-012
                    47  5.789672904738332E-009
                    48  1.346321737638727E-004
                    49  8.921688771484311E-013
                    50  8.040555623653371E-005
                    51  8.400858318005839E-012
                    52 -1.181876302482702E-007
                    53 -4.552815575933890E-004
                    54  3.485646083910219E-012
                    55 -9.644355867396715E-005
                    56 -8.188932656856548E-013
                    57 -1.170423064029722E-009
                    58  8.385029909630414E-005
                    59  1.621588476163118E-012
                    60 -4.038634659166903E-013
                    61  9.288977990222911E-010
                    62 -1.940660231897979E-004
                    63 -1.580058170338429E-003
                    64  6.207831420437738E-005
                    65  4.360342903375189E-004
                    66 -3.122403378535436E-013
                    67 -7.933831065177972E-004
                    68  8.934046237690392E-004
                    69 -1.824474801857881E-013
                    70 -5.872452438614842E-005
                    71  5.736326587385504E-004
                    72 -5.758862871916974E-012
                    73 -4.356355043551857E-004
                    74 -1.539678438008306E-004
                    75  7.507860674425055E-005
                    76 -4.773612387777997E-013
                    77 -9.176585639285002E-006
                    78  3.840889028438900E-005
                    79 -8.018486597045697E-013
                    80 -2.989083376711217E-005
                    81 -3.950269049584390E-012
                    82  1.883181056562088E-004
                    83 -3.326285609575780E-005
                    84 -1.539782893552815E-012
                    85 -8.340443605283966E-005
                    86 -2.495012718337802E-012
                    87 -3.973360732279730E-005
                    88  1.902040308674620E-005
                    89 -7.956169417814393E-013
                    90  2.631468976907044E-013
                    91  5.488303230863396E-006
                    92 -1.940517449097536E-004
                    93 -1.579991279919724E-003
                    94  6.218597779178877E-005
                    95  4.357469050047129E-004
                    96  4.155464119577224E-012
                    97  7.934064270338983E-004
                    98  8.935020672691439E-004
                    99 -8.186190001136183E-012
                   100  5.859079362574935E-005
                   101  5.731740047114042E-004
                   102  5.183059473508899E-013
                   103  4.352559050316996E-004
                   104 -1.540538124677438E-004
                   105  7.506091943449018E-005
                   106 -9.076169610279251E-013
                   107  9.187875533225633E-006
                   108  3.840974092677626E-005
                   109  3.666919674595771E-013
                   110 -3.022214730244645E-005
                   111  1.127225029788242E-012
                   112 -1.883608270249420E-004
                   113 -3.334575300211794E-005
                   114  3.240998774434020E-012
                   115 -8.335488236991062E-005
                   116 -1.989767632135799E-012
                   117  3.972804841955300E-005
                   118  1.902157945655778E-005
                   119 -1.176106024584233E-012
                   120 -4.159731811221554E-012
                   121 -5.486279764375957E-006
                   122 -1.151097520376695E-004
                   123  7.873920183588296E-005
                   124  8.837050143359710E-005
                   125  1.527589494686629E-004
                   126  4.345404736317039E-012
                   127  2.265467866737395E-005
                   128 -7.675177642152370E-004
                   129  1.600650284307019E-012
                   130  3.445908817657994E-005
                   131  2.681641155183450E-004
                   132  2.281903381000853E-012
                   133 -2.155883649585761E-004
                   134  6.293892524696081E-004
                   135 -8.063808093881575E-006
                   136 -4.885206017964202E-013
                   137  5.773758391201438E-007
                   138  1.091328322611252E-006
                   139 -5.403258931243382E-013
                   140 -1.763914853179007E-004
                   141 -4.575789909566674E-012
                   142  1.548146691677865E-004
                   143  1.235841729300730E-005
                   144 -2.772303732266730E-012
                   145 -3.759291760914440E-005
                   146  2.270961275909307E-012
                   147  2.384486814696284E-006
                   148 -8.936265788961360E-006
                   149 -1.579399368308596E-012
                   150 -1.194563960990542E-012
                   151 -4.369071054513695E-006
                   152 -1.154797977109296E-004
                   153  7.743330350594773E-005
                   154  8.805777086449749E-005
                   155  1.547943894583627E-004
                   156 -4.437082715214535E-012
                   157 -2.267987845649398E-005
                   158 -7.674573045927486E-004
                   159  5.080141926553308E-012
                   160 -3.449488263218325E-005
                   161  2.678306609341547E-004
                   162 -4.077720676487947E-012
                   163  2.159847752357067E-004
                   164  6.292803477639369E-004
                   165 -8.031123705899306E-006
                   166 -3.042147284676477E-012
                   167 -5.725594484273675E-007
                   168  1.064248995113210E-006
                   169  6.342439756316672E-013
                   170 -1.762622130785809E-004
                   171 -8.157659085840998E-013
                   172 -1.548887492856660E-004
                   173  1.235217727940479E-005
                   174  2.691903918433989E-012
                   175 -3.753162675343291E-005
                   176  1.848164709236635E-013
                   177 -2.367031410236903E-006
                   178 -8.965693672900494E-006
                   179  9.643489917168444E-013
                   180 -4.140543732943967E-012
                   181  4.365470954912782E-006
                   182 -8.886520865100382E-005
                   183 -2.343133409693709E-004
                   184  2.599795938703462E-005
                   185  9.992577382053046E-005
                   186  4.966439302815314E-012
                   187  1.442986442797167E-008
                   188 -2.878358646335754E-005
                   189  4.835679806010280E-013
                   190 -1.348536458698815E-007
                   191  1.673047900485935E-005
                   192 -9.425872241430321E-013
                   193  1.175041902688871E-007
                   194  6.731608071419648E-005
                   195  2.198691260808486E-005
                   196 -1.143048385908689E-012
                   197  8.460838407554687E-009
                   198  8.607804644601502E-006
                   199 -2.369425472143914E-013
                   200  2.600163997441301E-005
                   201 -3.554255676425038E-012
                   202  7.766872344294394E-008
                   203  4.708674053809524E-005
                   204  2.126008254839429E-013
                   205 -1.094224184626333E-005
                   206  1.277776693655098E-012
                   207 -3.821162657482196E-009
                   208  1.138451652318251E-006
                   209 -3.039553588020972E-012
                   210  4.769624453884329E-012
                   211  9.389909390412374E-009
                   212  3.745418882089890E-003
                   213 -2.330875280428853E-003
                   214  1.187617614018682E-013
                   215  4.389166769584435E-004
                   216  3.506181739611278E-004
                   217  3.745480112976451E-003
                   218 -2.330899228399928E-003
                   219 -1.240577043395962E-013
                   220 -4.389434470524424E-004
                   221  3.506295433085198E-004
                   222 -6.398703948668477E-004
                   223 -6.592100053903233E-005
                   224 -2.880882979867579E-013
                   225 -1.548404542036903E-005
                   226 -4.097610191158640E-005
                   227 -6.399205948020005E-004
                   228 -6.572747256771254E-005
                   229  1.602093621435135E-012
                   230  1.546744565702400E-005
                   231 -4.099993129487266E-005
                   232 -2.141350432903244E-004
                   233 -3.857297688340273E-004
                   234 -1.975393628735678E-013
                   235 -1.219614114778399E-006
                   236  5.642055293279461E-006
                   237 -2.142578715854900E-004
                   238 -3.857262582319057E-004
                   239 -2.046444277145942E-013
                   240  1.272882260513829E-006
                   241  5.677898980813196E-006
                   242  1.051522382726481E-004
                   243 -1.272296829953807E-004
                   244  1.343333119284899E-012
                   245 -9.175707104576120E-009
                   246  1.045531203538821E-005
 Sym= __2_A__
 Ene=   2.00000000000000     
 Spin= Alpha
 Occup=    1.00000000000000     
                     1 -4.504493491764020E-005
                     2 -2.105778815568270E-004
                     3  2.013531885958834E-003
                     4  7.974747572751431E-005
                     5  1.183110985027241E-003
                     6  2.167912108335262E-012
                     7  1.826286897221808E-009
                     8  2.769288261059831E-003
                     9 -1.629714164309479E-012
                    10 -1.917300359218090E-009
                    11 -2.293673665190628E-005
                    12 -2.888550045158499E-012
                    13  4.107989889983865E-009
                    14 -4.877912947781684E-004
                    15  4.830994761579173E-005
                    16  9.200920618159143E-014
                    17  1.482009516732096E-010
                    18  6.474362774572552E-005
                    19  4.927605624398932E-014
                    20 -2.661194326886238E-004
                    21  4.835181312304517E-012
                    22  1.823305263554927E-009
                    23 -3.594462605531848E-004
                    24  4.204509202471883E-012
                    25  1.761713562033624E-004
                    26  2.222149538585442E-012
                    27 -1.242826648434278E-010
                    28 -9.958316432741140E-006
                    29  2.534848139452478E-012
                    30 -1.704047030161372E-013
                    31  6.016447914791745E-010
                    32   1.00104755813054     
                    33  9.156970574413842E-003
                    34  2.668541366945813E-003
                    35 -7.940024654262886E-003
                    36 -3.876282996825082E-012
                    37 -4.240732515237386E-009
                    38 -3.805442576678152E-003
                    39 -1.182195102828512E-012
                    40  1.578019569589614E-010
                    41  9.676820206961210E-004
                    42  1.138486210900491E-011
                    43 -2.864973285584636E-008
                    44  4.219671501434980E-003
                    45  3.743445685615853E-004
                    46 -7.011286231548962E-013
                    47 -2.403232275906185E-009
                    48 -4.594370920268872E-004
                    49 -3.388555239857819E-012
                    50  8.860617168890762E-004
                    51  2.994752344032406E-012
                    52  1.119971494076556E-008
                    53  1.193857531204295E-003
                    54 -3.573552631022414E-012
                    55  3.597484310392530E-004
                    56  1.317510329813027E-012
                    57  7.702508082133425E-011
                    58 -2.040821596026786E-004
                    59 -4.347253210417725E-012
                    60  5.068526675755943E-013
                    61  1.699982821355223E-009
                    62  9.067240751181961E-003
                    63 -2.039216682921452E-003
                    64 -2.915939354067954E-004
                    65  3.181423698544682E-003
                    66  2.890770904499659E-012
                    67  1.400567513767180E-004
                    68  8.427947762385170E-006
                    69 -9.376463018875909E-012
                    70  6.460213242575470E-004
                    71 -2.115044863380416E-004
                    72 -8.987267128656230E-012
                    73 -2.136681132479223E-003
                    74 -3.338542166775381E-005
                    75 -2.157039053410642E-005
                    76 -6.501282814262232E-013
                    77  1.506264531831953E-005
                    78  1.867968872514507E-005
                    79  1.108423938543856E-012
                    80  8.269461807743476E-004
                    81 -1.978506350570534E-012
                    82 -5.969495885917116E-004
                    83  4.445637343963576E-005
                    84 -9.810112193557378E-012
                    85  6.195315388756318E-005
                    86 -1.824329584022684E-012
                    87  7.413608404570489E-005
                    88 -1.092431701792050E-004
                    89  6.389861557742453E-012
                    90 -2.286365691234333E-012
                    91  6.812845357125740E-005
                    92  9.067218417319740E-003
                    93 -2.039287506216295E-003
                    94 -2.916249216206414E-004
                    95  3.181560796297451E-003
                    96 -6.678483875932185E-012
                    97 -1.400552309568227E-004
                    98  8.408012041858379E-006
                    99  9.293809653898232E-012
                   100 -6.460251261161226E-004
                   101 -2.114182184896580E-004
                   102 -8.463742705680438E-012
                   103  2.136795976934321E-003
                   104 -3.347173529425257E-005
                   105 -2.156073608898664E-005
                   106 -1.051601487010088E-012
                   107 -1.506740365594852E-005
                   108  1.867869035427834E-005
                   109 -2.849808004545275E-012
                   110  8.269919170680815E-004
                   111 -4.397390612531996E-012
                   112  5.969832533299669E-004
                   113  4.447032367459242E-005
                   114 -1.383419724631513E-013
                   115  6.194196207769848E-005
                   116 -1.346277950067069E-012
                   117 -7.413634791964245E-005
                   118 -1.092411820810206E-004
                   119  1.741898788631828E-012
                   120  1.406901839727502E-012
                   121 -6.812760378038674E-005
                   122 -2.179866006741279E-004
                   123 -7.079580392167112E-004
                   124  2.125617018555645E-004
                   125 -5.312888208894855E-005
                   126  8.908069793942397E-012
                   127 -2.815029716226496E-005
                   128 -2.446929759444169E-004
                   129 -7.527485974482677E-012
                   130  3.058097349800686E-005
                   131  4.766296705552339E-004
                   132  3.198336172640952E-013
                   133  3.233419494702011E-004
                   134  7.333932008104770E-004
                   135 -1.190654599407589E-005
                   136  1.012608621322761E-012
                   137  4.967383175724303E-005
                   138  1.071883118969637E-005
                   139 -9.747234192431134E-013
                   140 -2.935720836383402E-004
                   141 -1.607435104827732E-011
                   142 -2.659517117478427E-004
                   143 -1.387067074498711E-005
                   144 -6.692517431181429E-012
                   145 -6.693450990861927E-006
                   146 -1.015945985415370E-013
                   147 -3.917983929539687E-005
                   148 -3.084120756490646E-005
                   149 -4.486199851554576E-012
                   150 -3.264482921908771E-012
                   151 -5.025130857727295E-006
                   152 -2.177422928191449E-004
                   153 -7.071472964950428E-004
                   154  2.126161445771952E-004
                   155 -5.397290546307965E-005
                   156 -3.165632290663133E-012
                   157  2.813899291448251E-005
                   158 -2.446948918421033E-004
                   159  7.960087659236794E-012
                   160 -3.052785509290170E-005