[Molden Format]
[Atoms] AU
  N     1    7    -0.0359273400   -4.3001016100    0.0000000100        
  C     2    6     0.0775678500   -1.7674591000   -0.0000000100        
  C     3    6    -2.2571190800   -0.3926626200   -0.0000000100        
  C     4    6     2.3702085900   -0.3237991700   -0.0000000200        
  C     5    6    -2.2619772600    2.1900700800   -0.0000000100        
  C     6    6     2.3150124500    2.2580894100    0.0000000100        
  C     7    6     0.0100184500    3.5448164500    0.0000000100        
  H     8    1    -3.7186087900   -6.9472115500    0.0000000600        
  H     9    1     1.7686532600   -5.0282524400   -0.0000000200        
  H    10    1    -3.9839411700   -1.4490475500   -0.0000000200        
  H    11    1     4.1418421700   -1.3143953800   -0.0000000200        
  H    12    1    -4.0229503900    3.1986484800   -0.0000000300        
  H    13    1     4.0491460400    3.3121027100    0.0000000300        
  H    14    1    -0.0191569900    5.5725266900    0.0000000200        
[5D]
[7F]
[GTO]
  1  0
   s    12 1.00
  0.114200D+05  0.172695D-04
  0.171200D+04  0.134411D-03
  0.389300D+03  0.694561D-03
  0.110000D+03  0.278531D-02
  0.355700D+02  0.863457D-02
  0.125400D+02  0.199805D-01
  0.464400D+01  0.262908D-01
  0.129300D+01 -0.243845D-01
  0.511800D+00 -0.924934D-01
  0.178700D+00 -0.339683D+00
  0.246240D-01  0.345111D+00
  0.112530D-01  0.752750D+00
   s    10 1.00
  0.114200D+05  0.523000D-03
  0.171200D+04  0.404500D-02
  0.389300D+03  0.207750D-01
  0.110000D+03  0.807269D-01
  0.355700D+02  0.233074D+00
  0.125400D+02  0.433501D+00
  0.464400D+01  0.347472D+00
  0.129300D+01  0.412620D-01
  0.511800D+00 -0.850799D-02
  0.178700D+00  0.238400D-02
   s    10 1.00
  0.114200D+05 -0.115000D-03
  0.171200D+04 -0.895000D-03
  0.389300D+03 -0.462400D-02
  0.110000D+03 -0.185280D-01
  0.355700D+02 -0.573390D-01
  0.125400D+02 -0.132076D+00
  0.464400D+01 -0.172510D+00
  0.129300D+01  0.151814D+00
  0.511800D+00  0.599944D+00
  0.178700D+00  0.387462D+00
   s     1 1.00
  0.129300D+01  0.100000D+01
   s     1 1.00
  0.178700D+00  0.100000D+01
   p     5 1.00
  0.266300D+02  0.146700D-01
  0.594800D+01  0.917640D-01
  0.174200D+01  0.298683D+00
  0.555000D+00  0.498487D+00
  0.172500D+00  0.337023D+00
   p     1 1.00
  0.174200D+01  0.100000D+01
   p     1 1.00
  0.555000D+00  0.100000D+01
   d     1 1.00
  0.165400D+01  0.100000D+01
   d     1 1.00
  0.469000D+00  0.100000D+01
   f     1 1.00
  0.109300D+01  0.100000D+01
  
  2  0
   s    10 1.00
  0.823600D+04  0.531000D-03
  0.123500D+04  0.410800D-02
  0.280800D+03  0.210870D-01
  0.792700D+02  0.818530D-01
  0.255900D+02  0.234817D+00
  0.899700D+01  0.434401D+00
  0.331900D+01  0.346129D+00
  0.905900D+00  0.393780D-01
  0.364300D+00 -0.898300D-02
  0.128500D+00  0.238500D-02
   s    10 1.00
  0.823600D+04 -0.113000D-03
  0.123500D+04 -0.878000D-03
  0.280800D+03 -0.454000D-02
  0.792700D+02 -0.181330D-01
  0.255900D+02 -0.557600D-01
  0.899700D+01 -0.126895D+00
  0.331900D+01 -0.170352D+00
  0.905900D+00  0.140382D+00
  0.364300D+00  0.598684D+00
  0.128500D+00  0.395389D+00
   s     1 1.00
  0.905900D+00  0.100000D+01
   s     1 1.00
  0.364300D+00  0.100000D+01
   p     5 1.00
  0.187100D+02  0.140310D-01
  0.413300D+01  0.868660D-01
  0.120000D+01  0.290216D+00
  0.382700D+00  0.501008D+00
  0.120900D+00  0.343406D+00
   p     1 1.00
  0.382700D+00  0.100000D+01
   p     1 1.00
  0.120900D+00  0.100000D+01
   d     1 1.00
  0.109700D+01  0.100000D+01
   d     1 1.00
  0.318000D+00  0.100000D+01
   f     1 1.00
  0.761000D+00  0.100000D+01
  
  3  0
   s    10 1.00
  0.823600D+04  0.531000D-03
  0.123500D+04  0.410800D-02
  0.280800D+03  0.210870D-01
  0.792700D+02  0.818530D-01
  0.255900D+02  0.234817D+00
  0.899700D+01  0.434401D+00
  0.331900D+01  0.346129D+00
  0.905900D+00  0.393780D-01
  0.364300D+00 -0.898300D-02
  0.128500D+00  0.238500D-02
   s    10 1.00
  0.823600D+04 -0.113000D-03
  0.123500D+04 -0.878000D-03
  0.280800D+03 -0.454000D-02
  0.792700D+02 -0.181330D-01
  0.255900D+02 -0.557600D-01
  0.899700D+01 -0.126895D+00
  0.331900D+01 -0.170352D+00
  0.905900D+00  0.140382D+00
  0.364300D+00  0.598684D+00
  0.128500D+00  0.395389D+00
   s     1 1.00
  0.905900D+00  0.100000D+01
   s     1 1.00
  0.364300D+00  0.100000D+01
   p     5 1.00
  0.187100D+02  0.140310D-01
  0.413300D+01  0.868660D-01
  0.120000D+01  0.290216D+00
  0.382700D+00  0.501008D+00
  0.120900D+00  0.343406D+00
   p     1 1.00
  0.382700D+00  0.100000D+01
   p     1 1.00
  0.120900D+00  0.100000D+01
   d     1 1.00
  0.109700D+01  0.100000D+01
   d     1 1.00
  0.318000D+00  0.100000D+01
   f     1 1.00
  0.761000D+00  0.100000D+01
  
  4  0
   s    10 1.00
  0.823600D+04  0.531000D-03
  0.123500D+04  0.410800D-02
  0.280800D+03  0.210870D-01
  0.792700D+02  0.818530D-01
  0.255900D+02  0.234817D+00
  0.899700D+01  0.434401D+00
  0.331900D+01  0.346129D+00
  0.905900D+00  0.393780D-01
  0.364300D+00 -0.898300D-02
  0.128500D+00  0.238500D-02
   s    10 1.00
  0.823600D+04 -0.113000D-03
  0.123500D+04 -0.878000D-03
  0.280800D+03 -0.454000D-02
  0.792700D+02 -0.181330D-01
  0.255900D+02 -0.557600D-01
  0.899700D+01 -0.126895D+00
  0.331900D+01 -0.170352D+00
  0.905900D+00  0.140382D+00
  0.364300D+00  0.598684D+00
  0.128500D+00  0.395389D+00
   s     1 1.00
  0.905900D+00  0.100000D+01
   s     1 1.00
  0.364300D+00  0.100000D+01
   p     5 1.00
  0.187100D+02  0.140310D-01
  0.413300D+01  0.868660D-01
  0.120000D+01  0.290216D+00
  0.382700D+00  0.501008D+00
  0.120900D+00  0.343406D+00
   p     1 1.00
  0.382700D+00  0.100000D+01
   p     1 1.00
  0.120900D+00  0.100000D+01
   d     1 1.00
  0.109700D+01  0.100000D+01
   d     1 1.00
  0.318000D+00  0.100000D+01
   f     1 1.00
  0.761000D+00  0.100000D+01
  
  5  0
   s    10 1.00
  0.823600D+04  0.531000D-03
  0.123500D+04  0.410800D-02
  0.280800D+03  0.210870D-01
  0.792700D+02  0.818530D-01
  0.255900D+02  0.234817D+00
  0.899700D+01  0.434401D+00
  0.331900D+01  0.346129D+00
  0.905900D+00  0.393780D-01
  0.364300D+00 -0.898300D-02
  0.128500D+00  0.238500D-02
   s    10 1.00
  0.823600D+04 -0.113000D-03
  0.123500D+04 -0.878000D-03
  0.280800D+03 -0.454000D-02
  0.792700D+02 -0.181330D-01
  0.255900D+02 -0.557600D-01
  0.899700D+01 -0.126895D+00
  0.331900D+01 -0.170352D+00
  0.905900D+00  0.140382D+00
  0.364300D+00  0.598684D+00
  0.128500D+00  0.395389D+00
   s     1 1.00
  0.905900D+00  0.100000D+01
   s     1 1.00
  0.364300D+00  0.100000D+01
   p     5 1.00
  0.187100D+02  0.140310D-01
  0.413300D+01  0.868660D-01
  0.120000D+01  0.290216D+00
  0.382700D+00  0.501008D+00
  0.120900D+00  0.343406D+00
   p     1 1.00
  0.382700D+00  0.100000D+01
   p     1 1.00
  0.120900D+00  0.100000D+01
   d     1 1.00
  0.109700D+01  0.100000D+01
   d     1 1.00
  0.318000D+00  0.100000D+01
   f     1 1.00
  0.761000D+00  0.100000D+01
  
  6  0
   s    10 1.00
  0.823600D+04  0.531000D-03
  0.123500D+04  0.410800D-02
  0.280800D+03  0.210870D-01
  0.792700D+02  0.818530D-01
  0.255900D+02  0.234817D+00
  0.899700D+01  0.434401D+00
  0.331900D+01  0.346129D+00
  0.905900D+00  0.393780D-01
  0.364300D+00 -0.898300D-02
  0.128500D+00  0.238500D-02
   s    10 1.00
  0.823600D+04 -0.113000D-03
  0.123500D+04 -0.878000D-03
  0.280800D+03 -0.454000D-02
  0.792700D+02 -0.181330D-01
  0.255900D+02 -0.557600D-01
  0.899700D+01 -0.126895D+00
  0.331900D+01 -0.170352D+00
  0.905900D+00  0.140382D+00
  0.364300D+00  0.598684D+00
  0.128500D+00  0.395389D+00
   s     1 1.00
  0.905900D+00  0.100000D+01
   s     1 1.00
  0.364300D+00  0.100000D+01
   p     5 1.00
  0.187100D+02  0.140310D-01
  0.413300D+01  0.868660D-01
  0.120000D+01  0.290216D+00
  0.382700D+00  0.501008D+00
  0.120900D+00  0.343406D+00
   p     1 1.00
  0.382700D+00  0.100000D+01
   p     1 1.00
  0.120900D+00  0.100000D+01
   d     1 1.00
  0.109700D+01  0.100000D+01
   d     1 1.00
  0.318000D+00  0.100000D+01
   f     1 1.00
  0.761000D+00  0.100000D+01
  
  7  0
   s    10 1.00
  0.823600D+04  0.531000D-03
  0.123500D+04  0.410800D-02
  0.280800D+03  0.210870D-01
  0.792700D+02  0.818530D-01
  0.255900D+02  0.234817D+00
  0.899700D+01  0.434401D+00
  0.331900D+01  0.346129D+00
  0.905900D+00  0.393780D-01
  0.364300D+00 -0.898300D-02
  0.128500D+00  0.238500D-02
   s    10 1.00
  0.823600D+04 -0.113000D-03
  0.123500D+04 -0.878000D-03
  0.280800D+03 -0.454000D-02
  0.792700D+02 -0.181330D-01
  0.255900D+02 -0.557600D-01
  0.899700D+01 -0.126895D+00
  0.331900D+01 -0.170352D+00
  0.905900D+00  0.140382D+00
  0.364300D+00  0.598684D+00
  0.128500D+00  0.395389D+00
   s     1 1.00
  0.905900D+00  0.100000D+01
   s     1 1.00
  0.364300D+00  0.100000D+01
   p     5 1.00
  0.187100D+02  0.140310D-01
  0.413300D+01  0.868660D-01
  0.120000D+01  0.290216D+00
  0.382700D+00  0.501008D+00
  0.120900D+00  0.343406D+00
   p     1 1.00
  0.382700D+00  0.100000D+01
   p     1 1.00
  0.120900D+00  0.100000D+01
   d     1 1.00
  0.109700D+01  0.100000D+01
   d     1 1.00
  0.318000D+00  0.100000D+01
   f     1 1.00
  0.761000D+00  0.100000D+01
  
  8  0
   s     4 1.00
  0.130100D+02  0.196850D-01
  0.196200D+01  0.137977D+00
  0.444600D+00  0.478148D+00
  0.122000D+00  0.501240D+00
   s     1 1.00
  0.122000D+00  0.100000D+01
   p     1 1.00
  0.727000D+00  0.100000D+01
  
  9  0
   s     4 1.00
  0.130100D+02  0.196850D-01
  0.196200D+01  0.137977D+00
  0.444600D+00  0.478148D+00
  0.122000D+00  0.501240D+00
   s     1 1.00
  0.122000D+00  0.100000D+01
   p     1 1.00
  0.727000D+00  0.100000D+01
  
 10  0
   s     4 1.00
  0.130100D+02  0.196850D-01
  0.196200D+01  0.137977D+00
  0.444600D+00  0.478148D+00
  0.122000D+00  0.501240D+00
   s     1 1.00
  0.122000D+00  0.100000D+01
   p     1 1.00
  0.727000D+00  0.100000D+01
  
 11  0
   s     4 1.00
  0.130100D+02  0.196850D-01
  0.196200D+01  0.137977D+00
  0.444600D+00  0.478148D+00
  0.122000D+00  0.501240D+00
   s     1 1.00
  0.122000D+00  0.100000D+01
   p     1 1.00
  0.727000D+00  0.100000D+01
  
 12  0
   s     4 1.00
  0.130100D+02  0.196850D-01
  0.196200D+01  0.137977D+00
  0.444600D+00  0.478148D+00
  0.122000D+00  0.501240D+00
   s     1 1.00
  0.122000D+00  0.100000D+01
   p     1 1.00
  0.727000D+00  0.100000D+01
  
 13  0
   s     4 1.00
  0.130100D+02  0.196850D-01
  0.196200D+01  0.137977D+00
  0.444600D+00  0.478148D+00
  0.122000D+00  0.501240D+00
   s     1 1.00
  0.122000D+00  0.100000D+01
   p     1 1.00
  0.727000D+00  0.100000D+01
  
 14  0
   s     4 1.00
  0.130100D+02  0.196850D-01
  0.196200D+01  0.137977D+00
  0.444600D+00  0.478148D+00
  0.122000D+00  0.501240D+00
   s     1 1.00
  0.122000D+00  0.100000D+01
   p     1 1.00
  0.727000D+00  0.100000D+01
  
[MO]
 Sym= __1_A'_
 Ene=   1.00000000000000     
 Spin= Alpha
 Occup=    1.00000000000000     
                     1  8.909029984942697E-005
                     2  0.998381090939588     
                     3 -4.080506038238148E-003
                     4  1.850611744841185E-003
                     5  6.486961752391266E-003
                     6  2.709875657463439E-003
                     7  5.536684175412991E-003
                     8  0.000000000000000E+000
                     9 -7.215765888352419E-004
                    10 -7.207377996682583E-004
                    11  0.000000000000000E+000
                    12 -2.438766550452550E-003
                    13 -1.967612507157928E-003
                    14  0.000000000000000E+000
                    15 -2.633663444735241E-005
                    16  0.000000000000000E+000
                    17  0.000000000000000E+000
                    18 -1.475841014538163E-004
                    19 -6.028979141617205E-005
                    20  1.125707362852149E-004
                    21  0.000000000000000E+000
                    22  0.000000000000000E+000
                    23 -1.656120584160585E-004
                    24  4.709644996247195E-004
                    25  0.000000000000000E+000
                    26 -2.864532271354237E-006
                    27 -4.207074880957535E-005
                    28  0.000000000000000E+000
                    29  0.000000000000000E+000
                    30  3.328256768087533E-005
                    31 -9.858078248308556E-005
                    32 -2.868733242456287E-004
                    33  3.099819879600977E-005
                    34  3.090549921018896E-004
                    35 -9.679104750180710E-005
                    36 -7.517344930500791E-005
                    37 -1.844433188110531E-003
                    38  0.000000000000000E+000
                    39  3.435085018131566E-004
                    40  7.616382626981522E-005
                    41  0.000000000000000E+000
                    42 -1.988208051641681E-003
                    43  4.745248679717646E-003
                    44  0.000000000000000E+000
                    45  1.334214667522138E-005
                    46  0.000000000000000E+000
                    47  0.000000000000000E+000
                    48 -9.534392638162976E-005
                    49  1.170937806985131E-005
                    50 -1.893708652600631E-004
                    51  0.000000000000000E+000
                    52  0.000000000000000E+000
                    53 -6.782701967265694E-006
                    54  7.483375066303663E-004
                    55  0.000000000000000E+000
                    56 -4.470182610772331E-006
                    57 -7.967899945963211E-005
                    58  0.000000000000000E+000
                    59  0.000000000000000E+000
                    60  1.878333197081740E-005
                    61 -1.336926009203556E-004
                    62 -5.248173211278833E-004
                    63 -1.943830551288441E-003
                    64 -9.647061997673675E-005
                    65  2.176900995563557E-003
                    66 -3.023780669745911E-004
                    67 -4.797684075760091E-005
                    68  0.000000000000000E+000
                    69  3.683685730340998E-004
                    70  8.647265550741235E-004
                    71  0.000000000000000E+000
                    72 -1.780709558919076E-003
                    73  6.327179096925889E-004
                    74  0.000000000000000E+000
                    75 -4.746867021782462E-005
                    76  0.000000000000000E+000
                    77  0.000000000000000E+000
                    78 -4.688816755262790E-005
                    79 -2.423541000685952E-005
                    80 -1.336197569766421E-004
                    81  0.000000000000000E+000
                    82  0.000000000000000E+000
                    83  1.807347734066230E-005
                    84 -2.283930906333568E-005
                    85  0.000000000000000E+000
                    86  9.216969650102625E-006
                    87 -4.568150916899450E-005
                    88  0.000000000000000E+000
                    89  0.000000000000000E+000
                    90 -2.974788792386337E-005
                    91 -1.562605867470756E-004
                    92 -1.752666268996102E-004
                    93 -5.177917613200187E-004
                    94  1.473218416282674E-004
                    95 -4.399312453694791E-005
                    96  5.706544811939987E-005
                    97 -1.209347790564799E-004
                    98  0.000000000000000E+000
                    99  3.345502449760046E-004
                   100  3.653077280144248E-004
                   101  0.000000000000000E+000
                   102  6.113234025531018E-004
                   103 -1.657061526653406E-003
                   104  0.000000000000000E+000
                   105 -1.473471685902790E-005
                   106  0.000000000000000E+000
                   107  0.000000000000000E+000
                   108 -3.450035530496008E-005
                   109 -1.130733403680938E-005
                   110  7.366632524861576E-005
                   111  0.000000000000000E+000
                   112  0.000000000000000E+000
                   113 -1.508664018583210E-004
                   114  1.131370827744432E-004
                   115  0.000000000000000E+000
                   116 -1.751882798170155E-005
                   117 -2.160582916305188E-005
                   118  0.000000000000000E+000
                   119  0.000000000000000E+000
                   120 -8.391998921983376E-006
                   121 -4.419847980487636E-005
                   122 -2.404468092864001E-004
                   123 -6.687683298350779E-004
                   124  1.716794502840532E-004
                   125  2.828401434471606E-004
                   126 -3.841389192728131E-005
                   127 -2.059077101759458E-004
                   128  0.000000000000000E+000
                   129  2.346968308817466E-004
                   130  6.377203067537891E-004
                   131  0.000000000000000E+000
                   132  4.292063816682238E-004
                   133  1.875451018934825E-003
                   134  0.000000000000000E+000
                   135  1.534431871034549E-005
                   136  0.000000000000000E+000
                   137  0.000000000000000E+000
                   138  4.907239876329698E-005
                   139 -4.813546345891038E-006
                   140  2.022589981636363E-004
                   141  0.000000000000000E+000
                   142  0.000000000000000E+000
                   143  3.902431675781734E-004
                   144  2.020481823149057E-004
                   145  0.000000000000000E+000
                   146 -1.229718905588790E-005
                   147 -6.292640731832954E-005
                   148  0.000000000000000E+000
                   149  0.000000000000000E+000
                   150 -1.000230979326016E-005
                   151 -5.570560428840622E-005
                   152 -1.332600230028620E-004
                   153 -4.214889897397535E-004
                   154  5.590618192421794E-005
                   155  2.007062296563384E-004
                   156  8.665263356307557E-006
                   157 -1.105215661269155E-006
                   158  0.000000000000000E+000
                   159 -1.065090883329143E-005
                   160  4.720514119633122E-005
                   161  0.000000000000000E+000
                   162  7.237216885681224E-004
                   163 -3.395039500540102E-004
                   164  0.000000000000000E+000
                   165  2.032300174316052E-006
                   166  0.000000000000000E+000
                   167  0.000000000000000E+000
                   168  5.252690094102698E-006
                   169  1.324330729761539E-005
                   170  1.075905748551205E-004
                   171  0.000000000000000E+000
                   172  0.000000000000000E+000
                   173  4.842030186332072E-005
                   174  3.921200690869642E-005
                   175  0.000000000000000E+000
                   176  4.426589188175380E-006
                   177 -1.423144876023242E-005
                   178  0.000000000000000E+000
                   179  0.000000000000000E+000
                   180 -2.532922799228915E-005
                   181 -3.079242684122119E-005
                   182 -1.356116928813007E-004
                   183 -4.033351413622930E-004
                   184  3.078429645543900E-005
                   185  2.132821938029041E-004
                   186 -4.449202115545867E-005
                   187 -5.627260054687744E-005
                   188  0.000000000000000E+000
                   189  2.507978072298499E-004
                   190  1.153831043112901E-004
                   191  0.000000000000000E+000
                   192  1.259158050088366E-003
                   193 -3.062997044848839E-004
                   194  0.000000000000000E+000
                   195  6.808649655618216E-007
                   196  0.000000000000000E+000
                   197  0.000000000000000E+000
                   198 -2.419102234140060E-006
                   199  3.977734434818448E-006
                   200 -7.200345196800722E-006
                   201  0.000000000000000E+000
                   202  0.000000000000000E+000
                   203 -6.540915211640883E-005
                   204 -1.913888143864273E-004
                   205  0.000000000000000E+000
                   206 -9.112847700963488E-006
                   207 -3.760112030778752E-006
                   208  0.000000000000000E+000
                   209  0.000000000000000E+000
                   210  7.680299622431042E-006
                   211 -3.737247904118445E-006
                   212 -2.072056701771831E-005
                   213  1.148592904908991E-004
                   214  1.420375098744135E-005
                   215  2.628325835001899E-005
                   216  0.000000000000000E+000
                   217 -1.247126171119065E-003
                   218 -3.966014432162149E-004
                   219 -2.009193358017021E-004
                   220  3.672356349013122E-005
                   221  0.000000000000000E+000
                   222 -1.537144039966348E-004
                   223 -6.503791588734011E-004
                   224  2.233146809639772E-005
                   225 -5.861630290133433E-005
                   226  0.000000000000000E+000
                   227  8.691601561339304E-005
                   228 -6.255085246511002E-004
                   229 -4.342951056838842E-005
                   230 -1.592108883403418E-005
                   231  0.000000000000000E+000
                   232  5.150861068691548E-005
                   233 -4.485659287010522E-004
                   234  1.473085525730836E-005
                   235 -4.111619383954574E-006
                   236  0.000000000000000E+000
                   237  4.175843616499048E-005
                   238 -3.574829089837542E-004
                   239 -1.020632474590669E-005
                   240 -3.549223708340429E-006
                   241  0.000000000000000E+000
                   242 -6.971711532618546E-005
                   243  8.541388047990364E-005
                   244  4.882195211674284E-008
                   245  2.884290025407013E-005
                   246  0.000000000000000E+000
 Sym= __2_A'_
 Ene=   2.00000000000000     
 Spin= Alpha
 Occup=    1.00000000000000     
                     1  4.816832025198446E-005
                     2  3.324521065284777E-004
                     3 -2.843488615537358E-003
                     4 -1.210927065432770E-004
                     5 -1.325847453327093E-003
                     6  3.022434674773407E-004
                     7 -2.709547344967647E-003
                     8  0.000000000000000E+000
                     9  3.076040590003111E-005
                    10  1.096096030364237E-004
                    11  0.000000000000000E+000
                    12  5.174925398204007E-005
                    13  3.058492865074720E-004
                    14  0.000000000000000E+000
                    15 -2.732508136614675E-005
                    16  0.000000000000000E+000
                    17  0.000000000000000E+000
                    18  4.146226498276186E-005
                    19 -1.951106216713039E-005
                    20  1.123827094229751E-004
                    21  0.000000000000000E+000
                    22  0.000000000000000E+000
                    23 -1.221656013414926E-004
                    24  1.516199514258138E-004
                    25  0.000000000000000E+000
                    26  1.809620862769988E-005
                    27 -9.492400025637626E-005
                    28  0.000000000000000E+000
                    29  0.000000000000000E+000
                    30  6.600767510441181E-005
                    31 -1.473431862670671E-004
                    32  -1.00089865333783     
                    33 -9.061024579123850E-003
                    34 -2.761317696985107E-003
                    35  8.062789852450609E-003
                    36  1.818514499192869E-004
                    37  3.149252206111869E-003
                    38  0.000000000000000E+000
                    39  1.071632559350351E-004
                    40 -1.932312018252319E-004
                    41  0.000000000000000E+000
                    42  1.592882037744442E-004
                    43 -3.979789281513566E-003
                    44  0.000000000000000E+000
                    45  5.279496482057676E-004
                    46  0.000000000000000E+000
                    47  0.000000000000000E+000
                    48  1.943596282655484E-004
                    49 -3.228126260470508E-005
                    50 -5.510922271696142E-004
                    51  0.000000000000000E+000
                    52  0.000000000000000E+000
                    53  6.600472088605588E-004
                    54  4.007644208704818E-004
                    55  0.000000000000000E+000
                    56 -1.206052152502696E-005
                    57 -9.894317660447646E-005
                    58  0.000000000000000E+000
                    59  0.000000000000000E+000
                    60  2.438476507179265E-005
                    61 -3.810613252213953E-004
                    62 -1.240198826259068E-002
                    63  2.022685371897815E-003
                    64  2.385118445024206E-004
                    65 -2.704144065935517E-003
                    66 -3.738754175978868E-005
                    67 -1.027066425065465E-004
                    68  0.000000000000000E+000
                    69 -5.267262975128349E-004
                    70 -1.541387346581600E-004
                    71  0.000000000000000E+000
                    72  2.094520000474372E-003
                    73 -2.711340829173753E-004
                    74  0.000000000000000E+000
                    75 -3.399933887555429E-005
                    76  0.000000000000000E+000
                    77  0.000000000000000E+000
                    78  5.072785698620320E-006
                    79 -3.583330340845038E-006
                    80  4.291106899508816E-004
                    81  0.000000000000000E+000
                    82  0.000000000000000E+000
                    83  6.565079698282600E-004
                    84  2.626197923853626E-004
                    85  0.000000000000000E+000
                    86 -2.861819184387297E-005
                    87  5.855574459146707E-005
                    88  0.000000000000000E+000
                    89  0.000000000000000E+000
                    90 -4.365562642566468E-005
                    91 -1.482169312398999E-004
                    92 -1.521550650199714E-002
                    93  2.083266230879177E-003
                    94  2.997014459431402E-004
                    95 -3.169284083729389E-003
                    96 -1.617059119408067E-004
                    97 -1.629975140790940E-004
                    98  0.000000000000000E+000
                    99  9.218738418271322E-004
                   100 -1.763280987215158E-005
                   101  0.000000000000000E+000
                   102 -1.697537912591355E-003
                   103  9.000997808896770E-006
                   104  0.000000000000000E+000
                   105 -2.361583422905253E-005
                   106  0.000000000000000E+000
                   107  0.000000000000000E+000
                   108  6.823786087558240E-006
                   109 -4.319683402620359E-006
                   110  4.203828601990777E-004
                   111  0.000000000000000E+000
                   112  0.000000000000000E+000
                   113  3.937529242718586E-004
                   114 -2.429048087183932E-004
                   115  0.000000000000000E+000
                   116  3.107665408092486E-005
                   117  7.286941431649189E-005
                   118  0.000000000000000E+000
                   119  0.000000000000000E+000
                   120  2.667591871908951E-006
                   121 -1.335104851433255E-004
                   122  8.183624352681470E-005
                   123  6.682068455749714E-004
                   124 -2.302221368165750E-004
                   125  1.337655023237013E-004
                   126 -2.689914393081499E-006
                   127  3.850743813984393E-004
                   128  0.000000000000000E+000
                   129  7.931082799172087E-005
                   130 -6.196753943669371E-004
                   131  0.000000000000000E+000
                   132 -3.759140588696125E-004
                   133 -9.128041514403850E-004
                   134  0.000000000000000E+000
                   135 -1.856127492208793E-005
                   136  0.000000000000000E+000
                   137  0.000000000000000E+000
                   138 -3.624554372487062E-006
                   139 -4.353417975771446E-005
                   140 -1.297475611157097E-004
                   141  0.000000000000000E+000
                   142  0.000000000000000E+000
                   143 -2.555297270357020E-004
                   144  1.081216893775198E-004
                   145  0.000000000000000E+000
                   146 -9.080069358646130E-006
                   147  3.685641011405973E-005
                   148  0.000000000000000E+000
                   149  0.000000000000000E+000
                   150  4.334907841523430E-005
                   151 -3.696163202421300E-005
                   152 -9.590322729693318E-005
                   153  6.383774413408961E-004
                   154 -2.300466469103407E-004
                   155  5.076306645532405E-005
                   156  3.656818269550681E-005
                   157  4.176230470629811E-004
                   158  0.000000000000000E+000
                   159 -1.315072223125430E-004
                   160 -5.509168875066451E-004