[Molden Format]
[Atoms] AU
  N     1    7    -0.0359273400   -4.3001016100    0.0000000100        
  C     2    6     0.0775678500   -1.7674591000   -0.0000000100        
  C     3    6    -2.2571190800   -0.3926626200   -0.0000000100        
  C     4    6     2.3702085900   -0.3237991700   -0.0000000200        
  C     5    6    -2.2619772600    2.1900700800   -0.0000000100        
  C     6    6     2.3150124500    2.2580894100    0.0000000100        
  C     7    6     0.0100184500    3.5448164500    0.0000000100        
  H     8    1    -3.7186087900   -6.9472115500    0.0000000600        
  H     9    1     1.7686532600   -5.0282524400   -0.0000000200        
  H    10    1    -3.9839411700   -1.4490475500   -0.0000000200        
  H    11    1     4.1418421700   -1.3143953800   -0.0000000200        
  H    12    1    -4.0229503900    3.1986484800   -0.0000000300        
  H    13    1     4.0491460400    3.3121027100    0.0000000300        
  H    14    1    -0.0191569900    5.5725266900    0.0000000200        
[5D]
[7F]
[GTO]
  1  0
   s    12 1.00
  0.114200D+05  0.172695D-04
  0.171200D+04  0.134411D-03
  0.389300D+03  0.694561D-03
  0.110000D+03  0.278531D-02
  0.355700D+02  0.863457D-02
  0.125400D+02  0.199805D-01
  0.464400D+01  0.262908D-01
  0.129300D+01 -0.243845D-01
  0.511800D+00 -0.924934D-01
  0.178700D+00 -0.339683D+00
  0.246240D-01  0.345111D+00
  0.112530D-01  0.752750D+00
   s    10 1.00
  0.114200D+05  0.523000D-03
  0.171200D+04  0.404500D-02
  0.389300D+03  0.207750D-01
  0.110000D+03  0.807269D-01
  0.355700D+02  0.233074D+00
  0.125400D+02  0.433501D+00
  0.464400D+01  0.347472D+00
  0.129300D+01  0.412620D-01
  0.511800D+00 -0.850799D-02
  0.178700D+00  0.238400D-02
   s    10 1.00
  0.114200D+05 -0.115000D-03
  0.171200D+04 -0.895000D-03
  0.389300D+03 -0.462400D-02
  0.110000D+03 -0.185280D-01
  0.355700D+02 -0.573390D-01
  0.125400D+02 -0.132076D+00
  0.464400D+01 -0.172510D+00
  0.129300D+01  0.151814D+00
  0.511800D+00  0.599944D+00
  0.178700D+00  0.387462D+00
   s     1 1.00
  0.129300D+01  0.100000D+01
   s     1 1.00
  0.178700D+00  0.100000D+01
   p     5 1.00
  0.266300D+02  0.146700D-01
  0.594800D+01  0.917640D-01
  0.174200D+01  0.298683D+00
  0.555000D+00  0.498487D+00
  0.172500D+00  0.337023D+00
   p     1 1.00
  0.174200D+01  0.100000D+01
   p     1 1.00
  0.555000D+00  0.100000D+01
   d     1 1.00
  0.165400D+01  0.100000D+01
   d     1 1.00
  0.469000D+00  0.100000D+01
   f     1 1.00
  0.109300D+01  0.100000D+01
  
  2  0
   s    10 1.00
  0.823600D+04  0.531000D-03
  0.123500D+04  0.410800D-02
  0.280800D+03  0.210870D-01
  0.792700D+02  0.818530D-01
  0.255900D+02  0.234817D+00
  0.899700D+01  0.434401D+00
  0.331900D+01  0.346129D+00
  0.905900D+00  0.393780D-01
  0.364300D+00 -0.898300D-02
  0.128500D+00  0.238500D-02
   s    10 1.00
  0.823600D+04 -0.113000D-03
  0.123500D+04 -0.878000D-03
  0.280800D+03 -0.454000D-02
  0.792700D+02 -0.181330D-01
  0.255900D+02 -0.557600D-01
  0.899700D+01 -0.126895D+00
  0.331900D+01 -0.170352D+00
  0.905900D+00  0.140382D+00
  0.364300D+00  0.598684D+00
  0.128500D+00  0.395389D+00
   s     1 1.00
  0.905900D+00  0.100000D+01
   s     1 1.00
  0.364300D+00  0.100000D+01
   p     5 1.00
  0.187100D+02  0.140310D-01
  0.413300D+01  0.868660D-01
  0.120000D+01  0.290216D+00
  0.382700D+00  0.501008D+00
  0.120900D+00  0.343406D+00
   p     1 1.00
  0.382700D+00  0.100000D+01
   p     1 1.00
  0.120900D+00  0.100000D+01
   d     1 1.00
  0.109700D+01  0.100000D+01
   d     1 1.00
  0.318000D+00  0.100000D+01
   f     1 1.00
  0.761000D+00  0.100000D+01
  
  3  0
   s    10 1.00
  0.823600D+04  0.531000D-03
  0.123500D+04  0.410800D-02
  0.280800D+03  0.210870D-01
  0.792700D+02  0.818530D-01
  0.255900D+02  0.234817D+00
  0.899700D+01  0.434401D+00
  0.331900D+01  0.346129D+00
  0.905900D+00  0.393780D-01
  0.364300D+00 -0.898300D-02
  0.128500D+00  0.238500D-02
   s    10 1.00
  0.823600D+04 -0.113000D-03
  0.123500D+04 -0.878000D-03
  0.280800D+03 -0.454000D-02
  0.792700D+02 -0.181330D-01
  0.255900D+02 -0.557600D-01
  0.899700D+01 -0.126895D+00
  0.331900D+01 -0.170352D+00
  0.905900D+00  0.140382D+00
  0.364300D+00  0.598684D+00
  0.128500D+00  0.395389D+00
   s     1 1.00
  0.905900D+00  0.100000D+01
   s     1 1.00
  0.364300D+00  0.100000D+01
   p     5 1.00
  0.187100D+02  0.140310D-01
  0.413300D+01  0.868660D-01
  0.120000D+01  0.290216D+00
  0.382700D+00  0.501008D+00
  0.120900D+00  0.343406D+00
   p     1 1.00
  0.382700D+00  0.100000D+01
   p     1 1.00
  0.120900D+00  0.100000D+01
   d     1 1.00
  0.109700D+01  0.100000D+01
   d     1 1.00
  0.318000D+00  0.100000D+01
   f     1 1.00
  0.761000D+00  0.100000D+01
  
  4  0
   s    10 1.00
  0.823600D+04  0.531000D-03
  0.123500D+04  0.410800D-02
  0.280800D+03  0.210870D-01
  0.792700D+02  0.818530D-01
  0.255900D+02  0.234817D+00
  0.899700D+01  0.434401D+00
  0.331900D+01  0.346129D+00
  0.905900D+00  0.393780D-01
  0.364300D+00 -0.898300D-02
  0.128500D+00  0.238500D-02
   s    10 1.00
  0.823600D+04 -0.113000D-03
  0.123500D+04 -0.878000D-03
  0.280800D+03 -0.454000D-02
  0.792700D+02 -0.181330D-01
  0.255900D+02 -0.557600D-01
  0.899700D+01 -0.126895D+00
  0.331900D+01 -0.170352D+00
  0.905900D+00  0.140382D+00
  0.364300D+00  0.598684D+00
  0.128500D+00  0.395389D+00
   s     1 1.00
  0.905900D+00  0.100000D+01
   s     1 1.00
  0.364300D+00  0.100000D+01
   p     5 1.00
  0.187100D+02  0.140310D-01
  0.413300D+01  0.868660D-01
  0.120000D+01  0.290216D+00
  0.382700D+00  0.501008D+00
  0.120900D+00  0.343406D+00
   p     1 1.00
  0.382700D+00  0.100000D+01
   p     1 1.00
  0.120900D+00  0.100000D+01
   d     1 1.00
  0.109700D+01  0.100000D+01
   d     1 1.00
  0.318000D+00  0.100000D+01
   f     1 1.00
  0.761000D+00  0.100000D+01
  
  5  0
   s    10 1.00
  0.823600D+04  0.531000D-03
  0.123500D+04  0.410800D-02
  0.280800D+03  0.210870D-01
  0.792700D+02  0.818530D-01
  0.255900D+02  0.234817D+00
  0.899700D+01  0.434401D+00
  0.331900D+01  0.346129D+00
  0.905900D+00  0.393780D-01
  0.364300D+00 -0.898300D-02
  0.128500D+00  0.238500D-02
   s    10 1.00
  0.823600D+04 -0.113000D-03
  0.123500D+04 -0.878000D-03
  0.280800D+03 -0.454000D-02
  0.792700D+02 -0.181330D-01
  0.255900D+02 -0.557600D-01
  0.899700D+01 -0.126895D+00
  0.331900D+01 -0.170352D+00
  0.905900D+00  0.140382D+00
  0.364300D+00  0.598684D+00
  0.128500D+00  0.395389D+00
   s     1 1.00
  0.905900D+00  0.100000D+01
   s     1 1.00
  0.364300D+00  0.100000D+01
   p     5 1.00
  0.187100D+02  0.140310D-01
  0.413300D+01  0.868660D-01
  0.120000D+01  0.290216D+00
  0.382700D+00  0.501008D+00
  0.120900D+00  0.343406D+00
   p     1 1.00
  0.382700D+00  0.100000D+01
   p     1 1.00
  0.120900D+00  0.100000D+01
   d     1 1.00
  0.109700D+01  0.100000D+01
   d     1 1.00
  0.318000D+00  0.100000D+01
   f     1 1.00
  0.761000D+00  0.100000D+01
  
  6  0
   s    10 1.00
  0.823600D+04  0.531000D-03
  0.123500D+04  0.410800D-02
  0.280800D+03  0.210870D-01
  0.792700D+02  0.818530D-01
  0.255900D+02  0.234817D+00
  0.899700D+01  0.434401D+00
  0.331900D+01  0.346129D+00
  0.905900D+00  0.393780D-01
  0.364300D+00 -0.898300D-02
  0.128500D+00  0.238500D-02
   s    10 1.00
  0.823600D+04 -0.113000D-03
  0.123500D+04 -0.878000D-03
  0.280800D+03 -0.454000D-02
  0.792700D+02 -0.181330D-01
  0.255900D+02 -0.557600D-01
  0.899700D+01 -0.126895D+00
  0.331900D+01 -0.170352D+00
  0.905900D+00  0.140382D+00
  0.364300D+00  0.598684D+00
  0.128500D+00  0.395389D+00
   s     1 1.00
  0.905900D+00  0.100000D+01
   s     1 1.00
  0.364300D+00  0.100000D+01
   p     5 1.00
  0.187100D+02  0.140310D-01
  0.413300D+01  0.868660D-01
  0.120000D+01  0.290216D+00
  0.382700D+00  0.501008D+00
  0.120900D+00  0.343406D+00
   p     1 1.00
  0.382700D+00  0.100000D+01
   p     1 1.00
  0.120900D+00  0.100000D+01
   d     1 1.00
  0.109700D+01  0.100000D+01
   d     1 1.00
  0.318000D+00  0.100000D+01
   f     1 1.00
  0.761000D+00  0.100000D+01
  
  7  0
   s    10 1.00
  0.823600D+04  0.531000D-03
  0.123500D+04  0.410800D-02
  0.280800D+03  0.210870D-01
  0.792700D+02  0.818530D-01
  0.255900D+02  0.234817D+00
  0.899700D+01  0.434401D+00
  0.331900D+01  0.346129D+00
  0.905900D+00  0.393780D-01
  0.364300D+00 -0.898300D-02
  0.128500D+00  0.238500D-02
   s    10 1.00
  0.823600D+04 -0.113000D-03
  0.123500D+04 -0.878000D-03
  0.280800D+03 -0.454000D-02
  0.792700D+02 -0.181330D-01
  0.255900D+02 -0.557600D-01
  0.899700D+01 -0.126895D+00
  0.331900D+01 -0.170352D+00
  0.905900D+00  0.140382D+00
  0.364300D+00  0.598684D+00
  0.128500D+00  0.395389D+00
   s     1 1.00
  0.905900D+00  0.100000D+01
   s     1 1.00
  0.364300D+00  0.100000D+01
   p     5 1.00
  0.187100D+02  0.140310D-01
  0.413300D+01  0.868660D-01
  0.120000D+01  0.290216D+00
  0.382700D+00  0.501008D+00
  0.120900D+00  0.343406D+00
   p     1 1.00
  0.382700D+00  0.100000D+01
   p     1 1.00
  0.120900D+00  0.100000D+01
   d     1 1.00
  0.109700D+01  0.100000D+01
   d     1 1.00
  0.318000D+00  0.100000D+01
   f     1 1.00
  0.761000D+00  0.100000D+01
  
  8  0
   s     4 1.00
  0.130100D+02  0.196850D-01
  0.196200D+01  0.137977D+00
  0.444600D+00  0.478148D+00
  0.122000D+00  0.501240D+00
   s     1 1.00
  0.122000D+00  0.100000D+01
   p     1 1.00
  0.727000D+00  0.100000D+01
  
  9  0
   s     4 1.00
  0.130100D+02  0.196850D-01
  0.196200D+01  0.137977D+00
  0.444600D+00  0.478148D+00
  0.122000D+00  0.501240D+00
   s     1 1.00
  0.122000D+00  0.100000D+01
   p     1 1.00
  0.727000D+00  0.100000D+01
  
 10  0
   s     4 1.00
  0.130100D+02  0.196850D-01
  0.196200D+01  0.137977D+00
  0.444600D+00  0.478148D+00
  0.122000D+00  0.501240D+00
   s     1 1.00
  0.122000D+00  0.100000D+01
   p     1 1.00
  0.727000D+00  0.100000D+01
  
 11  0
   s     4 1.00
  0.130100D+02  0.196850D-01
  0.196200D+01  0.137977D+00
  0.444600D+00  0.478148D+00
  0.122000D+00  0.501240D+00
   s     1 1.00
  0.122000D+00  0.100000D+01
   p     1 1.00
  0.727000D+00  0.100000D+01
  
 12  0
   s     4 1.00
  0.130100D+02  0.196850D-01
  0.196200D+01  0.137977D+00
  0.444600D+00  0.478148D+00
  0.122000D+00  0.501240D+00
   s     1 1.00
  0.122000D+00  0.100000D+01
   p     1 1.00
  0.727000D+00  0.100000D+01
  
 13  0
   s     4 1.00
  0.130100D+02  0.196850D-01
  0.196200D+01  0.137977D+00
  0.444600D+00  0.478148D+00
  0.122000D+00  0.501240D+00
   s     1 1.00
  0.122000D+00  0.100000D+01
   p     1 1.00
  0.727000D+00  0.100000D+01
  
 14  0
   s     4 1.00
  0.130100D+02  0.196850D-01
  0.196200D+01  0.137977D+00
  0.444600D+00  0.478148D+00
  0.122000D+00  0.501240D+00
   s     1 1.00
  0.122000D+00  0.100000D+01
   p     1 1.00
  0.727000D+00  0.100000D+01
  
[MO]
 Sym= __1_A'_
 Ene=  0.000000000000000E+000
 Spin= Alpha
 Occup=    2.00000000000000     
                     1  8.909029985325466E-005
                     2  0.998381090939569     
                     3 -4.080506038216515E-003
                     4  1.850611744840728E-003
                     5  6.486961752389777E-003
                     6  2.709875657845522E-003
                     7  5.536684175532766E-003
                     8  0.000000000000000E+000
                     9 -7.215765888280565E-004
                    10 -7.207377996703814E-004
                    11  0.000000000000000E+000
                    12 -2.438766550461075E-003
                    13 -1.967612507152358E-003
                    14  0.000000000000000E+000
                    15 -2.633663445082437E-005
                    16  0.000000000000000E+000
                    17  0.000000000000000E+000
                    18 -1.475841014516986E-004
                    19 -6.028979140009956E-005
                    20  1.125707362713826E-004
                    21  0.000000000000000E+000
                    22  0.000000000000000E+000
                    23 -1.656120584194166E-004
                    24  4.709644996977398E-004
                    25  0.000000000000000E+000
                    26 -2.864532277602330E-006
                    27 -4.207074881365263E-005
                    28  0.000000000000000E+000
                    29  0.000000000000000E+000
                    30  3.328256769591372E-005
                    31 -9.858078248416437E-005
                    32 -2.868733235063363E-004
                    33  3.099819850790211E-005
                    34  3.090549921228900E-004
                    35 -9.679104759031856E-005
                    36 -7.517344703350672E-005
                    37 -1.844433188616258E-003
                    38  0.000000000000000E+000
                    39  3.435085016670739E-004
                    40  7.616382632270459E-005
                    41  0.000000000000000E+000
                    42 -1.988208052349587E-003
                    43  4.745248679840318E-003
                    44  0.000000000000000E+000
                    45  1.334214668355236E-005
                    46  0.000000000000000E+000
                    47  0.000000000000000E+000
                    48 -9.534392636934361E-005
                    49  1.170937811691840E-005
                    50 -1.893708652691426E-004
                    51  0.000000000000000E+000
                    52  0.000000000000000E+000
                    53 -6.782702009152588E-006
                    54  7.483375067322532E-004
                    55  0.000000000000000E+000
                    56 -4.470182634647514E-006
                    57 -7.967899945589544E-005
                    58  0.000000000000000E+000
                    59  0.000000000000000E+000
                    60  1.878333196112218E-005
                    61 -1.336926009302688E-004
                    62 -5.248173211681224E-004
                    63 -1.943830551841804E-003
                    64 -9.647061996080894E-005
                    65  2.176900995602692E-003
                    66 -3.023780684667244E-004
                    67 -4.797683971175004E-005
                    68  0.000000000000000E+000
                    69  3.683685731518643E-004
                    70  8.647265549959889E-004
                    71  0.000000000000000E+000
                    72 -1.780709558746538E-003
                    73  6.327179094801703E-004
                    74  0.000000000000000E+000
                    75 -4.746867020667264E-005
                    76  0.000000000000000E+000
                    77  0.000000000000000E+000
                    78 -4.688816758370690E-005
                    79 -2.423540995089396E-005
                    80 -1.336197569571865E-004
                    81  0.000000000000000E+000
                    82  0.000000000000000E+000
                    83  1.807347730413141E-005
                    84 -2.283930904107169E-005
                    85  0.000000000000000E+000
                    86  9.216969662712391E-006
                    87 -4.568150917850398E-005
                    88  0.000000000000000E+000
                    89  0.000000000000000E+000
                    90 -2.974788792054945E-005
                    91 -1.562605867380364E-004
                    92 -1.752666270508573E-004
                    93 -5.177917598438755E-004
                    94  1.473218416096300E-004
                    95 -4.399312462746532E-005
                    96  5.706544858240573E-005
                    97 -1.209347814183025E-004
                    98  0.000000000000000E+000
                    99  3.345502448597724E-004
                   100  3.653077282616240E-004
                   101  0.000000000000000E+000
                   102  6.113234024534025E-004
                   103 -1.657061526340515E-003
                   104  0.000000000000000E+000
                   105 -1.473471687997148E-005
                   106  0.000000000000000E+000
                   107  0.000000000000000E+000
                   108 -3.450035525499896E-005
                   109 -1.130733403683345E-005
                   110  7.366632523592807E-005
                   111  0.000000000000000E+000
                   112  0.000000000000000E+000
                   113 -1.508664019520235E-004
                   114  1.131370829250290E-004
                   115  0.000000000000000E+000
                   116 -1.751882797582202E-005
                   117 -2.160582914612942E-005
                   118  0.000000000000000E+000
                   119  0.000000000000000E+000
                   120 -8.391998934630785E-006
                   121 -4.419847981797449E-005
                   122 -2.404468093456851E-004
                   123 -6.687683292851665E-004
                   124  1.716794502740543E-004
                   125  2.828401434204681E-004
                   126 -3.841389150374808E-005
                   127 -2.059077107376210E-004
                   128  0.000000000000000E+000
                   129  2.346968308512112E-004
                   130  6.377203068018189E-004
                   131  0.000000000000000E+000
                   132  4.292063817251132E-004
                   133  1.875451019088579E-003
                   134  0.000000000000000E+000
                   135  1.534431870218815E-005
                   136  0.000000000000000E+000
                   137  0.000000000000000E+000
                   138  4.907239874996146E-005
                   139 -4.813546313909380E-006
                   140  2.022589981428791E-004
                   141  0.000000000000000E+000
                   142  0.000000000000000E+000
                   143  3.902431675942694E-004
                   144  2.020481823417426E-004
                   145  0.000000000000000E+000
                   146 -1.229718905726066E-005
                   147 -6.292640731436919E-005
                   148  0.000000000000000E+000
                   149  0.000000000000000E+000
                   150 -1.000230980377180E-005
                   151 -5.570560427437423E-005
                   152 -1.332600230057627E-004
                   153 -4.214889903941998E-004
                   154  5.590618195345939E-005
                   155  2.007062295681468E-004
                   156  8.665263276227858E-006
                   157 -1.105214438358185E-006
                   158  0.000000000000000E+000
                   159 -1.065090886434975E-005
                   160  4.720514116402913E-005
                   161  0.000000000000000E+000
                   162  7.237216886116634E-004
                   163 -3.395039503373943E-004
                   164  0.000000000000000E+000
                   165  2.032300188280204E-006
                   166  0.000000000000000E+000
                   167  0.000000000000000E+000
                   168  5.252690138804284E-006
                   169  1.324330728993742E-005
                   170  1.075905748724029E-004
                   171  0.000000000000000E+000
                   172  0.000000000000000E+000
                   173  4.842030193280520E-005
                   174  3.921200695043453E-005
                   175  0.000000000000000E+000
                   176  4.426589187771577E-006
                   177 -1.423144876728222E-005
                   178  0.000000000000000E+000
                   179  0.000000000000000E+000
                   180 -2.532922798655541E-005
                   181 -3.079242685941331E-005
                   182 -1.356116928942143E-004
                   183 -4.033351410196011E-004
                   184  3.078429644947113E-005
                   185  2.132821937850781E-004
                   186 -4.449202110017705E-005
                   187 -5.627260106656740E-005
                   188  0.000000000000000E+000
                   189  2.507978072577260E-004
                   190  1.153831043874540E-004
                   191  0.000000000000000E+000
                   192  1.259158050193446E-003
                   193 -3.062997044598240E-004
                   194  0.000000000000000E+000
                   195  6.808649625424862E-007
                   196  0.000000000000000E+000
                   197  0.000000000000000E+000
                   198 -2.419102212937526E-006
                   199  3.977734445403457E-006
                   200 -7.200345213202982E-006
                   201  0.000000000000000E+000
                   202  0.000000000000000E+000
                   203 -6.540915208831975E-005
                   204 -1.913888143688193E-004
                   205  0.000000000000000E+000
                   206 -9.112847704044660E-006
                   207 -3.760112029595590E-006
                   208  0.000000000000000E+000
                   209  0.000000000000000E+000
                   210  7.680299612236231E-006
                   211 -3.737247913518485E-006
                   212 -2.072056700455059E-005
                   213  1.148592905174758E-004
                   214  1.420375098973050E-005
                   215  2.628325835274824E-005
                   216  0.000000000000000E+000
                   217 -1.247126170904602E-003
                   218 -3.966014434164435E-004
                   219 -2.009193358162006E-004
                   220  3.672356351621903E-005
                   221  0.000000000000000E+000
                   222 -1.537144033899856E-004
                   223 -6.503791590153487E-004
                   224  2.233146810553185E-005
                   225 -5.861630286840902E-005
                   226  0.000000000000000E+000
                   227  8.691601773371775E-005
                   228 -6.255085254754578E-004
                   229 -4.342951070240512E-005
                   230 -1.592108879016131E-005
                   231  0.000000000000000E+000
                   232  5.150861017281730E-005
                   233 -4.485659285886964E-004
                   234  1.473085523421050E-005
                   235 -4.111619380048407E-006
                   236  0.000000000000000E+000
                   237  4.175843641933489E-005
                   238 -3.574829089748783E-004
                   239 -1.020632476434373E-005
                   240 -3.549223702560170E-006
                   241  0.000000000000000E+000
                   242 -6.971711575127365E-005
                   243  8.541388058420682E-005
                   244  4.882195448336763E-008
                   245  2.884290027726744E-005
                   246  0.000000000000000E+000
 Sym= __2_A'_
 Ene=  0.000000000000000E+000
 Spin= Alpha
 Occup=    2.00000000000000     
                     1  4.816832026406524E-005
                     2  3.324521071624621E-004
                     3 -2.843488613804917E-003
                     4 -1.210927065902844E-004
                     5 -1.325847453788570E-003
                     6  3.022434688906369E-004
                     7 -2.709547343628859E-003
                     8  0.000000000000000E+000
                     9  3.076040598118304E-005
                    10  1.096096030794717E-004
                    11  0.000000000000000E+000
                    12  5.174925392020379E-005
                    13  3.058492866465153E-004
                    14  0.000000000000000E+000
                    15 -2.732508140821931E-005
                    16  0.000000000000000E+000
                    17  0.000000000000000E+000
                    18  4.146226496073804E-005
                    19 -1.951106211532649E-005
                    20  1.123827093506113E-004
                    21  0.000000000000000E+000
                    22  0.000000000000000E+000
                    23 -1.221656015746082E-004
                    24  1.516199516809809E-004
                    25  0.000000000000000E+000
                    26  1.809620861343718E-005
                    27 -9.492400028447107E-005
                    28  0.000000000000000E+000
                    29  0.000000000000000E+000
                    30  6.600767513751758E-005
                    31 -1.473431863001855E-004
                    32  -1.00089865334321     
                    33 -9.061024568766368E-003
                    34 -2.761317697238873E-003
                    35  8.062789852807712E-003
                    36  1.818514580848117E-004
                    37  3.149252208227767E-003
                    38  0.000000000000000E+000
                    39  1.071632558346181E-004
                    40 -1.932312013104140E-004
                    41  0.000000000000000E+000
                    42  1.592882009691320E-004
                    43 -3.979789281037621E-003
                    44  0.000000000000000E+000
                    45  5.279496480533319E-004
                    46  0.000000000000000E+000
                    47  0.000000000000000E+000
                    48  1.943596283922418E-004
                    49 -3.228126236686236E-005
                    50 -5.510922276706199E-004
                    51  0.000000000000000E+000
                    52  0.000000000000000E+000
                    53  6.600472093986802E-004
                    54  4.007644212386138E-004
                    55  0.000000000000000E+000
                    56 -1.206052158321145E-005
                    57 -9.894317663361976E-005
                    58  0.000000000000000E+000
                    59  0.000000000000000E+000
                    60  2.438476509303975E-005
                    61 -3.810613250832676E-004
                    62 -1.240198823283531E-002
                    63  2.022685370567741E-003
                    64  2.385118447320392E-004
                    65 -2.704144066029157E-003
                    66 -3.738754334944619E-005
                    67 -1.027066447933418E-004
                    68  0.000000000000000E+000
                    69 -5.267262974959822E-004
                    70 -1.541387339772787E-004
                    71  0.000000000000000E+000
                    72  2.094519999116845E-003
                    73 -2.711340815885629E-004
                    74  0.000000000000000E+000
                    75 -3.399933887126385E-005
                    76  0.000000000000000E+000
                    77  0.000000000000000E+000
                    78  5.072785810516828E-006
                    79 -3.583330278024663E-006
                    80  4.291106900172798E-004
                    81  0.000000000000000E+000
                    82  0.000000000000000E+000
                    83  6.565079699616218E-004
                    84  2.626197925262350E-004
                    85  0.000000000000000E+000
                    86 -2.861819182624468E-005
                    87  5.855574459137736E-005
                    88  0.000000000000000E+000
                    89  0.000000000000000E+000
                    90 -4.365562644870765E-005
                    91 -1.482169312408007E-004
                    92 -1.521550621475405E-002
                    93  2.083266238435872E-003
                    94  2.997014468160115E-004
                    95 -3.169284086610372E-003
                    96 -1.617059190519882E-004
                    97 -1.629975223711198E-004
                    98  0.000000000000000E+000
                    99  9.218738425877559E-004
                   100 -1.763280885521715E-005
                   101  0.000000000000000E+000
                   102 -1.697537910942627E-003
                   103  9.000999768963982E-006
                   104  0.000000000000000E+000
                   105 -2.361583443625356E-005
                   106  0.000000000000000E+000
                   107  0.000000000000000E+000
                   108  6.823786244224560E-006
                   109 -4.319683125611211E-006
                   110  4.203828602239975E-004
                   111  0.000000000000000E+000
                   112  0.000000000000000E+000
                   113  3.937529243504838E-004
                   114 -2.429048087719527E-004
                   115  0.000000000000000E+000
                   116  3.107665411260265E-005
                   117  7.286941438099887E-005
                   118  0.000000000000000E+000
                   119  0.000000000000000E+000
                   120  2.667591834155052E-006
                   121 -1.335104853058460E-004
                   122  8.183624266988601E-005
                   123  6.682068434561811E-004
                   124 -2.302221367681067E-004
                   125  1.337655029224135E-004
                   126 -2.689914578491559E-006
                   127  3.850743837152533E-004
                   128  0.000000000000000E+000
                   129  7.931082805604512E-005
                   130 -6.196753943869184E-004
                   131  0.000000000000000E+000
                   132 -3.759140585641876E-004
                   133 -9.128041506675243E-004
                   134  0.000000000000000E+000
                   135 -1.856127489074814E-005
                   136  0.000000000000000E+000
                   137  0.000000000000000E+000
                   138 -3.624554302104626E-006
                   139 -4.353417974100007E-005
                   140 -1.297475610781284E-004
                   141  0.000000000000000E+000
                   142  0.000000000000000E+000
                   143 -2.555297268430248E-004
                   144  1.081216894903034E-004
                   145  0.000000000000000E+000
                   146 -9.080069354223310E-006
                   147  3.685641008004718E-005
                   148  0.000000000000000E+000
                   149  0.000000000000000E+000
                   150  4.334907840629256E-005
                   151 -3.696163205315404E-005
                   152 -9.590324685025700E-005
                   153  6.383774376436828E-004
                   154 -2.300466469663643E-004
                   155  5.076306764949017E-005
                   156  3.656818287268054E-005
                   157  4.176230508611252E-004
                   158  0.000000000000000E+000
                   159 -1.315072224513883E-004
                   160 -5.509168877081131E-004