[Molden Format]
[Atoms] AU
  N     1    7     0.0000000000   -4.2907334100    0.0000000000        
  C     2    6     0.0000000000   -1.7772236300    0.0000000000        
  C     3    6    -2.3389203600   -0.4111016300    0.0000000000        
  C     4    6     2.3389203600   -0.4111016300    0.0000000000        
  C     5    6    -2.2998668500    2.1639215300    0.0000000000        
  C     6    6     2.2998668500    2.1639215300    0.0000000000        
  C     7    6     0.0000000000    3.4755251800    0.0000000000        
  H     8    1    -2.4124509000   -5.7790131500    0.0000000000        
  H     9    1     1.7691306600   -5.3821385500    0.0000000000        
  H    10    1    -4.0745407300   -1.4447408500    0.0000000000        
  H    11    1     4.0745407300   -1.4447408500    0.0000000000        
  H    12    1    -4.0420632100    3.1963889500    0.0000000000        
  H    13    1     4.0420632100    3.1963889500    0.0000000000        
  H    14    1     0.0000000000    5.5020335600    0.0000000000        
[5D]
[7F]
[GTO]
  1  0
   s    12 1.00
  0.114200D+05  0.172695D-04
  0.171200D+04  0.134411D-03
  0.389300D+03  0.694561D-03
  0.110000D+03  0.278531D-02
  0.355700D+02  0.863457D-02
  0.125400D+02  0.199805D-01
  0.464400D+01  0.262908D-01
  0.129300D+01 -0.243845D-01
  0.511800D+00 -0.924934D-01
  0.178700D+00 -0.339683D+00
  0.246240D-01  0.345111D+00
  0.112530D-01  0.752750D+00
   s    10 1.00
  0.114200D+05  0.523000D-03
  0.171200D+04  0.404500D-02
  0.389300D+03  0.207750D-01
  0.110000D+03  0.807269D-01
  0.355700D+02  0.233074D+00
  0.125400D+02  0.433501D+00
  0.464400D+01  0.347472D+00
  0.129300D+01  0.412620D-01
  0.511800D+00 -0.850799D-02
  0.178700D+00  0.238400D-02
   s    10 1.00
  0.114200D+05 -0.115000D-03
  0.171200D+04 -0.895000D-03
  0.389300D+03 -0.462400D-02
  0.110000D+03 -0.185280D-01
  0.355700D+02 -0.573390D-01
  0.125400D+02 -0.132076D+00
  0.464400D+01 -0.172510D+00
  0.129300D+01  0.151814D+00
  0.511800D+00  0.599944D+00
  0.178700D+00  0.387462D+00
   s     1 1.00
  0.129300D+01  0.100000D+01
   s     1 1.00
  0.178700D+00  0.100000D+01
   p     5 1.00
  0.266300D+02  0.146700D-01
  0.594800D+01  0.917640D-01
  0.174200D+01  0.298683D+00
  0.555000D+00  0.498487D+00
  0.172500D+00  0.337023D+00
   p     1 1.00
  0.174200D+01  0.100000D+01
   p     1 1.00
  0.555000D+00  0.100000D+01
   d     1 1.00
  0.165400D+01  0.100000D+01
   d     1 1.00
  0.469000D+00  0.100000D+01
   f     1 1.00
  0.109300D+01  0.100000D+01
  
  2  0
   s    10 1.00
  0.823600D+04  0.531000D-03
  0.123500D+04  0.410800D-02
  0.280800D+03  0.210870D-01
  0.792700D+02  0.818530D-01
  0.255900D+02  0.234817D+00
  0.899700D+01  0.434401D+00
  0.331900D+01  0.346129D+00
  0.905900D+00  0.393780D-01
  0.364300D+00 -0.898300D-02
  0.128500D+00  0.238500D-02
   s    10 1.00
  0.823600D+04 -0.113000D-03
  0.123500D+04 -0.878000D-03
  0.280800D+03 -0.454000D-02
  0.792700D+02 -0.181330D-01
  0.255900D+02 -0.557600D-01
  0.899700D+01 -0.126895D+00
  0.331900D+01 -0.170352D+00
  0.905900D+00  0.140382D+00
  0.364300D+00  0.598684D+00
  0.128500D+00  0.395389D+00
   s     1 1.00
  0.905900D+00  0.100000D+01
   s     1 1.00
  0.364300D+00  0.100000D+01
   p     5 1.00
  0.187100D+02  0.140310D-01
  0.413300D+01  0.868660D-01
  0.120000D+01  0.290216D+00
  0.382700D+00  0.501008D+00
  0.120900D+00  0.343406D+00
   p     1 1.00
  0.382700D+00  0.100000D+01
   p     1 1.00
  0.120900D+00  0.100000D+01
   d     1 1.00
  0.109700D+01  0.100000D+01
   d     1 1.00
  0.318000D+00  0.100000D+01
   f     1 1.00
  0.761000D+00  0.100000D+01
  
  3  0
   s    10 1.00
  0.823600D+04  0.531000D-03
  0.123500D+04  0.410800D-02
  0.280800D+03  0.210870D-01
  0.792700D+02  0.818530D-01
  0.255900D+02  0.234817D+00
  0.899700D+01  0.434401D+00
  0.331900D+01  0.346129D+00
  0.905900D+00  0.393780D-01
  0.364300D+00 -0.898300D-02
  0.128500D+00  0.238500D-02
   s    10 1.00
  0.823600D+04 -0.113000D-03
  0.123500D+04 -0.878000D-03
  0.280800D+03 -0.454000D-02
  0.792700D+02 -0.181330D-01
  0.255900D+02 -0.557600D-01
  0.899700D+01 -0.126895D+00
  0.331900D+01 -0.170352D+00
  0.905900D+00  0.140382D+00
  0.364300D+00  0.598684D+00
  0.128500D+00  0.395389D+00
   s     1 1.00
  0.905900D+00  0.100000D+01
   s     1 1.00
  0.364300D+00  0.100000D+01
   p     5 1.00
  0.187100D+02  0.140310D-01
  0.413300D+01  0.868660D-01
  0.120000D+01  0.290216D+00
  0.382700D+00  0.501008D+00
  0.120900D+00  0.343406D+00
   p     1 1.00
  0.382700D+00  0.100000D+01
   p     1 1.00
  0.120900D+00  0.100000D+01
   d     1 1.00
  0.109700D+01  0.100000D+01
   d     1 1.00
  0.318000D+00  0.100000D+01
   f     1 1.00
  0.761000D+00  0.100000D+01
  
  4  0
   s    10 1.00
  0.823600D+04  0.531000D-03
  0.123500D+04  0.410800D-02
  0.280800D+03  0.210870D-01
  0.792700D+02  0.818530D-01
  0.255900D+02  0.234817D+00
  0.899700D+01  0.434401D+00
  0.331900D+01  0.346129D+00
  0.905900D+00  0.393780D-01
  0.364300D+00 -0.898300D-02
  0.128500D+00  0.238500D-02
   s    10 1.00
  0.823600D+04 -0.113000D-03
  0.123500D+04 -0.878000D-03
  0.280800D+03 -0.454000D-02
  0.792700D+02 -0.181330D-01
  0.255900D+02 -0.557600D-01
  0.899700D+01 -0.126895D+00
  0.331900D+01 -0.170352D+00
  0.905900D+00  0.140382D+00
  0.364300D+00  0.598684D+00
  0.128500D+00  0.395389D+00
   s     1 1.00
  0.905900D+00  0.100000D+01
   s     1 1.00
  0.364300D+00  0.100000D+01
   p     5 1.00
  0.187100D+02  0.140310D-01
  0.413300D+01  0.868660D-01
  0.120000D+01  0.290216D+00
  0.382700D+00  0.501008D+00
  0.120900D+00  0.343406D+00
   p     1 1.00
  0.382700D+00  0.100000D+01
   p     1 1.00
  0.120900D+00  0.100000D+01
   d     1 1.00
  0.109700D+01  0.100000D+01
   d     1 1.00
  0.318000D+00  0.100000D+01
   f     1 1.00
  0.761000D+00  0.100000D+01
  
  5  0
   s    10 1.00
  0.823600D+04  0.531000D-03
  0.123500D+04  0.410800D-02
  0.280800D+03  0.210870D-01
  0.792700D+02  0.818530D-01
  0.255900D+02  0.234817D+00
  0.899700D+01  0.434401D+00
  0.331900D+01  0.346129D+00
  0.905900D+00  0.393780D-01
  0.364300D+00 -0.898300D-02
  0.128500D+00  0.238500D-02
   s    10 1.00
  0.823600D+04 -0.113000D-03
  0.123500D+04 -0.878000D-03
  0.280800D+03 -0.454000D-02
  0.792700D+02 -0.181330D-01
  0.255900D+02 -0.557600D-01
  0.899700D+01 -0.126895D+00
  0.331900D+01 -0.170352D+00
  0.905900D+00  0.140382D+00
  0.364300D+00  0.598684D+00
  0.128500D+00  0.395389D+00
   s     1 1.00
  0.905900D+00  0.100000D+01
   s     1 1.00
  0.364300D+00  0.100000D+01
   p     5 1.00
  0.187100D+02  0.140310D-01
  0.413300D+01  0.868660D-01
  0.120000D+01  0.290216D+00
  0.382700D+00  0.501008D+00
  0.120900D+00  0.343406D+00
   p     1 1.00
  0.382700D+00  0.100000D+01
   p     1 1.00
  0.120900D+00  0.100000D+01
   d     1 1.00
  0.109700D+01  0.100000D+01
   d     1 1.00
  0.318000D+00  0.100000D+01
   f     1 1.00
  0.761000D+00  0.100000D+01
  
  6  0
   s    10 1.00
  0.823600D+04  0.531000D-03
  0.123500D+04  0.410800D-02
  0.280800D+03  0.210870D-01
  0.792700D+02  0.818530D-01
  0.255900D+02  0.234817D+00
  0.899700D+01  0.434401D+00
  0.331900D+01  0.346129D+00
  0.905900D+00  0.393780D-01
  0.364300D+00 -0.898300D-02
  0.128500D+00  0.238500D-02
   s    10 1.00
  0.823600D+04 -0.113000D-03
  0.123500D+04 -0.878000D-03
  0.280800D+03 -0.454000D-02
  0.792700D+02 -0.181330D-01
  0.255900D+02 -0.557600D-01
  0.899700D+01 -0.126895D+00
  0.331900D+01 -0.170352D+00
  0.905900D+00  0.140382D+00
  0.364300D+00  0.598684D+00
  0.128500D+00  0.395389D+00
   s     1 1.00
  0.905900D+00  0.100000D+01
   s     1 1.00
  0.364300D+00  0.100000D+01
   p     5 1.00
  0.187100D+02  0.140310D-01
  0.413300D+01  0.868660D-01
  0.120000D+01  0.290216D+00
  0.382700D+00  0.501008D+00
  0.120900D+00  0.343406D+00
   p     1 1.00
  0.382700D+00  0.100000D+01
   p     1 1.00
  0.120900D+00  0.100000D+01
   d     1 1.00
  0.109700D+01  0.100000D+01
   d     1 1.00
  0.318000D+00  0.100000D+01
   f     1 1.00
  0.761000D+00  0.100000D+01
  
  7  0
   s    10 1.00
  0.823600D+04  0.531000D-03
  0.123500D+04  0.410800D-02
  0.280800D+03  0.210870D-01
  0.792700D+02  0.818530D-01
  0.255900D+02  0.234817D+00
  0.899700D+01  0.434401D+00
  0.331900D+01  0.346129D+00
  0.905900D+00  0.393780D-01
  0.364300D+00 -0.898300D-02
  0.128500D+00  0.238500D-02
   s    10 1.00
  0.823600D+04 -0.113000D-03
  0.123500D+04 -0.878000D-03
  0.280800D+03 -0.454000D-02
  0.792700D+02 -0.181330D-01
  0.255900D+02 -0.557600D-01
  0.899700D+01 -0.126895D+00
  0.331900D+01 -0.170352D+00
  0.905900D+00  0.140382D+00
  0.364300D+00  0.598684D+00
  0.128500D+00  0.395389D+00
   s     1 1.00
  0.905900D+00  0.100000D+01
   s     1 1.00
  0.364300D+00  0.100000D+01
   p     5 1.00
  0.187100D+02  0.140310D-01
  0.413300D+01  0.868660D-01
  0.120000D+01  0.290216D+00
  0.382700D+00  0.501008D+00
  0.120900D+00  0.343406D+00
   p     1 1.00
  0.382700D+00  0.100000D+01
   p     1 1.00
  0.120900D+00  0.100000D+01
   d     1 1.00
  0.109700D+01  0.100000D+01
   d     1 1.00
  0.318000D+00  0.100000D+01
   f     1 1.00
  0.761000D+00  0.100000D+01
  
  8  0
   s     4 1.00
  0.130100D+02  0.196850D-01
  0.196200D+01  0.137977D+00
  0.444600D+00  0.478148D+00
  0.122000D+00  0.501240D+00
   s     1 1.00
  0.122000D+00  0.100000D+01
   p     1 1.00
  0.727000D+00  0.100000D+01
  
  9  0
   s     4 1.00
  0.130100D+02  0.196850D-01
  0.196200D+01  0.137977D+00
  0.444600D+00  0.478148D+00
  0.122000D+00  0.501240D+00
   s     1 1.00
  0.122000D+00  0.100000D+01
   p     1 1.00
  0.727000D+00  0.100000D+01
  
 10  0
   s     4 1.00
  0.130100D+02  0.196850D-01
  0.196200D+01  0.137977D+00
  0.444600D+00  0.478148D+00
  0.122000D+00  0.501240D+00
   s     1 1.00
  0.122000D+00  0.100000D+01
   p     1 1.00
  0.727000D+00  0.100000D+01
  
 11  0
   s     4 1.00
  0.130100D+02  0.196850D-01
  0.196200D+01  0.137977D+00
  0.444600D+00  0.478148D+00
  0.122000D+00  0.501240D+00
   s     1 1.00
  0.122000D+00  0.100000D+01
   p     1 1.00
  0.727000D+00  0.100000D+01
  
 12  0
   s     4 1.00
  0.130100D+02  0.196850D-01
  0.196200D+01  0.137977D+00
  0.444600D+00  0.478148D+00
  0.122000D+00  0.501240D+00
   s     1 1.00
  0.122000D+00  0.100000D+01
   p     1 1.00
  0.727000D+00  0.100000D+01
  
 13  0
   s     4 1.00
  0.130100D+02  0.196850D-01
  0.196200D+01  0.137977D+00
  0.444600D+00  0.478148D+00
  0.122000D+00  0.501240D+00
   s     1 1.00
  0.122000D+00  0.100000D+01
   p     1 1.00
  0.727000D+00  0.100000D+01
  
 14  0
   s     4 1.00
  0.130100D+02  0.196850D-01
  0.196200D+01  0.137977D+00
  0.444600D+00  0.478148D+00
  0.122000D+00  0.501240D+00
   s     1 1.00
  0.122000D+00  0.100000D+01
   p     1 1.00
  0.727000D+00  0.100000D+01
  
[MO]
 Sym= __1_A'_
 Ene=   1.00000000000000     
 Spin= Alpha
 Occup=    1.00000000000000     
                     1  4.988324341010642E-005
                     2  0.998503530894906     
                     3  2.326437046377020E-003
                     4  1.647867849997582E-003
                     5  4.321323422988950E-003
                     6  3.062620930139074E-003
                     7  5.953699774430592E-003
                     8  0.000000000000000E+000
                     9 -6.264819522461409E-004
                    10 -4.481398132566174E-004
                    11  0.000000000000000E+000
                    12 -2.138031519614319E-003
                    13 -1.352250346693027E-003
                    14  0.000000000000000E+000
                    15 -1.102385841993199E-004
                    16  0.000000000000000E+000
                    17  0.000000000000000E+000
                    18 -2.137230000175940E-004
                    19 -5.473320897602625E-005
                    20  2.510199210063027E-004
                    21  0.000000000000000E+000
                    22  0.000000000000000E+000
                    23 -2.701752734035624E-004
                    24  4.779207596045497E-004
                    25  0.000000000000000E+000
                    26  1.598502049240817E-006
                    27 -6.000709045927993E-005
                    28  0.000000000000000E+000
                    29  0.000000000000000E+000
                    30  1.582256734943644E-005
                    31 -1.051226901283028E-004
                    32 -3.023428040930485E-004
                    33  1.534554324903385E-003
                    34  2.296334983144016E-004
                    35 -2.618184513727060E-004
                    36 -1.662743485327652E-004
                    37 -4.840893939423517E-003
                    38  0.000000000000000E+000
                    39  4.529004000058152E-004
                    40  2.103425768859575E-004
                    41  0.000000000000000E+000
                    42 -1.871598767614264E-003
                    43  5.104752053820190E-003
                    44  0.000000000000000E+000
                    45 -2.371094466256101E-005
                    46  0.000000000000000E+000
                    47  0.000000000000000E+000
                    48 -2.493049392906172E-004
                    49 -1.634718524691281E-005
                    50 -2.910653173176726E-004
                    51  0.000000000000000E+000
                    52  0.000000000000000E+000
                    53  8.427310855970766E-005
                    54  6.940298383519103E-004
                    55  0.000000000000000E+000
                    56 -1.538363682212663E-005
                    57 -4.182406641187308E-005
                    58  0.000000000000000E+000
                    59  0.000000000000000E+000
                    60  2.030480906294314E-007
                    61 -1.215412224156865E-004
                    62 -4.382264084830698E-004
                    63 -2.047828135397582E-003
                    64 -7.574562176313450E-005
                    65  1.838395764338391E-003
                    66 -6.730467428471215E-004
                    67  4.778058739376467E-004
                    68  0.000000000000000E+000
                    69  3.927558274859041E-004
                    70  7.722441350683156E-004
                    71  0.000000000000000E+000
                    72 -1.546267405849928E-003
                    73  6.184918756736347E-004
                    74  0.000000000000000E+000
                    75 -3.706518913258198E-005
                    76  0.000000000000000E+000
                    77  0.000000000000000E+000
                    78 -7.975566555849464E-005
                    79 -2.825126614206507E-005
                    80 -1.286107282046250E-004
                    81  0.000000000000000E+000
                    82  0.000000000000000E+000
                    83  8.524998993425754E-005
                    84  1.048630136782019E-004
                    85  0.000000000000000E+000
                    86  9.850590062803759E-006
                    87 -4.590616271529948E-005
                    88  0.000000000000000E+000
                    89  0.000000000000000E+000
                    90 -2.199970631266025E-005
                    91 -1.431270453869533E-004
                    92 -1.329883522544963E-004
                    93 -1.047565389687309E-003
                    94  1.953856364977583E-004
                    95 -2.491062447892824E-004
                    96  5.749198827731875E-004
                    97  6.568466171725446E-004
                    98  0.000000000000000E+000
                    99  3.905480907615892E-004
                   100  3.659267692881847E-004
                   101  0.000000000000000E+000
                   102  4.776751107966307E-004
                   103 -1.203525847893791E-003
                   104  0.000000000000000E+000
                   105 -3.284580386152475E-006
                   106  0.000000000000000E+000
                   107  0.000000000000000E+000
                   108 -6.955983742554170E-005
                   109 -1.517138383525364E-005
                   110  1.131968080275211E-004
                   111  0.000000000000000E+000
                   112  0.000000000000000E+000
                   113 -1.046975097180055E-004
                   114 -7.580945411226372E-005
                   115  0.000000000000000E+000
                   116 -2.386180324972550E-005
                   117 -3.225802650983938E-005
                   118  0.000000000000000E+000
                   119  0.000000000000000E+000
                   120  1.529631063110721E-005
                   121 -3.449068962555777E-005
                   122 -2.482785523819803E-004
                   123 -4.882463006570114E-004
                   124  1.633617501483766E-004
                   125  3.367879819806949E-004
                   126 -5.943112037300074E-006
                   127 -5.357338360739069E-004
                   128  0.000000000000000E+000
                   129  1.668328992307130E-004
                   130  5.653683395062230E-004
                   131  0.000000000000000E+000
                   132  2.822018418446319E-004
                   133  1.767178316518528E-003
                   134  0.000000000000000E+000
                   135  1.271133235043393E-005
                   136  0.000000000000000E+000
                   137  0.000000000000000E+000
                   138  4.020081363110854E-005
                   139 -3.187654355611784E-008
                   140  1.849965089619098E-004
                   141  0.000000000000000E+000
                   142  0.000000000000000E+000
                   143  3.227935717603368E-004
                   144  2.338470056938827E-004
                   145  0.000000000000000E+000
                   146 -8.300308100822910E-006
                   147 -5.591366688927689E-005
                   148  0.000000000000000E+000
                   149  0.000000000000000E+000
                   150 -1.506404637158946E-005
                   151 -4.482327867530375E-005
                   152 -1.734635236984428E-004
                   153 -2.442944895891107E-004
                   154  4.676841106383641E-005
                   155  3.556770285999373E-004
                   156 -2.676984730013514E-005
                   157 -4.910077228044503E-004
                   158  0.000000000000000E+000
                   159  5.627710426968158E-006
                   160  8.822704083696553E-005
                   161  0.000000000000000E+000
                   162  6.383697611513751E-004
                   163 -1.134240770933249E-004
                   164  0.000000000000000E+000
                   165 -8.625393212435955E-007
                   166  0.000000000000000E+000
                   167  0.000000000000000E+000
                   168 -3.544127042467412E-006
                   169  3.979057574632339E-006
                   170  6.573118684096899E-005
                   171  0.000000000000000E+000
                   172  0.000000000000000E+000
                   173  3.266718161929890E-005
                   174 -4.875376076242953E-005
                   175  0.000000000000000E+000
                   176  4.547557433027034E-006
                   177 -1.124603619732203E-005
                   178  0.000000000000000E+000
                   179  0.000000000000000E+000
                   180 -1.997597277565815E-005
                   181 -1.117395276200595E-005
                   182 -1.588840375171314E-004
                   183 -4.488331821426338E-004
                   184  4.645755893483269E-005
                   185  2.270891982536275E-004
                   186 -3.273300737858553E-005
                   187 -5.291279802875792E-005
                   188  0.000000000000000E+000
                   189  1.692045829382150E-004
                   190  5.507271810923582E-005
                   191  0.000000000000000E+000
                   192  1.065317004666760E-003
                   193 -1.112971255689209E-004
                   194  0.000000000000000E+000
                   195 -1.508270573803253E-006
                   196  0.000000000000000E+000
                   197  0.000000000000000E+000
                   198 -1.441512370607446E-005
                   199  5.494547882550235E-006
                   200  2.213388760028120E-005
                   201  0.000000000000000E+000
                   202  0.000000000000000E+000
                   203 -8.045454753612678E-005
                   204 -1.482067970451569E-004
                   205  0.000000000000000E+000
                   206 -4.698100545465511E-006
                   207 -5.866202326644950E-006
                   208  0.000000000000000E+000
                   209  0.000000000000000E+000
                   210  8.163955394950408E-006
                   211 -4.689888282298401E-006
                   212  9.713009368069685E-005
                   213 -4.500037751493810E-005
                   214  1.626652121724273E-004
                   215  1.624715186822482E-004
                   216  0.000000000000000E+000
                   217  1.004797108144303E-003
                   218 -1.236396673941059E-003
                   219 -4.113883839607242E-004
                   220  2.352065419881733E-004
                   221  0.000000000000000E+000
                   222 -4.244973139943412E-004
                   223 -5.903334073921352E-004
                   224  2.594211509824423E-006
                   225 -6.279207819792550E-005
                   226  0.000000000000000E+000
                   227 -2.959949000870595E-004
                   228 -3.990797086815951E-004
                   229 -3.107712457131327E-006
                   230 -2.045623692415757E-005
                   231  0.000000000000000E+000
                   232 -8.271217885202021E-005
                   233 -5.246276251883251E-004
                   234  4.636642664761762E-006
                   235 -7.000156905085130E-007
                   236  0.000000000000000E+000
                   237 -1.638683349965652E-004
                   238 -4.034059866747066E-004
                   239  6.038204849904694E-006
                   240  3.052894431475844E-006
                   241  0.000000000000000E+000
                   242  1.906973195326421E-005
                   243 -5.573307319859588E-005
                   244 -4.090287809354744E-007
                   245  2.003651977922953E-005
                   246  0.000000000000000E+000
 Sym= __2_A'_
 Ene=   2.00000000000000     
 Spin= Alpha
 Occup=    1.00000000000000     
                     1 -5.041355118591523E-005
                     2 -3.351841753320367E-004
                     3  2.717455926248491E-003
                     4  1.518959539203486E-004
                     5  1.328468839324287E-003
                     6 -2.535226527499400E-004
                     7  3.027443375175990E-003
                     8  0.000000000000000E+000
                     9 -5.039554901669502E-005
                    10 -9.781272413912005E-005
                    11  0.000000000000000E+000
                    12  9.488249524957306E-005
                    13 -4.619919903811148E-004
                    14  0.000000000000000E+000
                    15  3.603659878397616E-005
                    16  0.000000000000000E+000
                    17  0.000000000000000E+000
                    18 -5.554517714512740E-005
                    19  3.840857097847387E-006
                    20 -1.294543111747331E-004
                    21  0.000000000000000E+000
                    22  0.000000000000000E+000
                    23  1.984695415319734E-004
                    24  5.482961184048190E-006
                    25  0.000000000000000E+000
                    26 -1.363860595011076E-005
                    27  9.177996607987121E-005
                    28  0.000000000000000E+000
                    29  0.000000000000000E+000
                    30 -1.446829581506750E-005
                    31  1.435363166993254E-004
                    32   1.00101719315593     
                    33  9.355138316181916E-003
                    34  2.729081219092989E-003
                    35 -8.080041147038863E-003
                    36 -1.045541967524576E-004
                    37 -3.675402157116188E-003
                    38  0.000000000000000E+000
                    39  1.067813759309744E-004
                    40  4.749942287296441E-004
                    41  0.000000000000000E+000
                    42  6.304801472035275E-005
                    43  4.258595912277422E-003
                    44  0.000000000000000E+000
                    45 -5.739478296546660E-004
                    46  0.000000000000000E+000
                    47  0.000000000000000E+000
                    48 -2.009068699557402E-004
                    49 -5.496764452684529E-006
                    50  5.463715185189873E-004
                    51  0.000000000000000E+000
                    52  0.000000000000000E+000
                    53 -9.357384732228696E-004
                    54  6.549277866988835E-005
                    55  0.000000000000000E+000
                    56 -2.723703552099411E-006
                    57  9.300760874362873E-005
                    58  0.000000000000000E+000
                    59  0.000000000000000E+000
                    60 -1.421593640143930E-007
                    61  4.076125956728043E-004
                    62  8.981631556848647E-003
                    63 -2.086346395401712E-003
                    64 -2.933171436211860E-004
                    65  3.087712151612116E-003
                    66 -4.784559138683374E-006
                    67  8.608388448176056E-005
                    68  0.000000000000000E+000
                    69  7.313325676255474E-004
                    70 -2.065670324337109E-005
                    71  0.000000000000000E+000
                    72 -2.055206536405639E-003
                    73  6.397839783534558E-005
                    74  0.000000000000000E+000
                    75  2.624681678816336E-005
                    76  0.000000000000000E+000
                    77  0.000000000000000E+000
                    78 -3.001751343221406E-006
                    79  1.678691185374687E-006
                    80 -4.056877082120315E-004
                    81  0.000000000000000E+000
                    82  0.000000000000000E+000
                    83 -5.851266865418582E-004
                    84 -3.851508736889057E-004
                    85  0.000000000000000E+000
                    86  3.391306016677960E-005
                    87 -5.843382639692472E-005
                    88  0.000000000000000E+000
                    89  0.000000000000000E+000
                    90  5.334118418409280E-005
                    91  1.410831643750971E-004
                    92  9.624438302336016E-003
                    93 -2.083059119976211E-003
                    94 -2.815982717144787E-004
                    95  3.034444890583415E-003
                    96  5.155359331387065E-006
                    97  7.257332858178358E-005
                    98  0.000000000000000E+000
                    99 -6.589618763308325E-004
                   100  3.686780774855498E-005
                   101  0.000000000000000E+000
                   102  2.066559780649227E-003
                   103  7.805857930155873E-005
                   104  0.000000000000000E+000
                   105  3.040668759745485E-005
                   106  0.000000000000000E+000
                   107  0.000000000000000E+000
                   108 -4.070819259358796E-006
                   109 -7.865995039860298E-006
                   110 -4.099726465264593E-004
                   111  0.000000000000000E+000
                   112  0.000000000000000E+000
                   113 -6.264740805221177E-004
                   114  3.781505316886814E-004
                   115  0.000000000000000E+000
                   116 -3.238321248438757E-005
                   117 -5.891463527956956E-005
                   118  0.000000000000000E+000
                   119  0.000000000000000E+000
                   120 -5.110693449054330E-005
                   121  1.379909696831754E-004
                   122 -1.724191234152784E-004
                   123 -6.858767980842807E-004
                   124  2.228279314646408E-004
                   125 -9.294881870214074E-005
                   126 -3.911929100346779E-006
                   127 -3.239838358831816E-004
                   128  0.000000000000000E+000
                   129 -5.909263608750370E-005
                   130  5.269284168895225E-004
                   131  0.000000000000000E+000
                   132  3.090923049800187E-004
                   133  7.498774929724273E-004
                   134  0.000000000000000E+000
                   135  1.832631045652135E-005
                   136  0.000000000000000E+000
                   137  0.000000000000000E+000
                   138  3.547370946588876E-006
                   139  5.251267344086166E-005
                   140  1.362265531554951E-004
                   141  0.000000000000000E+000
                   142  0.000000000000000E+000
                   143  2.392739831149826E-004
                   144 -1.826593411815585E-004
                   145  0.000000000000000E+000
                   146  7.196927925838355E-006
                   147 -3.340312177256605E-005
                   148  0.000000000000000E+000
                   149  0.000000000000000E+000
                   150 -4.761494931130645E-005
                   151  2.870168080138453E-005
                   152 -1.475481440418870E-004
                   153 -6.882476639803339E-004
                   154  2.284142796770286E-004
                   155 -1.283061081468091E-004
                   156  2.843144143739664E-006
                   157 -3.232434477906764E-004
                   158  0.000000000000000E+000
                   159  4.045976532819192E-005
                   160  5.620935362066079E-004