===========================================================
===                   runc                              ===
===           version 7.0.2 , April 2021              ===
===          requires COLUMBUS version Col_7.0.2        ===
===                                                     ===
===   written by: Thomas Mueller                        ===
===   gradient ext. by: Michal Dallos                   ===
===               University of Vienna                  ===
===   maintained by: Felix Plasser                      ===
===               Loughborough University               ===
===========================================================


coremem. (seq.): 200000 MB,  coremem. (par.): 19000 MB
Vdisk size: 0 DP
Reading job control file control.run ... 
 ****** This is an 2c-QDPT MRCISD calculation ****** 
 model space size=4:0:4
SMOLCAS=/home-4/yshen57@jhu.edu/Software/Chemistry/Columbus-7.0.2_OpenMolcas-18.09-col/OpenMolcas/build
Found serial Molcas Installation at /home-4/yshen57@jhu.edu/Software/Chemistry/Columbus-7.0.2_OpenMolcas-18.09-col/OpenMolcas/build
  done 
INFO: keywords nadcoupl and seward are supported for DCI mode only!
seward specified, using also alaska
Creating various directories ... 
 done 
SMOLCAS=/home-4/yshen57@jhu.edu/Software/Chemistry/Columbus-7.0.2_OpenMolcas-18.09-col/OpenMolcas/build
PMOLCAS=
Checking for illegal keywords and keyword combinations ... done 

 Nonadiabatic coupling term calculation type: DCI+DCSF
  States involved in calcualtion:
   DRT1,state1;  DRT1,state2
   DRT1,state1;  DRT1,state3
   DRT1,state1;  DRT1,state4
   DRT1,state2;  DRT1,state3
   DRT1,state2;  DRT1,state4
   DRT1,state3;  DRT1,state4
   DRT2,state1;  DRT2,state2
   DRT2,state1;  DRT2,state3
   DRT2,state1;  DRT2,state4
   DRT2,state2;  DRT2,state3
   DRT2,state2;  DRT2,state4
   DRT2,state3;  DRT2,state4

Additional gradients computed:
   DRT1,state1
   DRT1,state2
   DRT1,state3
   DRT1,state4
   DRT2,state1
   DRT2,state2
   DRT2,state3
   DRT2,state4

Checking for complete set of input files ... 
mcscf calculation without preceeding scf calculation 
will use 
 /scratch/users/yshen57@jhu.edu/Molcas/slow/0.9/mrci/mocoef as starting MOs 
Performing coupled non-rel. SO-CI calculation, nrroots: 4 0 4
starting cidrt.x   -m 200000 < cidrtin > temp at Sun May 15 14:43:01 EDT 2022

 -------------------- cidrt.x ------------------------
 spatial symmetry:  
 total number of configurations          0
 number of reference configurations     0
 --------------------------------------------------- 
 Preparing SO cidrtin files for 1 symmetries
cat ../cidrtin | sed -e 's/^.*input the molecular spatial symmetry/1 \/ molsym/' > cidrtin.so_A 
calling cidrt.x -m 200000 < cidrtin.so_A > cidrtls.soci_A ...
Checking the DRTs for consistency ...
calling reindex.x -i 1 -m 200000  ...
done

 ++++++++++++++++++ input file generation +++++++++++++ 
 runc start: Sun May 15 14:43:20 EDT 2022
 
  runc start: Sun May 15 14:43:20 EDT 2022
 
 starting unik.gets.x > unikls at Sun May 15 14:43:20 EDT 2022

 -------------------- unik.gets.x ------------------------
 --------------------------------------------------- 
 ++++++++++++++++++++ ao integral calculation ++++++++++++++++
starting pymolcas molcas.input.seward > molcas.output.seward  at Sun May 15 14:43:20 EDT 2022

Generating link ln -s ./molcas.OrdInt ORDINT 
 -------------------- seward ------------------------
      Basis set label: N.ANILINE.........
      Basis set label: C.ANILINE.........
      Basis set label: H.ANILINE.........
  Nuclear Coordinates in                   atomic units                                   Angstrom 
     Center  Label                x              y              z                     x              y              z
        1      N1              -4.433028       0.128183      -0.010249             -2.345857       0.067831      -0.005423
        2      C2              -1.771062      -0.004116       0.002682             -0.937206      -0.002178       0.001419
        3      C3              -0.426649       0.003340      -2.267904             -0.225773       0.001767      -1.200123
        4      C4              -0.425628      -0.000334       2.270406             -0.225233      -0.000177       1.201447
        5      C5               2.188022       0.003279      -2.255126              1.157852       0.001735      -1.193362
        6      C6               2.189783      -0.002087       2.255901              1.158783      -0.001105       1.193771
        7      C7               3.516104      -0.001076       0.000089              1.860642      -0.000570       0.000047
        8      H8              -5.143072      -0.555523      -1.396231             -2.721596      -0.293970      -0.738853
        9      H9              -5.194260      -0.602036       1.597407             -2.748684      -0.318584       0.845311
       10      H10             -1.430033       0.013673      -4.030717             -0.756741       0.007236      -2.132964
       11      H11             -1.427879       0.011326       4.033933             -0.755601       0.005994       2.134665
       12      H12              3.189674       0.002986      -4.019933              1.687903       0.001580      -2.127257
       13      H13              3.192050      -0.004875       4.020430              1.689160      -0.002580       2.127520
       14      H14              5.543848      -0.002564      -0.000626              2.933678      -0.001357      -0.000331
 
            Nuclear Potential Energy            273.14029294 au
 --------------------------------------------------- 
  >>>>>>>>>>>>> info: preparing drt no 1 out of 1 <<<<<<
starting mcdrt.x -m 200000 < mcdrtin > mcdrtls at Sun May 15 14:49:23 EDT 2022

 -------------------- mcdrt.x ------------------------
  Spin multiplicity: singlet 
  Spatial symmetry (#): 1
  Number of Configurations:       1275 
  --------------------------------------------------- 
 starting mcuft.x at Sun May 15 14:49:23 EDT 2022

 -------------------- mcuft.x ------------------------
 --------------------------------------------------- 
 ++++++++++++++++++++ MCSCF calculation +++++++++++++++
info: taking mocoef file from /scratch/users/yshen57@jhu.edu/Molcas/slow/0.9/mrci/mocoef
adding flag 30 to mcscfin
Writing mcdenin files for mcscf.x for 1 DRTs
adding flag 26 to mcscfin
starting mcscf.x -m 200000 at Sun May 15 14:49:23 EDT 2022

 -------------------- mcscf.x ------------------------
 Individual total energies for all states: 
    DRT #1 state # 1 wt 0.250 total energy=     -285.895739854, rel. (eV)=   0.000000
    DRT #1 state # 2 wt 0.250 total energy=     -285.677071011, rel. (eV)=   5.950285
    DRT #1 state # 3 wt 0.250 total energy=     -285.663578266, rel. (eV)=   6.317441
    DRT #1 state # 4 wt 0.250 total energy=     -285.623964596, rel. (eV)=   7.395384
  --------------------------------------------------- 
 starting mcpc.x -m 200000 < mcpcin > mcpcls at Sun May 15 14:52:33 EDT 2022

 -------------------- mcpc.x ------------------------
 --------------------------------------------------- 
 starting mcpc.x -m 200000 < mcpcin > mcpcls at Sun May 15 14:52:34 EDT 2022

 -------------------- mcpc.x ------------------------
 --------------------------------------------------- 
 starting mcpc.x -m 200000 < mcpcin > mcpcls at Sun May 15 14:52:34 EDT 2022

 -------------------- mcpc.x ------------------------
 --------------------------------------------------- 
 starting mcpc.x -m 200000 < mcpcin > mcpcls at Sun May 15 14:52:34 EDT 2022

 -------------------- mcpc.x ------------------------
 --------------------------------------------------- 
 
========= state properties for state-averaged MCSCF =========
mcscf.drt1.st01.sp
starting exptvl.x -m 200000   at Sun May 15 14:52:34 EDT 2022

 -------------------- exptvl.x ------------------------
  === dipole moment === 
                     X               Y               Z   
   orign x       0.00000000      0.00000000      0.00000000
   orign y       0.00000000      0.00000000      0.00000000
   orign z       0.00000000      0.00000000      0.00000000
   nuclear      -0.67744877     -0.24569838      0.16880328
   electronic    0.19180006     -0.21128230     -0.13458888
   total        -0.48564871     -0.45698068      0.03421440
   total Dipole moment =   1.69718929    Debye
 --------------------------------------------------- 
 mcscf.drt1.st02.sp
starting exptvl.x -m 200000   at Sun May 15 14:52:34 EDT 2022

 -------------------- exptvl.x ------------------------
  === dipole moment === 
                     X               Y               Z   
   orign x       0.00000000      0.00000000      0.00000000
   orign y       0.00000000      0.00000000      0.00000000
   orign z       0.00000000      0.00000000      0.00000000
   nuclear      -0.67744877     -0.24569838      0.16880328
   electronic    4.58382976     -0.19612855     -0.14157657
   total         3.90638099     -0.44182693      0.02722671
   total Dipole moment =   9.99258639    Debye
 --------------------------------------------------- 
 mcscf.drt1.st03.sp
starting exptvl.x -m 200000   at Sun May 15 14:52:35 EDT 2022

 -------------------- exptvl.x ------------------------
  === dipole moment === 
                     X               Y               Z   
   orign x       0.00000000      0.00000000      0.00000000
   orign y       0.00000000      0.00000000      0.00000000
   orign z       0.00000000      0.00000000      0.00000000
   nuclear      -0.67744877     -0.24569838      0.16880328
   electronic   -0.13857140     -0.15914671     -0.13860573
   total        -0.81602017     -0.40484509      0.03019755
   total Dipole moment =   2.31662030    Debye
 --------------------------------------------------- 
 mcscf.drt1.st04.sp
starting exptvl.x -m 200000   at Sun May 15 14:52:35 EDT 2022

 -------------------- exptvl.x ------------------------
  === dipole moment === 
                     X               Y               Z   
   orign x       0.00000000      0.00000000      0.00000000
   orign y       0.00000000      0.00000000      0.00000000
   orign z       0.00000000      0.00000000      0.00000000
   nuclear      -0.67744877     -0.24569838      0.16880328
   electronic    5.58671544     -0.25559641     -0.14836543
   total         4.90926667     -0.50129479      0.02043785
   total Dipole moment =  12.54311629    Debye
 --------------------------------------------------- 
  using the MCSCF MOs ... 
starting cidrt.x  -m 200000 < cidrtin.1 > cidrtls at Sun May 15 14:52:35 EDT 2022

 -------------------- cidrt.x ------------------------
 total number of orbitals            :   246
 number of frozen core orbitals      :    18
 number of frozen virtual orbitals   :     0
 number of internal orbitals         :    14
 number of external orbitals         :   214
 spatial symmetry:   a  
 
 total number of configurations  158587185
 number of reference configurations  1275
 --------------------------------------------------- 
 starting cidrt.x  -m 200000 < cidrtin.2 > cidrtls at Sun May 15 14:52:38 EDT 2022

 -------------------- cidrt.x ------------------------
 total number of orbitals            :   246
 number of frozen core orbitals      :    18
 number of frozen virtual orbitals   :     0
 number of internal orbitals         :    14
 number of external orbitals         :   214
 spatial symmetry:   a  
 
 total number of configurations  282461366
 number of reference configurations  1666
 --------------------------------------------------- 
 starting tran.x -m 200000  at Sun May 15 14:52:42 EDT 2022

 -------------------- tran.x ------------------------
 --------------------------------------------------- 
  Starting ciudgav with DRT # 1 out of 2 

 *** starting pciudg section *** 
nproc: 48 machinefile:  
assuming machinefile syntax: one host name per line optionally repeated
 section2, MPI_STARTUP:
 /software/apps/mpi/openmpi/3.1/intel/18.0/bin/mpirun -np 48  /home-4/yshen57@jhu.edu/Software/Chemistry/Columbus-7.0.2_OpenMolcas-18.09-col/Columbus/pciudg.x -m 19000 
 -------------------- pciudg.x ------------------------
 type of calculation:          mr-sdci
 number of configurations:     158587185
 total mr-sdci energy             -286.0926704841 
 last mr-sdci energy change           0.0000000000 
 residual                             0.0000066744 
  type of calculation:          mr-sdci
 number of configurations:     158587185
 total mr-sdci energy             -285.9092931333 
 last mr-sdci energy change           0.0000000000 
 residual                             0.0000063477 
  type of calculation:          mr-sdci
 number of configurations:     158587185
 total mr-sdci energy             -285.9045571616 
 last mr-sdci energy change           0.0000000000 
 residual                             0.0000080423 
  type of calculation:          mr-sdci
 number of configurations:     158587185
 total mr-sdci energy             -285.8554509046 
 last mr-sdci energy change           0.0000000000 
 residual                             0.0000081142 
  --------------------------------------------------- 
 keyinfile returned docipci=0:
starting cipc.x -m 200000 < cipcin > cipcls at Mon May 16 08:22:10 EDT 2022

 -------------------- cipc.x ------------------------
 --------------------------------------------------- 
  Starting ciudgav with DRT # 2 out of 2 

 *** starting pciudg section *** 
nproc: 48 machinefile:  
assuming machinefile syntax: one host name per line optionally repeated
 section2, MPI_STARTUP:
 /software/apps/mpi/openmpi/3.1/intel/18.0/bin/mpirun -np 48  /home-4/yshen57@jhu.edu/Software/Chemistry/Columbus-7.0.2_OpenMolcas-18.09-col/Columbus/pciudg.x -m 19000 
 -------------------- pciudg.x ------------------------
 type of calculation:          mr-sdci
 number of configurations:     282461366
 total mr-sdci energy             -285.9362935123 
 last mr-sdci energy change           0.0000000000 
 residual                             0.0000064333 
  type of calculation:          mr-sdci
 number of configurations:     282461366
 total mr-sdci energy             -285.9181834173 
 last mr-sdci energy change           0.0000000000 
 residual                             0.0000053237 
  type of calculation:          mr-sdci
 number of configurations:     282461366
 total mr-sdci energy             -285.9113867594 
 last mr-sdci energy change           0.0000000000 
 residual                             0.0000063766 
  type of calculation:          mr-sdci
 number of configurations:     282461366
 total mr-sdci energy             -285.9083919556 
 last mr-sdci energy change           0.0000000000 
 residual                             0.0000085324 
  --------------------------------------------------- 
 keyinfile returned docipci=0:
starting cipc.x -m 200000 < cipcin > cipcls at Wed May 18 00:17:56 EDT 2022

 -------------------- cipc.x ------------------------
 --------------------------------------------------- 
 Reindex call
run_socinr: imult=1 irrep=1 
opening file =ciudgls.drt1.sp
opening file =ciudgls.drt1.sp
opening file =ciudgls.drt1.sp
opening file =ciudgls.drt1.sp
run_socinr: imult=3 irrep=1 
opening file =ciudgls.drt2.sp
opening file =ciudgls.drt2.sp
opening file =ciudgls.drt2.sp
opening file =ciudgls.drt2.sp
 copying /scratch/users/yshen57@jhu.edu/Molcas/slow/0.9/mrci/cidrtfl.so__A --> cidrtfl.so__A 
 copying /scratch/users/yshen57@jhu.edu/Molcas/slow/0.9/mrci/cidrtfl.so__A --> cidrtfl.so__A 
starting reindex.x -m 200000 > reindexls at Wed May 18 00:18:22 EDT 2022

 -------------------- reindex.x ------------------------
 --------------------------------------------------- 
 1      1        1           civfl_1_A             1      1    0+       1             1         civfl.so__A
1      1        2           civfl_1_A             1      1    0+       2    1005971284         civfl.so__A
1      1        3           civfl_1_A             1      1    0+       3    2011942567         civfl.so__A
1      1        4           civfl_1_A             1      1    0+       4    3017913850         civfl.so__A
3      1        1           civfl_3_A             1      3    0+       5    4023885133         civfl.so__A
3      1        1           civfl_3_A             1      3    1+       6    5029856416         civfl.so__A
3      1        1           civfl_3_A             1      3    1-       7    6035827699         civfl.so__A
3      1        2           civfl_3_A             1      3    0+       8    7041798982         civfl.so__A
3      1        2           civfl_3_A             1      3    1+       9    8047770265         civfl.so__A
3      1        2           civfl_3_A             1      3    1-      10    9053741548         civfl.so__A
3      1        3           civfl_3_A             1      3    0+      11   10059712831         civfl.so__A
3      1        3           civfl_3_A             1      3    1+      12   11065684114         civfl.so__A
3      1        3           civfl_3_A             1      3    1-      13   12071655397         civfl.so__A
3      1        4           civfl_3_A             1      3    0+      14   13077626680         civfl.so__A
3      1        4           civfl_3_A             1      3    1+      15   14083597963         civfl.so__A
3      1        4           civfl_3_A             1      3    1-      16   15089569246         civfl.so__A
 Executing ciudg.x  for gamma =A ...

 *** starting pciudg section *** 
nproc: 48 machinefile:  
assuming machinefile syntax: one host name per line optionally repeated
 section2, MPI_STARTUP:
 /software/apps/mpi/openmpi/3.1/intel/18.0/bin/mpirun -np 48  /home-4/yshen57@jhu.edu/Software/Chemistry/Columbus-7.0.2_OpenMolcas-18.09-col/Columbus/pciudg.x -m 19000 
 -------------------- pciudg.x ------------------------
 type of calculation:          mr-sdci
 number of configurations:     1005971283
 total mr-sdci energy             -286.0926704860 
 last mr-sdci energy change           0.0000000019 
 residual                            36.5510000000 
  type of calculation:          mr-sdci
 number of configurations:     1005971283
 total mr-sdci energy             -285.9362935158 
 last mr-sdci energy change           0.0270000000 
 residual                            36.3950000000 
  type of calculation:          mr-sdci
 number of configurations:     1005971283
 total mr-sdci energy             -285.9362935156 
 last mr-sdci energy change           0.0317360000 
 residual                            36.3950000000 
  type of calculation:          mr-sdci
 number of configurations:     1005971283
 total mr-sdci energy             -285.9362935149 
 last mr-sdci energy change           0.0808430000 
 residual                            36.3950000000 
  type of calculation:          mr-sdci
 number of configurations:     1005971283
 total mr-sdci energy             -285.9181834187 
 last mr-sdci energy change          -0.0181100000 
 residual                            36.3770000000 
  type of calculation:          mr-sdci
 number of configurations:     1005971283
 total mr-sdci energy             -285.9181834183 
 last mr-sdci energy change          -0.0181100000 
 residual                            36.3770000000 
  type of calculation:          mr-sdci
 number of configurations:     1005971283
 total mr-sdci energy             -285.9181834176 
 last mr-sdci energy change          -0.0181100000 
 residual                            36.3770000000 
  type of calculation:          mr-sdci
 number of configurations:     1005971283
 total mr-sdci energy             -285.9113867637 
 last mr-sdci energy change          -0.0067967000 
 residual                            36.3700000000 
  type of calculation:          mr-sdci
 number of configurations:     1005971283
 total mr-sdci energy             -285.9113867625 
 last mr-sdci energy change          -0.0067967000 
 residual                            36.3700000000 
  type of calculation:          mr-sdci
 number of configurations:     1005971283
 total mr-sdci energy             -285.9113867573 
 last mr-sdci energy change          -0.0067967000 
 residual                            36.3700000000 
  type of calculation:          mr-sdci
 number of configurations:     1005971283
 total mr-sdci energy             -285.9092931490 
 last mr-sdci energy change          -0.0020936000 
 residual                            36.3680000000 
  type of calculation:          mr-sdci
 number of configurations:     1005971283
 total mr-sdci energy             -285.9083919487 
 last mr-sdci energy change          -0.0029948000 
 residual                            36.3670000000 
  type of calculation:          mr-sdci
 number of configurations:     1005971283
 total mr-sdci energy             -285.9083919482 
 last mr-sdci energy change          -0.0029948000 
 residual                            36.3670000000 
  type of calculation:          mr-sdci
 number of configurations:     1005971283
 total mr-sdci energy             -285.9083919364 
 last mr-sdci energy change          -0.0000000192 
 residual                            36.3670000000 
  type of calculation:          mr-sdci
 number of configurations:     1005971283
 total mr-sdci energy             -285.9045571606 
 last mr-sdci energy change          -0.0038348000 
 residual                            36.3630000000 
  type of calculation:          mr-sdci
 number of configurations:     1005971283
 total mr-sdci energy             -285.8554509041 
 last mr-sdci energy change          -0.0529410000 
 residual                            36.3140000000 
  --------------------------------------------------- 
 ************* Results for Spin-Orbit CI gamma=A **************** 
Final spin-orbit CI state energies: 


-------------- HT matrix in AU ----------------  
-36.551349    
 0.000000    -36.367972    
 0.000000     0.000000    -36.363236    
 0.000000     0.000000     0.000000    -36.314129    
 0.000002     0.000008    -0.000000    -0.000000    -36.394972    
 0.000000     0.000000     0.000001    -0.000000    -0.000000    -36.394972    
 0.000001     0.000002     0.000003     0.000002    -0.000000    -0.000000    -36.394972    
 0.000001    -0.000000     0.000000     0.000005     0.000000     0.000001    -0.000000    -36.376862    
 0.000001    -0.000001     0.000000     0.000000    -0.000001     0.000000     0.000001     0.000000    -36.376862    
 0.000005     0.000002    -0.000000     0.000001     0.000000    -0.000001     0.000000    -0.000000     0.000000    -36.376862    
-0.000016    -0.000000    -0.000000     0.000000     0.000000    -0.000002     0.000000     0.000000    -0.000002    -0.000001    -36.370065    
-0.000001    -0.000000    -0.000001     0.000000     0.000002     0.000000    -0.000009     0.000002     0.000000     0.000000     0.000000    -36.370065    
-0.000006     0.000000     0.000002     0.000001    -0.000000     0.000009     0.000000     0.000001    -0.000000     0.000000     0.000000    -0.000000    -36.370065    
-0.000000     0.000004    -0.000000     0.000000     0.000000    -0.000000    -0.000000     0.000000    -0.000002     0.000000     0.000000     0.000001    -0.000000    -36.367071    
 0.000000     0.000000    -0.000000     0.000000     0.000000     0.000000    -0.000000     0.000002     0.000000    -0.000000    -0.000001     0.000000     0.000004     0.000000    -36.367071    
 0.000001     0.000001    -0.000000    -0.000001     0.000000     0.000000     0.000000    -0.000000     0.000000     0.000000     0.000000    -0.000004     0.000000    -0.000000    -0.000000    -36.367071    
-------------- HT matrix in eV ---------------- 
 -994.613   
    0.000    -989.623   
    0.000       0.000    -989.494   
    0.000       0.000       0.000    -988.158   
    0.000       0.000      -0.000      -0.000    -990.358   
    0.000       0.000       0.000      -0.000      -0.000    -990.358   
    0.000       0.000       0.000       0.000      -0.000      -0.000    -990.358   
    0.000      -0.000       0.000       0.000       0.000       0.000      -0.000    -989.865   
    0.000      -0.000       0.000       0.000      -0.000       0.000       0.000       0.000    -989.865   
    0.000       0.000      -0.000       0.000       0.000      -0.000       0.000      -0.000       0.000    -989.865   
   -0.000      -0.000      -0.000       0.000       0.000      -0.000       0.000       0.000      -0.000      -0.000    -989.680   
   -0.000      -0.000      -0.000       0.000       0.000       0.000      -0.000       0.000       0.000       0.000       0.000    -989.680   
   -0.000       0.000       0.000       0.000      -0.000       0.000       0.000       0.000      -0.000       0.000       0.000      -0.000    -989.680   
   -0.000       0.000      -0.000       0.000       0.000      -0.000      -0.000       0.000      -0.000       0.000       0.000       0.000      -0.000    -989.598   
    0.000       0.000      -0.000       0.000       0.000       0.000      -0.000       0.000       0.000      -0.000      -0.000       0.000       0.000       0.000    -989.598   
    0.000       0.000      -0.000      -0.000       0.000       0.000       0.000      -0.000       0.000       0.000       0.000      -0.000       0.000      -0.000      -0.000    -989.598   
-------------- HT matrix in cm-1 ------------------- 
Eref = -36.55134908
     0.00   
     0.00    40246.74   
     0.00        0.00    41286.17   
     0.00        0.00        0.00    52063.77   
     0.40        1.76       -0.07       -0.02    34320.84   
     0.05        0.08        0.13       -0.03        0.00    34320.84   
     0.25        0.50        0.57        0.33        0.00        0.00    34320.84   
     0.27       -0.04        0.03        1.05        0.00        0.20       -0.05    38295.55   
     0.22       -0.13        0.01        0.04       -0.20        0.00        0.13        0.00    38295.55   
     1.08        0.38       -0.07        0.25        0.05       -0.13        0.00        0.00        0.00    38295.55   
    -3.57       -0.05       -0.03        0.09        0.00       -0.48        0.07        0.00       -0.38       -0.14    39787.24   
    -0.31       -0.01       -0.13        0.02        0.48        0.00       -1.90        0.38        0.00        0.05        0.00    39787.24   
    -1.38        0.02        0.48        0.26       -0.07        1.90        0.00        0.14       -0.05        0.00        0.00        0.00    39787.24   
    -0.02        0.87       -0.06        0.05        0.00        0.00        0.00        0.00       -0.52        0.10        0.00        0.23       -0.03    40444.53   
     0.02        0.03       -0.01        0.09        0.00        0.00       -0.11        0.52        0.00       -0.09       -0.23        0.00        0.97        0.00    40444.53   
     0.11        0.23       -0.04       -0.26        0.00        0.11        0.00       -0.10        0.09        0.00        0.03       -0.97        0.00        0.00        0.00    40444.53   


Spin-Orbit CI: perturbational estimate of Spin-Orbit CI energies and wavefunctions 
                SO   1         SO   2         SO   3         SO   4         SO   5         SO   6         SO   7         SO   8

   energy  -286.09267049  -285.93629352  -285.93629352  -285.93629351  -285.91818342  -285.91818342  -285.91818342  -285.91138676
 
   NR   1    -0.99999999     0.00000560     0.00000031    -0.00001283    -0.00000698     0.00000279     0.00002873    -0.00001132
   NR   2    -0.00000000    -0.00003709     0.00000074     0.00030685    -0.00001953     0.00008682    -0.00018397    -0.00007208
   NR   3     0.00000000    -0.00008403    -0.00000368     0.00000312     0.00000882    -0.00000700     0.00002148    -0.00032783
   NR   4     0.00000000    -0.00001813     0.00000477     0.00000188     0.00007618    -0.00000332    -0.00001820    -0.00001740
   NR   5     0.00001175    -0.16172679     0.00222226    -0.98683302    -0.00000148    -0.00005156     0.00000629    -0.00003902
   NR   6     0.00000160     0.17319418     0.98453996    -0.02616677    -0.00005028     0.00000498    -0.00003172     0.00034214
   NR   7     0.00000743     0.97151844    -0.17514562    -0.15961138     0.00001287     0.00003115     0.00000360     0.00010184
   NR   8     0.00000693     0.00000299    -0.00005190    -0.00000061    -0.99958491     0.02848974    -0.00426710     0.00000820
   NR   9     0.00000582    -0.00003897     0.00000567    -0.00004484     0.02783192     0.99330170     0.11214712     0.00002023
   NR  10     0.00002829     0.00000745     0.00003118     0.00001110    -0.00743356    -0.11198182     0.99368242     0.00000854
   NR  11    -0.00008975     0.00000182     0.00008836    -0.00000011     0.00000635     0.00024046     0.00011862    -0.20855072
   NR  12    -0.00000785     0.00035231    -0.00006116     0.00003060     0.00025245    -0.00000330    -0.00003343    -0.30079471
   NR  13    -0.00003481    -0.00006250    -0.00034269    -0.00000440     0.00009166     0.00003193     0.00000432     0.93060551
   NR  14    -0.00000054     0.00000013     0.00000009    -0.00000007     0.00000703     0.00024432    -0.00001883     0.00015008
   NR  15     0.00000058     0.00001726    -0.00000304    -0.00000272     0.00024036    -0.00001132     0.00004070    -0.00143877
   NR  16     0.00000282    -0.00000300    -0.00001747     0.00000058    -0.00004717    -0.00003834    -0.00000467    -0.00043150

                SO   9         SO  10         SO  11         SO  12         SO  13         SO  14         SO  15         SO  16

   energy  -285.91138676  -285.91138676  -285.90929315  -285.90839195  -285.90839195  -285.90839194  -285.90455716  -285.85545090
 
   NR   1    -0.00000654     0.00009570     0.00000002     0.00000292    -0.00000007    -0.00000023    -0.00000001    -0.00000000
   NR   2     0.00000357    -0.00010267     0.99998954     0.00000549    -0.00000420    -0.00455670    -0.00000005     0.00000000
   NR   3    -0.00001262     0.00005275    -0.00000036     0.00003269    -0.00000432    -0.00008597     0.99999994     0.00000000
   NR   4    -0.00000658     0.00001202    -0.00000001     0.00002111     0.00001101    -0.00000094    -0.00000001     1.00000000
   NR   5     0.00007929    -0.00000141     0.00029681     0.00000002    -0.00000009    -0.00000135    -0.00001052    -0.00000109
   NR   6     0.00010829     0.00000311     0.00001372     0.00001698     0.00000251    -0.00000454     0.00001837    -0.00000150
   NR   7    -0.00033311     0.00000500     0.00008515    -0.00000242     0.00001757     0.00000038     0.00008152     0.00001874
   NR   8     0.00026556    -0.00003452    -0.00002278    -0.00000451    -0.00024526     0.00000323     0.00000911     0.00007617
   NR   9     0.00002052     0.00025308    -0.00006401     0.00010077     0.00000857     0.00022240     0.00000431     0.00000322
   NR  10     0.00004392     0.00008640     0.00019219    -0.00001866     0.00003895    -0.00004393    -0.00002207     0.00001828
   NR  11    -0.11941429    -0.97069388    -0.00011427    -0.00000941     0.00034789    -0.00000002    -0.00001867     0.00000725
   NR  12     0.95224040    -0.05251937    -0.00003025    -0.00148707    -0.00025051     0.00004718    -0.00008374     0.00000169
   NR  13     0.28102663    -0.23451016     0.00004196     0.00025509    -0.00144746    -0.00000587     0.00032098     0.00002087
   NR  14    -0.00031398     0.00000673    -0.00439738    -0.26087329    -0.00775894    -0.96533176    -0.00007445     0.00000468
   NR  15    -0.00045418     0.00001016    -0.00017192     0.16476110    -0.98565292    -0.03660241    -0.00001327     0.00000730
   NR  16     0.00140470    -0.00002877    -0.00118205     0.95120798     0.16859947    -0.25840673    -0.00005270    -0.00002217
rescaling new expansion vector ... old norm=   4606.7569887068

 model space basis from reindexls .. 
 --SO-CI-------         -----NR-CI-------             ---model space---- 
 Gamma  root             S   irrep   root                S   ms* 
A          1             1   A         1                 1   0+
A          2             1   A         2                 1   0+
A          3             1   A         3                 1   0+
A          4             1   A         4                 1   0+
A          5             3   A         1                 3   0+
A          6             3   A         1                 3   1+
A          7             3   A         1                 3   1-
A          8             3   A         2                 3   0+
A          9             3   A         2                 3   1+
A         10             3   A         2                 3   1-
A         11             3   A         3                 3   0+
A         12             3   A         3                 3   1+
A         13             3   A         3                 3   1-
A         14             3   A         4                 3   0+
A         15             3   A         4                 3   1+
A         16             3   A         4                 3   1-

************************** SUMMARY *********************************

--------------  SO matrix for irrep A in eV ---------------- 
|1,0+;1,A,1>  -994.613   
|1,0+;1,A,2>     0.000    -989.623   
|1,0+;1,A,3>     0.000       0.000    -989.494   
|1,0+;1,A,4>     0.000       0.000       0.000    -988.158   
|3,0+;3,A,1>     0.000       0.000      -0.000      -0.000    -990.358   
|3,1+;3,A,1>     0.000       0.000       0.000      -0.000      -0.000    -990.358   
|3,1-;3,A,1>     0.000       0.000       0.000       0.000      -0.000      -0.000    -990.358   
|3,0+;3,A,2>     0.000      -0.000       0.000       0.000       0.000       0.000      -0.000    -989.865   
|3,1+;3,A,2>     0.000      -0.000       0.000       0.000      -0.000       0.000       0.000       0.000    -989.865   
|3,1-;3,A,2>     0.000       0.000      -0.000       0.000       0.000      -0.000       0.000      -0.000       0.000    -989.865   
|3,0+;3,A,3>    -0.000      -0.000      -0.000       0.000       0.000      -0.000       0.000       0.000      -0.000      -0.000    -989.680   
|3,1+;3,A,3>    -0.000      -0.000      -0.000       0.000       0.000       0.000      -0.000       0.000       0.000       0.000       0.000    -989.680   
|3,1-;3,A,3>    -0.000       0.000       0.000       0.000      -0.000       0.000       0.000       0.000      -0.000       0.000       0.000      -0.000    -989.680   
|3,0+;3,A,4>    -0.000       0.000      -0.000       0.000       0.000      -0.000      -0.000       0.000      -0.000       0.000       0.000       0.000      -0.000    -989.598   
|3,1+;3,A,4>     0.000       0.000      -0.000       0.000       0.000       0.000      -0.000       0.000       0.000      -0.000      -0.000       0.000       0.000       0.000    -989.598   
|3,1-;3,A,4>     0.000       0.000      -0.000      -0.000       0.000       0.000       0.000      -0.000       0.000       0.000       0.000      -0.000       0.000      -0.000      -0.000    -989.598   

--------------  SO matrix for irrep A in cm-1 ------------------- 
Eref = -36.55134908
|1,0+;1,A,1>      0.00   
|1,0+;1,A,2>      0.00    40246.74   
|1,0+;1,A,3>      0.00        0.00    41286.17   
|1,0+;1,A,4>      0.00        0.00        0.00    52063.77   
|3,0+;3,A,1>      0.40        1.76       -0.07       -0.02    34320.84   
|3,1+;3,A,1>      0.05        0.08        0.13       -0.03        0.00    34320.84   
|3,1-;3,A,1>      0.25        0.50        0.57        0.33        0.00        0.00    34320.84   
|3,0+;3,A,2>      0.27       -0.04        0.03        1.05        0.00        0.20       -0.05    38295.55   
|3,1+;3,A,2>      0.22       -0.13        0.01        0.04       -0.20        0.00        0.13        0.00    38295.55   
|3,1-;3,A,2>      1.08        0.38       -0.07        0.25        0.05       -0.13        0.00        0.00        0.00    38295.55   
|3,0+;3,A,3>     -3.57       -0.05       -0.03        0.09        0.00       -0.48        0.07        0.00       -0.38       -0.14    39787.24   
|3,1+;3,A,3>     -0.31       -0.01       -0.13        0.02        0.48        0.00       -1.90        0.38        0.00        0.05        0.00    39787.24   
|3,1-;3,A,3>     -1.38        0.02        0.48        0.26       -0.07        1.90        0.00        0.14       -0.05        0.00        0.00        0.00    39787.24   
|3,0+;3,A,4>     -0.02        0.87       -0.06        0.05        0.00        0.00        0.00        0.00       -0.52        0.10        0.00        0.23       -0.03    40444.53   
|3,1+;3,A,4>      0.02        0.03       -0.01        0.09        0.00        0.00       -0.11        0.52        0.00       -0.09       -0.23        0.00        0.97        0.00    40444.53   
|3,1-;3,A,4>      0.11        0.23       -0.04       -0.26        0.00        0.11        0.00       -0.10        0.09        0.00        0.03       -0.97        0.00        0.00        0.00    40444.53   


 ** perturbational estimate of Spin-Orbit CI energies and wavefunctions in model space basis** 

                      A  1         A  2         A  3         A  4         A  5         A  6         A  7         A  8

            energy  -286.09267049  -285.93629352  -285.93629352  -285.93629351  -285.91818342  -285.91818342  -285.91818342  -285.91138676
          
   |1,0+;1,A,1>    -0.99999999     0.00000560     0.00000031    -0.00001283    -0.00000698     0.00000279     0.00002873    -0.00001132
   |1,0+;1,A,2>    -0.00000000    -0.00003709     0.00000074     0.00030685    -0.00001953     0.00008682    -0.00018397    -0.00007208
   |1,0+;1,A,3>     0.00000000    -0.00008403    -0.00000368     0.00000312     0.00000882    -0.00000700     0.00002148    -0.00032783
   |1,0+;1,A,4>     0.00000000    -0.00001813     0.00000477     0.00000188     0.00007618    -0.00000332    -0.00001820    -0.00001740
   |3,0+;3,A,1>     0.00001175    -0.16172679     0.00222226    -0.98683302    -0.00000148    -0.00005156     0.00000629    -0.00003902
   |3,1+;3,A,1>     0.00000160     0.17319418     0.98453996    -0.02616677    -0.00005028     0.00000498    -0.00003172     0.00034214
   |3,1-;3,A,1>     0.00000743     0.97151844    -0.17514562    -0.15961138     0.00001287     0.00003115     0.00000360     0.00010184
   |3,0+;3,A,2>     0.00000693     0.00000299    -0.00005190    -0.00000061    -0.99958491     0.02848974    -0.00426710     0.00000820
   |3,1+;3,A,2>     0.00000582    -0.00003897     0.00000567    -0.00004484     0.02783192     0.99330170     0.11214712     0.00002023
   |3,1-;3,A,2>     0.00002829     0.00000745     0.00003118     0.00001110    -0.00743356    -0.11198182     0.99368242     0.00000854
   |3,0+;3,A,3>    -0.00008975     0.00000182     0.00008836    -0.00000011     0.00000635     0.00024046     0.00011862    -0.20855072
   |3,1+;3,A,3>    -0.00000785     0.00035231    -0.00006116     0.00003060     0.00025245    -0.00000330    -0.00003343    -0.30079471
   |3,1-;3,A,3>    -0.00003481    -0.00006250    -0.00034269    -0.00000440     0.00009166     0.00003193     0.00000432     0.93060551
   |3,0+;3,A,4>    -0.00000054     0.00000013     0.00000009    -0.00000007     0.00000703     0.00024432    -0.00001883     0.00015008
   |3,1+;3,A,4>     0.00000058     0.00001726    -0.00000304    -0.00000272     0.00024036    -0.00001132     0.00004070    -0.00143877
   |3,1-;3,A,4>     0.00000282    -0.00000300    -0.00001747     0.00000058    -0.00004717    -0.00003834    -0.00000467    -0.00043150

                      A  9         A 10         A 11         A 12         A 13         A 14         A 15         A 16

            energy  -285.91138676  -285.91138676  -285.90929315  -285.90839195  -285.90839195  -285.90839194  -285.90455716  -285.85545090
          
   |1,0+;1,A,1>    -0.00000654     0.00009570     0.00000002     0.00000292    -0.00000007    -0.00000023    -0.00000001    -0.00000000
   |1,0+;1,A,2>     0.00000357    -0.00010267     0.99998954     0.00000549    -0.00000420    -0.00455670    -0.00000005     0.00000000
   |1,0+;1,A,3>    -0.00001262     0.00005275    -0.00000036     0.00003269    -0.00000432    -0.00008597     0.99999994     0.00000000
   |1,0+;1,A,4>    -0.00000658     0.00001202    -0.00000001     0.00002111     0.00001101    -0.00000094    -0.00000001     1.00000000
   |3,0+;3,A,1>     0.00007929    -0.00000141     0.00029681     0.00000002    -0.00000009    -0.00000135    -0.00001052    -0.00000109
   |3,1+;3,A,1>     0.00010829     0.00000311     0.00001372     0.00001698     0.00000251    -0.00000454     0.00001837    -0.00000150
   |3,1-;3,A,1>    -0.00033311     0.00000500     0.00008515    -0.00000242     0.00001757     0.00000038     0.00008152     0.00001874
   |3,0+;3,A,2>     0.00026556    -0.00003452    -0.00002278    -0.00000451    -0.00024526     0.00000323     0.00000911     0.00007617
   |3,1+;3,A,2>     0.00002052     0.00025308    -0.00006401     0.00010077     0.00000857     0.00022240     0.00000431     0.00000322
   |3,1-;3,A,2>     0.00004392     0.00008640     0.00019219    -0.00001866     0.00003895    -0.00004393    -0.00002207     0.00001828
   |3,0+;3,A,3>    -0.11941429    -0.97069388    -0.00011427    -0.00000941     0.00034789    -0.00000002    -0.00001867     0.00000725
   |3,1+;3,A,3>     0.95224040    -0.05251937    -0.00003025    -0.00148707    -0.00025051     0.00004718    -0.00008374     0.00000169
   |3,1-;3,A,3>     0.28102663    -0.23451016     0.00004196     0.00025509    -0.00144746    -0.00000587     0.00032098     0.00002087
   |3,0+;3,A,4>    -0.00031398     0.00000673    -0.00439738    -0.26087329    -0.00775894    -0.96533176    -0.00007445     0.00000468
   |3,1+;3,A,4>    -0.00045418     0.00001016    -0.00017192     0.16476110    -0.98565292    -0.03660241    -0.00001327     0.00000730
   |3,1-;3,A,4>     0.00140470    -0.00002877    -0.00118205     0.95120798     0.16859947    -0.25840673    -0.00005270    -0.00002217
rescaling new expansion vector ... old norm=   4606.7569887068

Sorted Energies:
1  -286.09267049 
2  -285.93629352 
3  -285.93629352 
4  -285.93629351 
5  -285.91818342 
6  -285.91818342 
7  -285.91818342 
8  -285.91138676 
9  -285.91138676 
10  -285.91138676 
11  -285.90929315 
12  -285.90839195 
13  -285.90839195 
14  -285.90839194 
15  -285.90455716 
16  -285.85545090 
Not computing transition moment with identical bra and ket.
 Calculating transition moment for (1,1) => (1,2)
 starting transci.x -m 200000 at Wed May 18 02:17:40 EDT 2022

 -------------------- transci.x ------------------------

                          State No. 1            State No. 2

   Space symmetry:           a                      a   
   No. of CSFs:          ********               ********
   State energies:      -286.09267048          -285.90929313  a.u.

   Transition energy:     0.18337735  a.u.
   Transition energy:     4.99        eV

       Transition moment components:

                 x            y            z

electron         -0.084347     0.026305     0.006962  e*bohr
frozen core       0.000000     0.000000     0.000000  e*bohr
total (elec)     -0.084347     0.026305     0.006962  e*bohr


   Tr.dipole length:     0.088627    e*bohr
   Oscillator strength :  0.000960
   Einstein A coef.:     0.1037E+07  1/sec
   Einstein B coef.:     0.3188E+07  sec/g

                 x            y            z

<L> electron    -0.024010    -0.069184    -0.297214  e*bohr


   <L> value length:     0.306103    e*bohr
 --------------------------------------------------- 
  Calculating transition moment for (1,1) => (1,3)
 starting transci.x -m 200000 at Wed May 18 02:19:57 EDT 2022

 -------------------- transci.x ------------------------

                          State No. 1            State No. 2

   Space symmetry:           a                      a   
   No. of CSFs:          ********               ********
   State energies:      -286.09267048          -285.90455716  a.u.

   Transition energy:     0.18811332  a.u.
   Transition energy:     5.12        eV

       Transition moment components:

                 x            y            z

electron          0.017067     0.000380     0.375017  e*bohr
frozen core       0.000000     0.000000     0.000000  e*bohr
total (elec)      0.017067     0.000380     0.375017  e*bohr


   Tr.dipole length:     0.375405    e*bohr
   Oscillator strength :  0.017674
   Einstein A coef.:     0.2009E+08  1/sec
   Einstein B coef.:     0.5719E+08  sec/g

                 x            y            z

<L> electron    -0.004773    -0.512434     0.014662  e*bohr


   <L> value length:     0.512666    e*bohr
 --------------------------------------------------- 
  Calculating transition moment for (1,1) => (1,4)
 starting transci.x -m 200000 at Wed May 18 02:22:19 EDT 2022

 -------------------- transci.x ------------------------

                          State No. 1            State No. 2

   Space symmetry:           a                      a   
   No. of CSFs:          ********               ********
   State energies:      -286.09267048          -285.85545090  a.u.

   Transition energy:     0.23721958  a.u.
   Transition energy:     6.46        eV

       Transition moment components:

                 x            y            z

electron          0.009991    -0.000493    -0.022715  e*bohr
frozen core       0.000000     0.000000     0.000000  e*bohr
total (elec)      0.009991    -0.000493    -0.022715  e*bohr


   Tr.dipole length:     0.024820    e*bohr
   Oscillator strength :  0.000097
   Einstein A coef.:     0.1761E+06  1/sec
   Einstein B coef.:     0.2500E+06  sec/g

                 x            y            z

<L> electron     0.470598     0.010103    -0.000595  e*bohr


   <L> value length:     0.470707    e*bohr
 --------------------------------------------------- 
 Not computing transition moment with identical bra and ket.
 Calculating transition moment for (1,2) => (1,3)
 starting transci.x -m 200000 at Wed May 18 02:24:41 EDT 2022

 -------------------- transci.x ------------------------

                          State No. 1            State No. 2

   Space symmetry:           a                      a   
   No. of CSFs:          ********               ********
   State energies:      -285.90929313          -285.90455716  a.u.

   Transition energy:     0.00473597  a.u.
   Transition energy:     0.13        eV

       Transition moment components:

                 x            y            z

electron          0.309555    -0.004124     0.035361  e*bohr
frozen core       0.000000     0.000000     0.000000  e*bohr
total (elec)      0.309555    -0.004124     0.035361  e*bohr


   Tr.dipole length:     0.311595    e*bohr
   Oscillator strength :  0.000307
   Einstein A coef.:     0.2209E+03  1/sec
   Einstein B coef.:     0.3940E+08  sec/g

                 x            y            z

<L> electron    -0.124943     0.050113    -0.002520  e*bohr


   <L> value length:     0.134642    e*bohr
 --------------------------------------------------- 
  Calculating transition moment for (1,2) => (1,4)
 starting transci.x -m 200000 at Wed May 18 02:26:58 EDT 2022

 -------------------- transci.x ------------------------

                          State No. 1            State No. 2

   Space symmetry:           a                      a   
   No. of CSFs:          ********               ********
   State energies:      -285.90929313          -285.85545090  a.u.

   Transition energy:     0.05384223  a.u.
   Transition energy:     1.47        eV

       Transition moment components:

                 x            y            z

electron         -0.004007    -0.002412    -0.165795  e*bohr
frozen core       0.000000     0.000000     0.000000  e*bohr
total (elec)     -0.004007    -0.002412    -0.165795  e*bohr


   Tr.dipole length:     0.165861    e*bohr
   Oscillator strength :  0.000987
   Einstein A coef.:     0.9197E+05  1/sec
   Einstein B coef.:     0.1116E+08  sec/g

                 x            y            z

<L> electron    -0.016927     0.634264    -0.010854  e*bohr


   <L> value length:     0.634583    e*bohr
 --------------------------------------------------- 
 Not computing transition moment with identical bra and ket.
 Calculating transition moment for (1,3) => (1,4)
 starting transci.x -m 200000 at Wed May 18 02:29:17 EDT 2022

 -------------------- transci.x ------------------------

                          State No. 1            State No. 2

   Space symmetry:           a                      a   
   No. of CSFs:          ********               ********
   State energies:      -285.90455716          -285.85545090  a.u.

   Transition energy:     0.04910626  a.u.
   Transition energy:     1.34        eV

       Transition moment components:

                 x            y            z

electron         -0.076140     0.017939     0.002567  e*bohr
frozen core       0.000000     0.000000     0.000000  e*bohr
total (elec)     -0.076140     0.017939     0.002567  e*bohr


   Tr.dipole length:     0.078266    e*bohr
   Oscillator strength :  0.000201
   Einstein A coef.:     0.1554E+05  1/sec
   Einstein B coef.:     0.2486E+07  sec/g

                 x            y            z

<L> electron    -0.005224    -0.017288    -0.117388  e*bohr


   <L> value length:     0.118769    e*bohr
 --------------------------------------------------- 
 Not computing transition moment with identical bra and ket.
Not computing transition moment with identical bra and ket.
 Calculating transition moment for (2,1) => (2,2)
 starting transci.x -m 200000 at Wed May 18 02:31:35 EDT 2022

 -------------------- transci.x ------------------------

                          State No. 1            State No. 2

   Space symmetry:           a                      a   
   No. of CSFs:          ********               ********
   State energies:      -285.93629351          -285.91818342  a.u.

   Transition energy:     0.01811009  a.u.
   Transition energy:     0.49        eV

       Transition moment components:

                 x            y            z

electron         -0.005915    -0.004573    -0.198627  e*bohr
frozen core       0.000000     0.000000     0.000000  e*bohr
total (elec)     -0.005915    -0.004573    -0.198627  e*bohr


   Tr.dipole length:     0.198767    e*bohr
   Oscillator strength :  0.000477
   Einstein A coef.:     0.5026E+04  1/sec
   Einstein B coef.:     0.1603E+08  sec/g

                 x            y            z

<L> electron     0.016842    -1.010902     0.007870  e*bohr


   <L> value length:     1.011073    e*bohr
 --------------------------------------------------- 
  Calculating transition moment for (2,1) => (2,3)
 starting transci.x -m 200000 at Wed May 18 02:35:47 EDT 2022

 -------------------- transci.x ------------------------

                          State No. 1            State No. 2

   Space symmetry:           a                      a   
   No. of CSFs:          ********               ********
   State energies:      -285.93629351          -285.91138676  a.u.

   Transition energy:     0.02490675  a.u.
   Transition energy:     0.68        eV

       Transition moment components:

                 x            y            z

electron          0.008631     0.056811    -0.029416  e*bohr
frozen core       0.000000     0.000000     0.000000  e*bohr
total (elec)      0.008631     0.056811    -0.029416  e*bohr


   Tr.dipole length:     0.064554    e*bohr
   Oscillator strength :  0.000069
   Einstein A coef.:     0.1379E+04  1/sec
   Einstein B coef.:     0.1691E+07  sec/g

                 x            y            z

<L> electron    -0.007736    -0.057809    -0.133861  e*bohr


   <L> value length:     0.146016    e*bohr
 --------------------------------------------------- 
  Calculating transition moment for (2,1) => (2,4)
 starting transci.x -m 200000 at Wed May 18 02:40:01 EDT 2022

 -------------------- transci.x ------------------------

                          State No. 1            State No. 2

   Space symmetry:           a                      a   
   No. of CSFs:          ********               ********
   State energies:      -285.93629351          -285.90839196  a.u.

   Transition energy:     0.02790156  a.u.
   Transition energy:     0.76        eV

       Transition moment components:

                 x            y            z

electron          0.158599    -0.004937    -0.000273  e*bohr
frozen core       0.000000     0.000000     0.000000  e*bohr
total (elec)      0.158599    -0.004937    -0.000273  e*bohr


   Tr.dipole length:     0.158676    e*bohr
   Oscillator strength :  0.000468
   Einstein A coef.:     0.1171E+05  1/sec
   Einstein B coef.:     0.1022E+08  sec/g

                 x            y            z

<L> electron    -0.000312     0.003168    -0.004286  e*bohr


   <L> value length:     0.005339    e*bohr
 --------------------------------------------------- 
 Not computing transition moment with identical bra and ket.
 Calculating transition moment for (2,2) => (2,3)
 starting transci.x -m 200000 at Wed May 18 02:44:07 EDT 2022

 -------------------- transci.x ------------------------

                          State No. 1            State No. 2

   Space symmetry:           a                      a   
   No. of CSFs:          ********               ********
   State energies:      -285.91818342          -285.91138676  a.u.

   Transition energy:     0.00679666  a.u.
   Transition energy:     0.18        eV

       Transition moment components:

                 x            y            z

electron          0.224773     0.007280    -0.053078  e*bohr
frozen core       0.000000     0.000000     0.000000  e*bohr
total (elec)      0.224773     0.007280    -0.053078  e*bohr


   Tr.dipole length:     0.231070    e*bohr
   Oscillator strength :  0.000242
   Einstein A coef.:     0.3591E+03  1/sec
   Einstein B coef.:     0.2167E+08  sec/g

                 x            y            z

<L> electron    -0.102403    -0.007888    -0.001698  e*bohr


   <L> value length:     0.102720    e*bohr
 --------------------------------------------------- 
  Calculating transition moment for (2,2) => (2,4)
 starting transci.x -m 200000 at Wed May 18 02:48:09 EDT 2022

 -------------------- transci.x ------------------------

                          State No. 1            State No. 2

   Space symmetry:           a                      a   
   No. of CSFs:          ********               ********
   State energies:      -285.91818342          -285.90839196  a.u.

   Transition energy:     0.00979146  a.u.
   Transition energy:     0.27        eV

       Transition moment components:

                 x            y            z

electron          0.010949    -0.002151     0.051292  e*bohr
frozen core       0.000000     0.000000     0.000000  e*bohr
total (elec)      0.010949    -0.002151     0.051292  e*bohr


   Tr.dipole length:     0.052492    e*bohr
   Oscillator strength :  0.000018
   Einstein A coef.:     0.5540E+02  1/sec
   Einstein B coef.:     0.1118E+07  sec/g

                 x            y            z

<L> electron    -0.006764     0.460080    -0.004062  e*bohr


   <L> value length:     0.460148    e*bohr
 --------------------------------------------------- 
 Not computing transition moment with identical bra and ket.
 Calculating transition moment for (2,3) => (2,4)
 starting transci.x -m 200000 at Wed May 18 02:52:25 EDT 2022

 -------------------- transci.x ------------------------

                          State No. 1            State No. 2

   Space symmetry:           a                      a   
   No. of CSFs:          ********               ********
   State energies:      -285.91138676          -285.90839196  a.u.

   Transition energy:     0.00299480  a.u.
   Transition energy:     0.08        eV

       Transition moment components:

                 x            y            z

electron         -0.249577     0.057423    -0.010292  e*bohr
frozen core       0.000000     0.000000     0.000000  e*bohr
total (elec)     -0.249577     0.057423    -0.010292  e*bohr


   Tr.dipole length:     0.256305    e*bohr
   Oscillator strength :  0.000131
   Einstein A coef.:     0.3779E+02  1/sec
   Einstein B coef.:     0.2666E+08  sec/g

                 x            y            z

<L> electron     0.004000     0.032028     0.064335  e*bohr


   <L> value length:     0.071978    e*bohr
 --------------------------------------------------- 
 Not computing transition moment with identical bra and ket.
 --- ci properties for state 1 of  DRT 1 ----
starting exptvl.x -m 200000  at Wed May 18 02:56:28 EDT 2022

 -------------------- exptvl.x ------------------------
  === dipole moment === 
                     X               Y               Z   
   orign x       0.00000000      0.00000000      0.00000000
   orign y       0.00000000      0.00000000      0.00000000
   orign z       0.00000000      0.00000000      0.00000000
   nuclear      -0.67744877     -0.24569838      0.16880328
   electronic    0.29853313     -0.16554888     -0.15389217
   total        -0.37891564     -0.41124726      0.01491111
   total Dipole moment =   1.42184383    Debye
 !timer: exptvl required                 cpu_time=     0.191 walltime=     0.573
 --------------------------------------------------- 
  --- ci properties for state 2 of  DRT 1 ----
starting exptvl.x -m 200000  at Wed May 18 02:56:29 EDT 2022

 -------------------- exptvl.x ------------------------
  === dipole moment === 
                     X               Y               Z   
   orign x       0.00000000      0.00000000      0.00000000
   orign y       0.00000000      0.00000000      0.00000000
   orign z       0.00000000      0.00000000      0.00000000
   nuclear      -0.67744877     -0.24569838      0.16880328
   electronic    4.22259029     -0.12968333     -0.16476649
   total         3.54514152     -0.37538171      0.00403679
   total Dipole moment =   9.06123934    Debye
 --------------------------------------------------- 
  --- ci properties for state 3 of  DRT 1 ----
starting exptvl.x -m 200000  at Wed May 18 02:56:29 EDT 2022

 -------------------- exptvl.x ------------------------
  === dipole moment === 
                     X               Y               Z   
   orign x       0.00000000      0.00000000      0.00000000
   orign y       0.00000000      0.00000000      0.00000000
   orign z       0.00000000      0.00000000      0.00000000
   nuclear      -0.67744877     -0.24569838      0.16880328
   electronic    0.00235721     -0.14153540     -0.14680002
   total        -0.67509156     -0.38723378      0.02200326
   total Dipole moment =   1.97894830    Debye
 --------------------------------------------------- 
  --- ci properties for state 4 of  DRT 1 ----
starting exptvl.x -m 200000  at Wed May 18 02:56:30 EDT 2022

 -------------------- exptvl.x ------------------------
  === dipole moment === 
                     X               Y               Z   
   orign x       0.00000000      0.00000000      0.00000000
   orign y       0.00000000      0.00000000      0.00000000
   orign z       0.00000000      0.00000000      0.00000000
   nuclear      -0.67744877     -0.24569838      0.16880328
   electronic    5.32128332     -0.24177675     -0.15574165
   total         4.64383455     -0.48747513      0.01306163
   total Dipole moment =  11.86836264    Debye
 --------------------------------------------------- 
  --- ci properties for state 1 of  DRT 2 ----
starting exptvl.x -m 200000  at Wed May 18 02:56:30 EDT 2022

 -------------------- exptvl.x ------------------------
  === dipole moment === 
                     X               Y               Z   
   orign x       0.00000000      0.00000000      0.00000000
   orign y       0.00000000      0.00000000      0.00000000
   orign z       0.00000000      0.00000000      0.00000000
   nuclear      -0.67744877     -0.24569838      0.16880328
   electronic    0.21098336     -0.14566600     -0.15763112
   total        -0.46646541     -0.39136438      0.01117216
   total Dipole moment =   1.54792489    Debye
 --------------------------------------------------- 
  --- ci properties for state 2 of  DRT 2 ----
starting exptvl.x -m 200000  at Wed May 18 02:56:30 EDT 2022

 -------------------- exptvl.x ------------------------
  === dipole moment === 
                     X               Y               Z   
   orign x       0.00000000      0.00000000      0.00000000
   orign y       0.00000000      0.00000000      0.00000000
   orign z       0.00000000      0.00000000      0.00000000
   nuclear      -0.67744877     -0.24569838      0.16880328
   electronic   -0.23001856     -0.13950369     -0.15382844
   total        -0.90746733     -0.38520207      0.01497484
   total Dipole moment =   2.50604313    Debye
 --------------------------------------------------- 
  --- ci properties for state 3 of  DRT 2 ----
starting exptvl.x -m 200000  at Wed May 18 02:56:31 EDT 2022

 -------------------- exptvl.x ------------------------
  === dipole moment === 
                     X               Y               Z   
   orign x       0.00000000      0.00000000      0.00000000
   orign y       0.00000000      0.00000000      0.00000000
   orign z       0.00000000      0.00000000      0.00000000
   nuclear      -0.67744877     -0.24569838      0.16880328
   electronic    4.16700559     -0.10440034     -0.16838348
   total         3.48955682     -0.35009872      0.00041980
   total Dipole moment =   8.91410474    Debye
 --------------------------------------------------- 
  --- ci properties for state 4 of  DRT 2 ----
starting exptvl.x -m 200000  at Wed May 18 02:56:31 EDT 2022

 -------------------- exptvl.x ------------------------
  === dipole moment === 
                     X               Y               Z   
   orign x       0.00000000      0.00000000      0.00000000
   orign y       0.00000000      0.00000000      0.00000000
   orign z       0.00000000      0.00000000      0.00000000
   nuclear      -0.67744877     -0.24569838      0.16880328
   electronic    0.07126695     -0.16075113     -0.15286618
   total        -0.60618182     -0.40644951      0.01593710
   total Dipole moment =   1.85549695    Debye
 --------------------------------------------------- 
 starting mo_convert.x at Wed May 18 02:56:31 EDT 2022

 -------------------- mo_convert.x ------------------------
 --------------------------------------------------- 
 starting pymolcas molcas.input.molden > molcas.output.molden at Wed May 18 02:56:31 EDT 2022

Generating link ln -s ./molcas.OrdInt ORDINT 
 -------------------- molden ------------------------
 --------------------------------------------------- 
 starting mo_convert.x at Wed May 18 02:57:00 EDT 2022

 -------------------- mo_convert.x ------------------------
 --------------------------------------------------- 
 starting pymolcas molcas.input.molden > molcas.output.molden at Wed May 18 02:57:00 EDT 2022

Generating link ln -s ./molcas.OrdInt ORDINT 
 -------------------- molden ------------------------
 --------------------------------------------------- 
 starting mo_convert.x at Wed May 18 02:57:25 EDT 2022

 -------------------- mo_convert.x ------------------------
 --------------------------------------------------- 
 starting pymolcas molcas.input.molden > molcas.output.molden at Wed May 18 02:57:25 EDT 2022

Generating link ln -s ./molcas.OrdInt ORDINT 
 -------------------- molden ------------------------
 --------------------------------------------------- 
 starting mo_convert.x at Wed May 18 02:57:46 EDT 2022

 -------------------- mo_convert.x ------------------------
 --------------------------------------------------- 
 starting pymolcas molcas.input.molden > molcas.output.molden at Wed May 18 02:57:47 EDT 2022

Generating link ln -s ./molcas.OrdInt ORDINT 
 -------------------- molden ------------------------
 --------------------------------------------------- 
 starting mo_convert.x at Wed May 18 02:58:08 EDT 2022

 -------------------- mo_convert.x ------------------------
 --------------------------------------------------- 
 starting pymolcas molcas.input.molden > molcas.output.molden at Wed May 18 02:58:09 EDT 2022

Generating link ln -s ./molcas.OrdInt ORDINT 
 -------------------- molden ------------------------
 --------------------------------------------------- 
 starting mo_convert.x at Wed May 18 02:58:30 EDT 2022

 -------------------- mo_convert.x ------------------------
 --------------------------------------------------- 
 starting pymolcas molcas.input.molden > molcas.output.molden at Wed May 18 02:58:30 EDT 2022

Generating link ln -s ./molcas.OrdInt ORDINT 
 -------------------- molden ------------------------
 --------------------------------------------------- 
 starting mo_convert.x at Wed May 18 02:58:52 EDT 2022

 -------------------- mo_convert.x ------------------------
 --------------------------------------------------- 
 starting pymolcas molcas.input.molden > molcas.output.molden at Wed May 18 02:58:52 EDT 2022

Generating link ln -s ./molcas.OrdInt ORDINT 
 -------------------- molden ------------------------
 --------------------------------------------------- 
 starting mo_convert.x at Wed May 18 02:59:14 EDT 2022

 -------------------- mo_convert.x ------------------------
 --------------------------------------------------- 
 starting pymolcas molcas.input.molden > molcas.output.molden at Wed May 18 02:59:15 EDT 2022

Generating link ln -s ./molcas.OrdInt ORDINT 
 -------------------- molden ------------------------
 --------------------------------------------------- 
 starting mo_convert.x at Wed May 18 02:59:36 EDT 2022

 -------------------- mo_convert.x ------------------------
 --------------------------------------------------- 
 starting pymolcas molcas.input.molden > molcas.output.molden at Wed May 18 02:59:37 EDT 2022

Generating link ln -s ./molcas.OrdInt ORDINT 
 -------------------- molden ------------------------
 --------------------------------------------------- 
 starting mo_convert.x at Wed May 18 02:59:58 EDT 2022

 -------------------- mo_convert.x ------------------------
 --------------------------------------------------- 
 starting pymolcas molcas.input.molden > molcas.output.molden at Wed May 18 02:59:58 EDT 2022

Generating link ln -s ./molcas.OrdInt ORDINT 
 -------------------- molden ------------------------
 --------------------------------------------------- 
 starting mo_convert.x at Wed May 18 03:00:20 EDT 2022

 -------------------- mo_convert.x ------------------------
 --------------------------------------------------- 
 starting pymolcas molcas.input.molden > molcas.output.molden at Wed May 18 03:00:21 EDT 2022

Generating link ln -s ./molcas.OrdInt ORDINT 
 -------------------- molden ------------------------
 --------------------------------------------------- 
 starting mo_convert.x at Wed May 18 03:00:42 EDT 2022

 -------------------- mo_convert.x ------------------------
 --------------------------------------------------- 
 starting pymolcas molcas.input.molden > molcas.output.molden at Wed May 18 03:00:43 EDT 2022

Generating link ln -s ./molcas.OrdInt ORDINT 
 -------------------- molden ------------------------
 --------------------------------------------------- 
 starting mo_convert.x at Wed May 18 03:01:04 EDT 2022

 -------------------- mo_convert.x ------------------------
 --------------------------------------------------- 
 starting pymolcas molcas.input.molden > molcas.output.molden at Wed May 18 03:01:05 EDT 2022

Generating link ln -s ./molcas.OrdInt ORDINT 
 -------------------- molden ------------------------
 --------------------------------------------------- 
 starting mo_convert.x at Wed May 18 03:01:26 EDT 2022

 -------------------- mo_convert.x ------------------------
 --------------------------------------------------- 
 starting pymolcas molcas.input.molden > molcas.output.molden at Wed May 18 03:01:27 EDT 2022

Generating link ln -s ./molcas.OrdInt ORDINT 
 -------------------- molden ------------------------
 --------------------------------------------------- 
 

 +++++++++++ STARTING GRADIENTS AND NAD. COUPLINGS CALCULATION +++++++++++ 

 Using new transition density code ... 
INFO: this is a frozen core gradient calculation
starting cidrt.x  -m 200000 < cidrtin.cigrd > cidrtls.cigrd at Wed May 18 03:01:49 EDT 2022

 -------------------- cidrt.x ------------------------
 total number of orbitals            :   246
 number of frozen core orbitals      :    18
 number of frozen virtual orbitals   :     0
 number of internal orbitals         :    14
 number of external orbitals         :   214
 spatial symmetry:   a  
 
 total number of configurations  282461366
 number of reference configurations  1666
 --------------------------------------------------- 
 starting tran.x -m 200000  at Wed May 18 03:01:56 EDT 2022

 -------------------- tran.x ------------------------
 --------------------------------------------------- 
 ---- Computing 8 gradient(s)  ----

 --- Computing gradient for DRT:1, State; 1

starting cigrd.x -m 200000 at Wed May 18 03:10:22 EDT 2022

 -------------------- cigrd.x ------------------------
 Total energy (ciudg) :  -286.092670484298 
  Effective energy     :  -286.092670500944 
  Delta E              :     0.000000016646 
  --------------------------------------------------- 
 starting tran.x -m 200000  at Wed May 18 03:22:19 EDT 2022

 -------------------- tran.x ------------------------
 --------------------------------------------------- 
 starting pymolcas molcas.input.alaska > molcas.output.alaska  at Wed May 18 03:29:40 EDT 2022

Generating link ln -s ./molcas.OrdInt ORDINT 
 -------------------- alaska ------------------------
 --------------------------------------------------- 
 cartesian gradient by alaska (MOLCAS)

 === Gradient of DRT 1, state 1 === 
  -0.615641D-01  -0.592912D-01  -0.120188D+00
   0.378836D-05  -0.426976D-05   0.185749D-05
   0.161893D-04   0.130075D-05   0.608002D-05
  -0.163942D-04   0.483835D-06  -0.193718D-04
  -0.523321D-04   0.366489D-04  -0.822759D-05
  -0.150506D-04  -0.445269D-04  -0.515589D-05
   0.322820D-04   0.407933D-05  -0.196332D-04
   0.615759D-01   0.592895D-01   0.120200D+00
  -0.172041D-04   0.162192D-05  -0.661823D-05
   0.277172D-05  -0.867833D-05   0.538044D-05
   0.287511D-06   0.132739D-04  -0.235635D-05
   0.137527D-04  -0.122680D-04   0.260549D-04
   0.208051D-04   0.106886D-04   0.439792D-05
  -0.690141D-06   0.330545D-05   0.519812D-05
===================================
 --- Computing gradient for DRT:1, State; 2

starting cigrd.x -m 200000 at Wed May 18 03:31:04 EDT 2022

 -------------------- cigrd.x ------------------------
 Total energy (ciudg) :  -285.909293133461 
  Effective energy     :  -285.909293149677 
  Delta E              :     0.000000016216 
  --------------------------------------------------- 
 starting tran.x -m 200000  at Wed May 18 03:41:22 EDT 2022

 -------------------- tran.x ------------------------
 --------------------------------------------------- 
 starting pymolcas molcas.input.alaska > molcas.output.alaska  at Wed May 18 03:48:41 EDT 2022

Generating link ln -s ./molcas.OrdInt ORDINT 
 -------------------- alaska ------------------------
 --------------------------------------------------- 
 cartesian gradient by alaska (MOLCAS)

 === Gradient of DRT 1, state 2 === 
  -0.136296D+00  -0.257392D-01  -0.121925D+00
   0.608467D-01  -0.110707D-01   0.208544D-02
  -0.250297D-01  -0.272931D-02   0.286687D-01
  -0.245367D-01  -0.124299D-02  -0.291644D-01
   0.200508D-01   0.987474D-03   0.141301D-01
   0.205944D-01  -0.391104D-04  -0.142270D-01
  -0.212281D-02   0.298612D-03   0.260086D-03
   0.734314D-01   0.481286D-01   0.135678D+00
   0.114329D-01  -0.831516D-02  -0.153837D-01
  -0.949586D-03   0.211811D-03  -0.303081D-02
  -0.995753D-03  -0.556356D-03   0.297863D-02
   0.149653D-02   0.234442D-04  -0.117024D-02
   0.155387D-02   0.199874D-03   0.109971D-02
   0.524212D-03  -0.157046D-03   0.102697D-05
===================================
 --- Computing gradient for DRT:1, State; 3

starting cigrd.x -m 200000 at Wed May 18 03:50:02 EDT 2022

 -------------------- cigrd.x ------------------------
 Total energy (ciudg) :  -285.904557161914 
  Effective energy     :  -285.904557179661 
  Delta E              :     0.000000017747 
  --------------------------------------------------- 
 starting tran.x -m 200000  at Wed May 18 04:01:20 EDT 2022

 -------------------- tran.x ------------------------
 --------------------------------------------------- 
 starting pymolcas molcas.input.alaska > molcas.output.alaska  at Wed May 18 04:08:44 EDT 2022

Generating link ln -s ./molcas.OrdInt ORDINT 
 -------------------- alaska ------------------------
 --------------------------------------------------- 
 cartesian gradient by alaska (MOLCAS)

 === Gradient of DRT 1, state 3 === 
  -0.790599D-01  -0.514000D-01  -0.121499D+00
   0.283103D-01  -0.630980D-03   0.411733D-03
   0.278029D-01   0.402330D-03   0.307249D-01
   0.272271D-01  -0.196075D-02  -0.312662D-01
  -0.258139D-01  -0.785962D-03   0.285402D-01
  -0.251080D-01   0.825705D-03  -0.286469D-01
  -0.168974D-01   0.400567D-03   0.275090D-03
   0.626040D-01   0.563923D-01   0.123427D+00
   0.379951D-03  -0.256830D-02  -0.196626D-02
  -0.291725D-03  -0.522306D-03  -0.103756D-02
  -0.306324D-03  -0.888842D-04   0.100525D-02
   0.385338D-03   0.854114D-04  -0.122664D-02
   0.382436D-03  -0.162118D-04   0.125209D-02
   0.385242D-03  -0.132966D-03   0.598242D-05
===================================
 --- Computing gradient for DRT:1, State; 4

starting cigrd.x -m 200000 at Wed May 18 04:10:03 EDT 2022

 -------------------- cigrd.x ------------------------
 Total energy (ciudg) :  -285.855450904765 
  Effective energy     :  -285.855450919161 
  Delta E              :     0.000000014396 
  --------------------------------------------------- 
 starting tran.x -m 200000  at Wed May 18 04:21:53 EDT 2022

 -------------------- tran.x ------------------------
 --------------------------------------------------- 
 starting pymolcas molcas.input.alaska > molcas.output.alaska  at Wed May 18 04:29:17 EDT 2022

Generating link ln -s ./molcas.OrdInt ORDINT 
 -------------------- alaska ------------------------
 --------------------------------------------------- 
 cartesian gradient by alaska (MOLCAS)

 === Gradient of DRT 1, state 4 === 
  -0.101417D+00  -0.486050D-01  -0.121899D+00
   0.459507D-01  -0.262859D-02   0.144443D-02
   0.389271D-01  -0.714258D-03  -0.231932D-02
   0.394240D-01  -0.686884D-03   0.203965D-02
  -0.444532D-01  -0.191282D-03  -0.110973D-01
  -0.444229D-01  -0.459996D-03   0.113544D-01
  -0.739810D-02   0.708002D-04  -0.165473D-03
   0.667688D-01   0.558341D-01   0.125122D+00
   0.492664D-02  -0.282878D-02  -0.435030D-02
  -0.757338D-03   0.147076D-03  -0.317274D-02
  -0.800180D-03   0.631904D-04   0.309424D-02
   0.675361D-03  -0.377504D-04  -0.124223D-02
   0.701911D-03   0.274175D-04   0.118922D-02
   0.187454D-02   0.993197D-05   0.250358D-05
===================================
 --- Computing gradient for DRT:2, State; 1

starting cigrd.x -m 200000 at Wed May 18 04:30:41 EDT 2022

 -------------------- cigrd.x ------------------------
 Total energy (ciudg) :  -285.936293512504 
  Effective energy     :  -285.936293528755 
  Delta E              :     0.000000016251 
  --------------------------------------------------- 
 starting tran.x -m 200000  at Wed May 18 04:42:22 EDT 2022

 -------------------- tran.x ------------------------
 --------------------------------------------------- 
 starting pymolcas molcas.input.alaska > molcas.output.alaska  at Wed May 18 04:49:49 EDT 2022

Generating link ln -s ./molcas.OrdInt ORDINT 
 -------------------- alaska ------------------------
 --------------------------------------------------- 
 cartesian gradient by alaska (MOLCAS)

 === Gradient of DRT 2, state 1 === 
  -0.633733D-01  -0.599061D-01  -0.120497D+00
   0.375937D-01   0.386328D-02   0.546253D-04
  -0.107413D-01  -0.159573D-02   0.344878D-01
  -0.108763D-01  -0.191451D-02  -0.344523D-01
   0.103831D-01  -0.157253D-03   0.381435D-01
   0.107051D-01   0.364305D-04  -0.385024D-01
  -0.373851D-01   0.484115D-03   0.328645D-03
   0.624231D-01   0.590662D-01   0.120762D+00
   0.763381D-03   0.237569D-03  -0.368890D-03
  -0.943585D-03  -0.213517D-04  -0.639938D-04
  -0.941532D-03  -0.139849D-03   0.700176D-04
   0.713481D-03   0.869116D-04  -0.558970D-03
   0.731203D-03   0.149608D-03   0.588090D-03
   0.948063D-03  -0.189261D-03   0.903720D-05
===================================
 --- Computing gradient for DRT:2, State; 2

starting cigrd.x -m 200000 at Wed May 18 04:51:12 EDT 2022

 -------------------- cigrd.x ------------------------
 Total energy (ciudg) :  -285.918183417490 
  Effective energy     :  -285.918183435313 
  Delta E              :     0.000000017823 
  --------------------------------------------------- 
 starting tran.x -m 200000  at Wed May 18 05:04:50 EDT 2022

 -------------------- tran.x ------------------------
 --------------------------------------------------- 
 starting pymolcas molcas.input.alaska > molcas.output.alaska  at Wed May 18 05:12:03 EDT 2022

Generating link ln -s ./molcas.OrdInt ORDINT 
 -------------------- alaska ------------------------
 --------------------------------------------------- 
 cartesian gradient by alaska (MOLCAS)

 === Gradient of DRT 2, state 2 === 
  -0.952246D-01  -0.443288D-01  -0.121662D+00
   0.325650D-01  -0.461355D-02  -0.271040D-04
   0.303264D-01  -0.568472D-03   0.297718D-01
   0.306459D-01   0.473632D-03  -0.299178D-01
  -0.334794D-01   0.396102D-03   0.248582D-01
  -0.330069D-01  -0.860748D-04  -0.252268D-01
   0.416927D-02   0.294989D-03   0.573898D-03
   0.629245D-01   0.538273D-01   0.125386D+00
   0.314552D-03  -0.445445D-02  -0.379860D-02
   0.197436D-03  -0.324266D-05  -0.158089D-02
   0.190708D-03  -0.680450D-03   0.159716D-02
   0.402616D-03  -0.126595D-03  -0.165533D-02
   0.403580D-03   0.949391D-05   0.167371D-02
  -0.429025D-03  -0.139960D-03   0.796246D-05
===================================
 --- Computing gradient for DRT:2, State; 3

starting cigrd.x -m 200000 at Wed May 18 05:13:25 EDT 2022

 -------------------- cigrd.x ------------------------
 Total energy (ciudg) :  -285.911386759627 
  Effective energy     :  -285.911386775984 
  Delta E              :     0.000000016357 
  --------------------------------------------------- 
 starting tran.x -m 200000  at Wed May 18 05:24:24 EDT 2022

 -------------------- tran.x ------------------------
 --------------------------------------------------- 
 starting pymolcas molcas.input.alaska > molcas.output.alaska  at Wed May 18 05:31:52 EDT 2022

Generating link ln -s ./molcas.OrdInt ORDINT 
 -------------------- alaska ------------------------
 --------------------------------------------------- 
 cartesian gradient by alaska (MOLCAS)

 === Gradient of DRT 2, state 3 === 
  -0.137024D+00  -0.257109D-01  -0.121325D+00
   0.590861D-01  -0.136913D-01   0.223366D-02
  -0.237690D-01  -0.240662D-03   0.280645D-01
  -0.234994D-01  -0.232694D-02  -0.285517D-01
   0.188215D-01   0.561810D-03   0.135220D-01
   0.191985D-01   0.167431D-02  -0.133676D-01
  -0.136162D-02  -0.388835D-03  -0.189328D-04
   0.741128D-01   0.486570D-01   0.137166D+00
   0.128717D-01  -0.770486D-02  -0.175874D-01
  -0.939890D-03  -0.599239D-03  -0.307755D-02
  -0.982592D-03  -0.230148D-03   0.300668D-02
   0.146640D-02   0.161428D-03  -0.114151D-02
   0.152110D-02   0.979068D-04   0.107623D-02
   0.498227D-03  -0.259562D-03   0.216564D-06
===================================
 --- Computing gradient for DRT:2, State; 4

starting cigrd.x -m 200000 at Wed May 18 05:33:14 EDT 2022

 -------------------- cigrd.x ------------------------
 Total energy (ciudg) :  -285.908391955848 
  Effective energy     :  -285.908391971866 
[...]
  -2.902237E-02   6.505035E-02  -5.961626E+00
  -7.859308E-01  -1.047506E-01   2.699010E+00
   8.657535E-01   5.863888E-02   2.732645E+00
  -1.675919E+00   1.807056E-02  -2.591498E+00
   1.600924E+00  -4.232673E-02  -2.582766E+00
   7.076652E-03   6.214915E-03   5.012323E+00
   2.186052E-02   8.796393E-02   2.473438E-03
  -3.680872E-02  -1.263356E-01   5.447740E-02
  -3.535110E-02  -2.135442E-03  -1.072977E-02
   3.580384E-02   1.722168E-02  -1.097736E-02
  -3.130343E-02  -4.695795E-03   1.688157E-02
   3.044701E-02   8.260647E-03   1.796070E-02
   2.383021E-05   2.090374E-03   9.753460E-02
===================================

 Norm of the nonadiabatic coupling vector: 
 |h(drt2.state1,drt2.state2)|= 9.79211645361517 

 Cross-check of the non-adiabatic coupling term:
  DeltaE= -0.0181100949999973

  <L>*dE form CIGRD   :   -0.0000724404    -0.0005800301    -0.0011651130
  <L>*dE form NADCOUPL:   -0.0003054283     0.0183087410    -0.0001424054
 -------------------------------------------------------------------------
  Difference          :    0.0002329879    -0.0188887711    -0.0010227076

 NOTE: This test is meaningless at a point of conical intersection!


 -------- NAD. COUPLING for DRT:2 STATE:1 AND DRT:2 STATE:3 --------
opening file =ciudgls.drt2.sp
opening file =ciudgls.drt2.sp
extracted: energy1= -285.9362935123   energy2=-285.9113867594   deltae=-0.0249067528999944
starting cigrd.x -m 200000 at Wed May 18 08:13:21 EDT 2022

 -------------------- cigrd.x ------------------------
 Total energy (ciudg) :     0.000000001320 
  Effective energy     :     0.000000007713 
  Delta E              :    -0.000000006393 
  --------------------------------------------------- 
 starting tran.x -m 200000  at Wed May 18 08:23:48 EDT 2022

 -------------------- tran.x ------------------------
 --------------------------------------------------- 
  adding keyword NONUC to alaska input
starting pymolcas molcas.input.alaska > molcas.output.alaska  at Wed May 18 08:30:42 EDT 2022

Generating link ln -s ./molcas.OrdInt ORDINT 
 -------------------- alaska ------------------------
 --------------------------------------------------- 
 cartesian gradient by alaska (MOLCAS)

 Calculating the Dx(r,s) term of D[CSF] nonadiabatic coupling term.
dxcalc: INPUT LINE SEPARATOR 
 
starting tran.x -m 200000  at Wed May 18 08:31:50 EDT 2022

 -------------------- tran.x ------------------------
 --------------------------------------------------- 
 starting tdmrunfile.x > tdmrunfilels at Wed May 18 08:31:50 EDT 2022

 -------------------- tdmrunfile.x ------------------------
 --------------------------------------------------- 
 starting pymolcas molcas.input.alaska > molcas.output.alaska  at Wed May 18 08:31:50 EDT 2022

Generating link ln -s ./molcas.OrdInt ORDINT 
 -------------------- alaska ------------------------
 --------------------------------------------------- 
 
 === Non-adiabatic coupling for DRT 2 STATE 1 and DRT 2 STATE 3 === 
  -2.701674E-01   1.222474E-01   3.087630E-02
   1.113217E-01  -8.686362E-01  -2.240566E-01
  -2.133383E-01   2.763197E-01   1.675719E-01
  -1.310164E-01   2.371432E-01   4.954556E-02
   1.056408E-01   2.109213E-01  -6.587445E-02
   2.264003E-01   2.044526E-01  -1.362484E-01
  -3.790717E-02  -2.374332E-01   1.990127E-01
   9.091396E-02   6.783634E-02   1.830599E-01
   1.204177E-01   1.306113E-01  -2.124038E-01
  -2.278735E-03  -3.549413E-02   1.151166E-03
   8.890689E-04  -3.326349E-02   6.172763E-04
  -6.864529E-04  -1.441694E-02   3.540389E-03
   2.037543E-03  -8.770847E-03  -2.383785E-03
  -4.360602E-04  -2.553469E-02   3.848024E-03
===================================

 Norm of the nonadiabatic coupling vector: 
 |h(drt2.state1,drt2.state3)|= 1.23581634589288 

 Cross-check of the non-adiabatic coupling term:
  DeltaE= -0.0249067528999944

  <L>*dE form CIGRD   :   -0.0000996270    -0.0007977135    -0.0016023759
  <L>*dE form NADCOUPL:    0.0001926843     0.0014400962     0.0033301614
 -------------------------------------------------------------------------
  Difference          :   -0.0002923113    -0.0022378097    -0.0049325374

 NOTE: This test is meaningless at a point of conical intersection!


 -------- NAD. COUPLING for DRT:2 STATE:1 AND DRT:2 STATE:4 --------
opening file =ciudgls.drt2.sp
opening file =ciudgls.drt2.sp
extracted: energy1= -285.9362935123   energy2=-285.9083919556   deltae=-0.0279015566999874
starting cigrd.x -m 200000 at Wed May 18 08:33:00 EDT 2022

 -------------------- cigrd.x ------------------------
 Total energy (ciudg) :    -0.000000000264 
  Effective energy     :    -0.000000006865 
  Delta E              :     0.000000006601 
  --------------------------------------------------- 
 starting tran.x -m 200000  at Wed May 18 08:50:47 EDT 2022

 -------------------- tran.x ------------------------
 --------------------------------------------------- 
  adding keyword NONUC to alaska input
starting pymolcas molcas.input.alaska > molcas.output.alaska  at Wed May 18 08:57:52 EDT 2022

Generating link ln -s ./molcas.OrdInt ORDINT 
 -------------------- alaska ------------------------
 --------------------------------------------------- 
 cartesian gradient by alaska (MOLCAS)

 Calculating the Dx(r,s) term of D[CSF] nonadiabatic coupling term.
dxcalc: INPUT LINE SEPARATOR 
 
starting tran.x -m 200000  at Wed May 18 08:59:05 EDT 2022

 -------------------- tran.x ------------------------
 --------------------------------------------------- 
 starting tdmrunfile.x > tdmrunfilels at Wed May 18 08:59:05 EDT 2022

 -------------------- tdmrunfile.x ------------------------
 --------------------------------------------------- 
 starting pymolcas molcas.input.alaska > molcas.output.alaska  at Wed May 18 08:59:05 EDT 2022

Generating link ln -s ./molcas.OrdInt ORDINT 
 -------------------- alaska ------------------------
 --------------------------------------------------- 
 
 === Non-adiabatic coupling for DRT 2 STATE 1 and DRT 2 STATE 4 === 
   9.738193E-02  -3.792258E-02  -2.547846E-03
  -9.999541E-01  -1.285319E-01   1.841429E-02
   2.863398E+00   7.126174E-02  -9.611049E-01
   2.856049E+00   7.535640E-02   9.400913E-01
  -2.895844E+00   1.086827E-02  -9.664717E-01
  -2.908278E+00   8.154143E-03   9.905615E-01
   1.082848E+00  -2.682971E-02  -2.246052E-02
  -3.530665E-02   2.883136E-02  -3.308105E-02
  -3.736456E-02   1.435894E-02   3.685128E-02
   3.183637E-02  -4.844811E-03  -3.757660E-02
   3.149904E-02  -3.840700E-03   3.771990E-02
  -3.288998E-02  -4.353092E-03  -2.935789E-02
  -3.319955E-02  -5.116993E-03   2.924752E-02
  -1.720004E-02   3.485459E-03  -3.375836E-04
===================================

 Norm of the nonadiabatic coupling vector: 
 |h(drt2.state1,drt2.state4)|= 6.25703772633441 

 Cross-check of the non-adiabatic coupling term:
  DeltaE= -0.0279015566999874

  <L>*dE form CIGRD   :   -0.0001116062    -0.0008936311    -0.0017950467
  <L>*dE form NADCOUPL:    0.0000085588    -0.0000885437     0.0001228310
 -------------------------------------------------------------------------
  Difference          :   -0.0001201650    -0.0008050874    -0.0019178777

 NOTE: This test is meaningless at a point of conical intersection!


 -------- NAD. COUPLING for DRT:2 STATE:2 AND DRT:2 STATE:3 --------
opening file =ciudgls.drt2.sp
opening file =ciudgls.drt2.sp
extracted: energy1= -285.9181834173   energy2=-285.9113867594   deltae=-0.00679665789999717
starting cigrd.x -m 200000 at Wed May 18 09:00:19 EDT 2022

 -------------------- cigrd.x ------------------------
 Total energy (ciudg) :     0.000000000593 
  Effective energy     :    -0.000000003527 
  Delta E              :     0.000000004120 
  --------------------------------------------------- 
 starting tran.x -m 200000  at Wed May 18 09:10:53 EDT 2022

 -------------------- tran.x ------------------------
 --------------------------------------------------- 
  adding keyword NONUC to alaska input
starting pymolcas molcas.input.alaska > molcas.output.alaska  at Wed May 18 09:17:30 EDT 2022

Generating link ln -s ./molcas.OrdInt ORDINT 
 -------------------- alaska ------------------------
 --------------------------------------------------- 
 cartesian gradient by alaska (MOLCAS)

 Calculating the Dx(r,s) term of D[CSF] nonadiabatic coupling term.
dxcalc: INPUT LINE SEPARATOR 
 
starting tran.x -m 200000  at Wed May 18 09:18:35 EDT 2022

 -------------------- tran.x ------------------------
 --------------------------------------------------- 
 starting tdmrunfile.x > tdmrunfilels at Wed May 18 09:18:35 EDT 2022

 -------------------- tdmrunfile.x ------------------------
 --------------------------------------------------- 
 starting pymolcas molcas.input.alaska > molcas.output.alaska  at Wed May 18 09:18:35 EDT 2022

Generating link ln -s ./molcas.OrdInt ORDINT 
 -------------------- alaska ------------------------
 --------------------------------------------------- 
 
 === Non-adiabatic coupling for DRT 2 STATE 2 and DRT 2 STATE 3 === 
  -4.222831E-01   7.359073E-03   4.021245E-01
   2.424970E-01  -7.658435E-02  -2.301916E-01
  -5.798665E-01  -9.873448E-01  -2.474198E-03
  -2.509672E-01   1.074836E+00   2.518770E-02
   2.838347E-01   7.133240E-01  -1.700841E-01
   5.363095E-01  -7.311558E-01   2.807294E-02
  -3.061872E-02   1.244193E-02   3.019544E-01
   1.017074E-01  -2.263691E-01  -3.843140E-02
   1.159880E-01   2.512779E-01  -3.610051E-01
  -7.992472E-03   3.001104E-01   1.029182E-02
  -9.371158E-03  -3.018991E-01   3.939484E-02
   9.403897E-03  -1.019723E-01   4.581869E-04
   6.103083E-03   6.776254E-02  -1.007418E-02
   6.361868E-03  -1.358243E-03   2.663835E-03
===================================

 Norm of the nonadiabatic coupling vector: 
 |h(drt2.state2,drt2.state3)|= 2.23374049298489 

 Cross-check of the non-adiabatic coupling term:
  DeltaE= -0.00679665789999717

  <L>*dE form CIGRD   :   -0.0000271866    -0.0002176834    -0.0004372630
  <L>*dE form NADCOUPL:    0.0006976597     0.0000535472     0.0000110479
 -------------------------------------------------------------------------
  Difference          :   -0.0007248463    -0.0002712306    -0.0004483108

 NOTE: This test is meaningless at a point of conical intersection!


 -------- NAD. COUPLING for DRT:2 STATE:2 AND DRT:2 STATE:4 --------
opening file =ciudgls.drt2.sp
opening file =ciudgls.drt2.sp
extracted: energy1= -285.9181834173   energy2=-285.9083919556   deltae=-0.00979146169999012
starting cigrd.x -m 200000 at Wed May 18 09:19:41 EDT 2022

 -------------------- cigrd.x ------------------------
 Total energy (ciudg) :    -0.000000002927 
  Effective energy     :    -0.000000009035 
  Delta E              :     0.000000006108 
  --------------------------------------------------- 
 starting tran.x -m 200000  at Wed May 18 09:32:23 EDT 2022

 -------------------- tran.x ------------------------
 --------------------------------------------------- 
  adding keyword NONUC to alaska input
starting pymolcas molcas.input.alaska > molcas.output.alaska  at Wed May 18 09:39:16 EDT 2022

Generating link ln -s ./molcas.OrdInt ORDINT 
 -------------------- alaska ------------------------
 --------------------------------------------------- 
 cartesian gradient by alaska (MOLCAS)

 Calculating the Dx(r,s) term of D[CSF] nonadiabatic coupling term.
dxcalc: INPUT LINE SEPARATOR 
 
starting tran.x -m 200000  at Wed May 18 09:40:25 EDT 2022

 -------------------- tran.x ------------------------
 --------------------------------------------------- 
 starting tdmrunfile.x > tdmrunfilels at Wed May 18 09:40:25 EDT 2022

 -------------------- tdmrunfile.x ------------------------
 --------------------------------------------------- 
 starting pymolcas molcas.input.alaska > molcas.output.alaska  at Wed May 18 09:40:26 EDT 2022

Generating link ln -s ./molcas.OrdInt ORDINT 
 -------------------- alaska ------------------------
 --------------------------------------------------- 
 
 === Non-adiabatic coupling for DRT 2 STATE 2 and DRT 2 STATE 4 === 
  -9.107895E-03   5.675610E-03  -3.078618E-01
   2.924383E-03   5.409607E-02   2.571993E+00
   4.698506E-01  -4.702080E-02  -5.290023E-01
  -5.369129E-01   9.624151E-03  -5.471824E-01
   1.144507E+00   1.888313E-02   1.243970E-01
  -1.071834E+00  -5.072142E-02   9.406890E-02
   3.776014E-03   1.814564E-02  -1.445719E+00
  -3.875836E-02  -2.249929E-02   6.020999E-03
   3.545819E-02   2.400277E-03   2.284615E-02
  -2.711761E-02   1.510686E-02  -3.774749E-02
   2.630590E-02  -7.433404E-03  -3.601703E-02
  -4.177855E-02  -1.815469E-03   3.474012E-02
   4.331760E-02   3.840511E-03   3.558646E-02
  -4.024360E-04   2.610210E-03   1.468385E-02
===================================

 Norm of the nonadiabatic coupling vector: 
 |h(drt2.state2,drt2.state4)|= 3.52059479209263 

 Cross-check of the non-adiabatic coupling term:
  DeltaE= -0.00979146169999012

  <L>*dE form CIGRD   :   -0.0000391658    -0.0003136009    -0.0006299337
  <L>*dE form NADCOUPL:    0.0000653548    -0.0045058897     0.0000400181
 -------------------------------------------------------------------------
  Difference          :   -0.0001045207     0.0041922888    -0.0006699518

 NOTE: This test is meaningless at a point of conical intersection!


 -------- NAD. COUPLING for DRT:2 STATE:3 AND DRT:2 STATE:4 --------
opening file =ciudgls.drt2.sp
opening file =ciudgls.drt2.sp
extracted: energy1= -285.9113867594   energy2=-285.9083919556   deltae=-0.00299480379999295
starting cigrd.x -m 200000 at Wed May 18 09:41:37 EDT 2022

 -------------------- cigrd.x ------------------------
 Total energy (ciudg) :     0.000000002001 
  Effective energy     :     0.000000001940 
  Delta E              :     0.000000000061 
  --------------------------------------------------- 
 starting tran.x -m 200000  at Wed May 18 09:51:52 EDT 2022

 -------------------- tran.x ------------------------
 --------------------------------------------------- 
  adding keyword NONUC to alaska input
starting pymolcas molcas.input.alaska > molcas.output.alaska  at Wed May 18 09:58:34 EDT 2022

Generating link ln -s ./molcas.OrdInt ORDINT 
 -------------------- alaska ------------------------
 --------------------------------------------------- 
 cartesian gradient by alaska (MOLCAS)

 Calculating the Dx(r,s) term of D[CSF] nonadiabatic coupling term.
dxcalc: INPUT LINE SEPARATOR 
 
starting tran.x -m 200000  at Wed May 18 09:59:40 EDT 2022

 -------------------- tran.x ------------------------
 --------------------------------------------------- 
 starting tdmrunfile.x > tdmrunfilels at Wed May 18 09:59:40 EDT 2022

 -------------------- tdmrunfile.x ------------------------
 --------------------------------------------------- 
 starting pymolcas molcas.input.alaska > molcas.output.alaska  at Wed May 18 09:59:40 EDT 2022

Generating link ln -s ./molcas.OrdInt ORDINT 
 -------------------- alaska ------------------------
 --------------------------------------------------- 
 
 === Non-adiabatic coupling for DRT 2 STATE 3 and DRT 2 STATE 4 === 
   1.225619E-01  -1.266937E-01   5.709835E-02
  -6.090069E-01  -4.048692E+00   4.679327E-01
   1.810578E+00   1.405706E+00  -4.734809E-01
   1.583734E+00   1.173492E+00   2.502460E-01
  -1.509022E+00   1.309211E+00  -1.329914E-01
  -1.783517E+00   1.277759E+00   2.063731E-01
  -1.221007E-01  -1.447366E+00  -2.345812E-01
   1.665337E-01   5.272441E-01   5.256546E-01
   3.384741E-01   8.053448E-01  -6.816545E-01
   2.548163E-02  -2.992685E-01   3.192461E-02
   3.663300E-02  -2.900071E-01  -2.989285E-02
  -3.727588E-02  -8.711076E-02   1.180208E-02
  -2.447597E-02  -5.373872E-02  -1.202696E-03
  -7.954902E-04  -1.641466E-01   3.781027E-03
===================================

 Norm of the nonadiabatic coupling vector: 
 |h(drt2.state3,drt2.state4)|= 6.2848408452371 

 Cross-check of the non-adiabatic coupling term:
  DeltaE= -0.00299480379999295

  <L>*dE form CIGRD   :   -0.0000119792    -0.0000959176    -0.0001926707
  <L>*dE form NADCOUPL:   -0.0000119926    -0.0000961620    -0.0002010327
 -------------------------------------------------------------------------
  Difference          :    0.0000000134     0.0000002444     0.0000083620

 NOTE: This test is meaningless at a point of conical intersection!



============== timings ===================

   unik.gets.x    
   mcdrt.x        
   mcuft.x        
 * mcscf.x          walltime    0:03:03
   mcpc.x         
   mcpc.x         
   mcpc.x         
   mcpc.x         
   exptvl.x       
   exptvl.x       
   exptvl.x       
   exptvl.x       
   cidrt.x        
   cidrt.x        
 * tran.x           walltime    0:07:45
 * pciudg.x -m 19000   walltime   17:21:43
 * cipc.x           walltime    0:00:13
 * pciudg.x -m 19000   walltime   39:55:31
 * cipc.x           walltime    0:00:24
 * reindex.x        walltime    0:05:06
 * pciudg.x -m 19000   walltime    1:54:12
 * transci.x        walltime    0:02:17
 * transci.x        walltime    0:02:22
 * transci.x        walltime    0:02:22
 * transci.x        walltime    0:02:17
 * transci.x        walltime    0:02:19
 * transci.x        walltime    0:02:18
 * transci.x        walltime    0:04:12
 * transci.x        walltime    0:04:14
 * transci.x        walltime    0:04:06
 * transci.x        walltime    0:04:02
 * transci.x        walltime    0:04:16
 * transci.x        walltime    0:04:03
   exptvl.x       
   exptvl.x       
   exptvl.x       
   exptvl.x       
   exptvl.x       
   exptvl.x       
   exptvl.x       
   exptvl.x       
   mo_convert.x   
   mo_convert.x   
   mo_convert.x   
   mo_convert.x   
   mo_convert.x   
   mo_convert.x   
   mo_convert.x   
   mo_convert.x   
   mo_convert.x   
   mo_convert.x   
   mo_convert.x   
   mo_convert.x   
   mo_convert.x   
   mo_convert.x   
 * cidrt.x          walltime    0:00:07
 * tran.x           walltime    0:08:26
 * cigrd.x          walltime    0:11:57
 * tran.x           walltime    0:07:19
 * cigrd.x          walltime    0:10:17
 * tran.x           walltime    0:07:18
 * cigrd.x          walltime    0:11:16
 * tran.x           walltime    0:07:23
 * cigrd.x          walltime    0:11:48
 * tran.x           walltime    0:07:23
 * cigrd.x          walltime    0:11:40
 * tran.x           walltime    0:07:26
 * cigrd.x          walltime    0:13:37
 * tran.x           walltime    0:07:12
 * cigrd.x          walltime    0:10:58
 * tran.x           walltime    0:07:27
 * cigrd.x          walltime    0:10:42
 * tran.x           walltime    0:07:13
 * cigrd.x          walltime    0:10:37
 * tran.x           walltime    0:07:02
   tran.x         
   tdmrunfile.x   
 * cigrd.x          walltime    0:10:33
 * tran.x           walltime    0:06:56
   tran.x         
   tdmrunfile.x   
 * cigrd.x          walltime    0:10:32
 * tran.x           walltime    0:06:39
   tran.x         
   tdmrunfile.x   
 * cigrd.x          walltime    0:10:30
 * tran.x           walltime    0:06:45
   tran.x         
   tdmrunfile.x   
 * cigrd.x          walltime    0:10:27
 * tran.x           walltime    0:06:55
   tran.x         
   tdmrunfile.x   
 * cigrd.x          walltime    0:10:04
 * tran.x           walltime    0:06:48
   tran.x         
   tdmrunfile.x   
 * cigrd.x          walltime    0:13:30
 * tran.x           walltime    0:06:52
   tran.x         
   tdmrunfile.x   
 * cigrd.x          walltime    0:10:26
 * tran.x           walltime    0:06:53
   tran.x         
   tdmrunfile.x   
 * cigrd.x          walltime    0:17:46
 * tran.x           walltime    0:07:04
   tran.x         
   tdmrunfile.x   
 * cigrd.x          walltime    0:10:33
 * tran.x           walltime    0:06:36
   tran.x         
   tdmrunfile.x   
 * cigrd.x          walltime    0:12:40
 * tran.x           walltime    0:06:52
   tran.x         
   tdmrunfile.x   
 * cigrd.x          walltime    0:10:14
 * tran.x           walltime    0:06:41
   tran.x         
   tdmrunfile.x   

==========================================

