[Molden Format]
[Atoms] AU
  N     1    7     0.0000000000    0.0000000000   -4.2907334100        
  C     2    6     0.0000000000    0.0000000000   -1.7772236300        
  C     3    6     0.0000000000   -2.3389203600   -0.4111016300        
  C     4    6     0.0000000000    2.3389203600   -0.4111016300        
  C     5    6     0.0000000000   -2.2998668500    2.1639215300        
  C     6    6     0.0000000000    2.2998668500    2.1639215300        
  C     7    6     0.0000000000    0.0000000000    3.4755251800        
  H     8    1     0.0000000000   -2.4124509000   -5.7790131500        
  H     9    1     0.0000000000    1.7691306600   -5.3821385500        
  H    10    1     0.0000000000   -4.0745407300   -1.4447408500        
  H    11    1     0.0000000000    4.0745407300   -1.4447408500        
  H    12    1     0.0000000000   -4.0420632100    3.1963889500        
  H    13    1     0.0000000000    4.0420632100    3.1963889500        
  H    14    1     0.0000000000    0.0000000000    5.5020335600        
[5D]
[7F]
[GTO]
  1  0
   s    12 1.00
  0.114200D+05  0.172695D-04
  0.171200D+04  0.134411D-03
  0.389300D+03  0.694561D-03
  0.110000D+03  0.278531D-02
  0.355700D+02  0.863457D-02
  0.125400D+02  0.199805D-01
  0.464400D+01  0.262908D-01
  0.129300D+01 -0.243845D-01
  0.511800D+00 -0.924934D-01
  0.178700D+00 -0.339683D+00
  0.246240D-01  0.345111D+00
  0.112530D-01  0.752750D+00
   s    10 1.00
  0.114200D+05  0.523000D-03
  0.171200D+04  0.404500D-02
  0.389300D+03  0.207750D-01
  0.110000D+03  0.807269D-01
  0.355700D+02  0.233074D+00
  0.125400D+02  0.433501D+00
  0.464400D+01  0.347472D+00
  0.129300D+01  0.412620D-01
  0.511800D+00 -0.850799D-02
  0.178700D+00  0.238400D-02
   s    10 1.00
  0.114200D+05 -0.115000D-03
  0.171200D+04 -0.895000D-03
  0.389300D+03 -0.462400D-02
  0.110000D+03 -0.185280D-01
  0.355700D+02 -0.573390D-01
  0.125400D+02 -0.132076D+00
  0.464400D+01 -0.172510D+00
  0.129300D+01  0.151814D+00
  0.511800D+00  0.599944D+00
  0.178700D+00  0.387462D+00
   s     1 1.00
  0.129300D+01  0.100000D+01
   s     1 1.00
  0.178700D+00  0.100000D+01
   p     5 1.00
  0.266300D+02  0.146700D-01
  0.594800D+01  0.917640D-01
  0.174200D+01  0.298683D+00
  0.555000D+00  0.498487D+00
  0.172500D+00  0.337023D+00
   p     1 1.00
  0.174200D+01  0.100000D+01
   p     1 1.00
  0.555000D+00  0.100000D+01
   d     1 1.00
  0.165400D+01  0.100000D+01
   d     1 1.00
  0.469000D+00  0.100000D+01
   f     1 1.00
  0.109300D+01  0.100000D+01
  
  2  0
   s    10 1.00
  0.823600D+04  0.531000D-03
  0.123500D+04  0.410800D-02
  0.280800D+03  0.210870D-01
  0.792700D+02  0.818530D-01
  0.255900D+02  0.234817D+00
  0.899700D+01  0.434401D+00
  0.331900D+01  0.346129D+00
  0.905900D+00  0.393780D-01
  0.364300D+00 -0.898300D-02
  0.128500D+00  0.238500D-02
   s    10 1.00
  0.823600D+04 -0.113000D-03
  0.123500D+04 -0.878000D-03
  0.280800D+03 -0.454000D-02
  0.792700D+02 -0.181330D-01
  0.255900D+02 -0.557600D-01
  0.899700D+01 -0.126895D+00
  0.331900D+01 -0.170352D+00
  0.905900D+00  0.140382D+00
  0.364300D+00  0.598684D+00
  0.128500D+00  0.395389D+00
   s     1 1.00
  0.905900D+00  0.100000D+01
   s     1 1.00
  0.364300D+00  0.100000D+01
   p     5 1.00
  0.187100D+02  0.140310D-01
  0.413300D+01  0.868660D-01
  0.120000D+01  0.290216D+00
  0.382700D+00  0.501008D+00
  0.120900D+00  0.343406D+00
   p     1 1.00
  0.382700D+00  0.100000D+01
   p     1 1.00
  0.120900D+00  0.100000D+01
   d     1 1.00
  0.109700D+01  0.100000D+01
   d     1 1.00
  0.318000D+00  0.100000D+01
   f     1 1.00
  0.761000D+00  0.100000D+01
  
  3  0
   s    10 1.00
  0.823600D+04  0.531000D-03
  0.123500D+04  0.410800D-02
  0.280800D+03  0.210870D-01
  0.792700D+02  0.818530D-01
  0.255900D+02  0.234817D+00
  0.899700D+01  0.434401D+00
  0.331900D+01  0.346129D+00
  0.905900D+00  0.393780D-01
  0.364300D+00 -0.898300D-02
  0.128500D+00  0.238500D-02
   s    10 1.00
  0.823600D+04 -0.113000D-03
  0.123500D+04 -0.878000D-03
  0.280800D+03 -0.454000D-02
  0.792700D+02 -0.181330D-01
  0.255900D+02 -0.557600D-01
  0.899700D+01 -0.126895D+00
  0.331900D+01 -0.170352D+00
  0.905900D+00  0.140382D+00
  0.364300D+00  0.598684D+00
  0.128500D+00  0.395389D+00
   s     1 1.00
  0.905900D+00  0.100000D+01
   s     1 1.00
  0.364300D+00  0.100000D+01
   p     5 1.00
  0.187100D+02  0.140310D-01
  0.413300D+01  0.868660D-01
  0.120000D+01  0.290216D+00
  0.382700D+00  0.501008D+00
  0.120900D+00  0.343406D+00
   p     1 1.00
  0.382700D+00  0.100000D+01
   p     1 1.00
  0.120900D+00  0.100000D+01
   d     1 1.00
  0.109700D+01  0.100000D+01
   d     1 1.00
  0.318000D+00  0.100000D+01
   f     1 1.00
  0.761000D+00  0.100000D+01
  
  4  0
   s    10 1.00
  0.823600D+04  0.531000D-03
  0.123500D+04  0.410800D-02
  0.280800D+03  0.210870D-01
  0.792700D+02  0.818530D-01
  0.255900D+02  0.234817D+00
  0.899700D+01  0.434401D+00
  0.331900D+01  0.346129D+00
  0.905900D+00  0.393780D-01
  0.364300D+00 -0.898300D-02
  0.128500D+00  0.238500D-02
   s    10 1.00
  0.823600D+04 -0.113000D-03
  0.123500D+04 -0.878000D-03
  0.280800D+03 -0.454000D-02
  0.792700D+02 -0.181330D-01
  0.255900D+02 -0.557600D-01
  0.899700D+01 -0.126895D+00
  0.331900D+01 -0.170352D+00
  0.905900D+00  0.140382D+00
  0.364300D+00  0.598684D+00
  0.128500D+00  0.395389D+00
   s     1 1.00
  0.905900D+00  0.100000D+01
   s     1 1.00
  0.364300D+00  0.100000D+01
   p     5 1.00
  0.187100D+02  0.140310D-01
  0.413300D+01  0.868660D-01
  0.120000D+01  0.290216D+00
  0.382700D+00  0.501008D+00
  0.120900D+00  0.343406D+00
   p     1 1.00
  0.382700D+00  0.100000D+01
   p     1 1.00
  0.120900D+00  0.100000D+01
   d     1 1.00
  0.109700D+01  0.100000D+01
   d     1 1.00
  0.318000D+00  0.100000D+01
   f     1 1.00
  0.761000D+00  0.100000D+01
  
  5  0
   s    10 1.00
  0.823600D+04  0.531000D-03
  0.123500D+04  0.410800D-02
  0.280800D+03  0.210870D-01
  0.792700D+02  0.818530D-01
  0.255900D+02  0.234817D+00
  0.899700D+01  0.434401D+00
  0.331900D+01  0.346129D+00
  0.905900D+00  0.393780D-01
  0.364300D+00 -0.898300D-02
  0.128500D+00  0.238500D-02
   s    10 1.00
  0.823600D+04 -0.113000D-03
  0.123500D+04 -0.878000D-03
  0.280800D+03 -0.454000D-02
  0.792700D+02 -0.181330D-01
  0.255900D+02 -0.557600D-01
  0.899700D+01 -0.126895D+00
  0.331900D+01 -0.170352D+00
  0.905900D+00  0.140382D+00
  0.364300D+00  0.598684D+00
  0.128500D+00  0.395389D+00
   s     1 1.00
  0.905900D+00  0.100000D+01
   s     1 1.00
  0.364300D+00  0.100000D+01
   p     5 1.00
  0.187100D+02  0.140310D-01
  0.413300D+01  0.868660D-01
  0.120000D+01  0.290216D+00
  0.382700D+00  0.501008D+00
  0.120900D+00  0.343406D+00
   p     1 1.00
  0.382700D+00  0.100000D+01
   p     1 1.00
  0.120900D+00  0.100000D+01
   d     1 1.00
  0.109700D+01  0.100000D+01
   d     1 1.00
  0.318000D+00  0.100000D+01
   f     1 1.00
  0.761000D+00  0.100000D+01
  
  6  0
   s    10 1.00
  0.823600D+04  0.531000D-03
  0.123500D+04  0.410800D-02
  0.280800D+03  0.210870D-01
  0.792700D+02  0.818530D-01
  0.255900D+02  0.234817D+00
  0.899700D+01  0.434401D+00
  0.331900D+01  0.346129D+00
  0.905900D+00  0.393780D-01
  0.364300D+00 -0.898300D-02
  0.128500D+00  0.238500D-02
   s    10 1.00
  0.823600D+04 -0.113000D-03
  0.123500D+04 -0.878000D-03
  0.280800D+03 -0.454000D-02
  0.792700D+02 -0.181330D-01
  0.255900D+02 -0.557600D-01
  0.899700D+01 -0.126895D+00
  0.331900D+01 -0.170352D+00
  0.905900D+00  0.140382D+00
  0.364300D+00  0.598684D+00
  0.128500D+00  0.395389D+00
   s     1 1.00
  0.905900D+00  0.100000D+01
   s     1 1.00
  0.364300D+00  0.100000D+01
   p     5 1.00
  0.187100D+02  0.140310D-01
  0.413300D+01  0.868660D-01
  0.120000D+01  0.290216D+00
  0.382700D+00  0.501008D+00
  0.120900D+00  0.343406D+00
   p     1 1.00
  0.382700D+00  0.100000D+01
   p     1 1.00
  0.120900D+00  0.100000D+01
   d     1 1.00
  0.109700D+01  0.100000D+01
   d     1 1.00
  0.318000D+00  0.100000D+01
   f     1 1.00
  0.761000D+00  0.100000D+01
  
  7  0
   s    10 1.00
  0.823600D+04  0.531000D-03
  0.123500D+04  0.410800D-02
  0.280800D+03  0.210870D-01
  0.792700D+02  0.818530D-01
  0.255900D+02  0.234817D+00
  0.899700D+01  0.434401D+00
  0.331900D+01  0.346129D+00
  0.905900D+00  0.393780D-01
  0.364300D+00 -0.898300D-02
  0.128500D+00  0.238500D-02
   s    10 1.00
  0.823600D+04 -0.113000D-03
  0.123500D+04 -0.878000D-03
  0.280800D+03 -0.454000D-02
  0.792700D+02 -0.181330D-01
  0.255900D+02 -0.557600D-01
  0.899700D+01 -0.126895D+00
  0.331900D+01 -0.170352D+00
  0.905900D+00  0.140382D+00
  0.364300D+00  0.598684D+00
  0.128500D+00  0.395389D+00
   s     1 1.00
  0.905900D+00  0.100000D+01
   s     1 1.00
  0.364300D+00  0.100000D+01
   p     5 1.00
  0.187100D+02  0.140310D-01
  0.413300D+01  0.868660D-01
  0.120000D+01  0.290216D+00
  0.382700D+00  0.501008D+00
  0.120900D+00  0.343406D+00
   p     1 1.00
  0.382700D+00  0.100000D+01
   p     1 1.00
  0.120900D+00  0.100000D+01
   d     1 1.00
  0.109700D+01  0.100000D+01
   d     1 1.00
  0.318000D+00  0.100000D+01
   f     1 1.00
  0.761000D+00  0.100000D+01
  
  8  0
   s     4 1.00
  0.130100D+02  0.196850D-01
  0.196200D+01  0.137977D+00
  0.444600D+00  0.478148D+00
  0.122000D+00  0.501240D+00
   s     1 1.00
  0.122000D+00  0.100000D+01
   p     1 1.00
  0.727000D+00  0.100000D+01
  
  9  0
   s     4 1.00
  0.130100D+02  0.196850D-01
  0.196200D+01  0.137977D+00
  0.444600D+00  0.478148D+00
  0.122000D+00  0.501240D+00
   s     1 1.00
  0.122000D+00  0.100000D+01
   p     1 1.00
  0.727000D+00  0.100000D+01
  
 10  0
   s     4 1.00
  0.130100D+02  0.196850D-01
  0.196200D+01  0.137977D+00
  0.444600D+00  0.478148D+00
  0.122000D+00  0.501240D+00
   s     1 1.00
  0.122000D+00  0.100000D+01
   p     1 1.00
  0.727000D+00  0.100000D+01
  
 11  0
   s     4 1.00
  0.130100D+02  0.196850D-01
  0.196200D+01  0.137977D+00
  0.444600D+00  0.478148D+00
  0.122000D+00  0.501240D+00
   s     1 1.00
  0.122000D+00  0.100000D+01
   p     1 1.00
  0.727000D+00  0.100000D+01
  
 12  0
   s     4 1.00
  0.130100D+02  0.196850D-01
  0.196200D+01  0.137977D+00
  0.444600D+00  0.478148D+00
  0.122000D+00  0.501240D+00
   s     1 1.00
  0.122000D+00  0.100000D+01
   p     1 1.00
  0.727000D+00  0.100000D+01
  
 13  0
   s     4 1.00
  0.130100D+02  0.196850D-01
  0.196200D+01  0.137977D+00
  0.444600D+00  0.478148D+00
  0.122000D+00  0.501240D+00
   s     1 1.00
  0.122000D+00  0.100000D+01
   p     1 1.00
  0.727000D+00  0.100000D+01
  
 14  0
   s     4 1.00
  0.130100D+02  0.196850D-01
  0.196200D+01  0.137977D+00
  0.444600D+00  0.478148D+00
  0.122000D+00  0.501240D+00
   s     1 1.00
  0.122000D+00  0.100000D+01
   p     1 1.00
  0.727000D+00  0.100000D+01
  
[MO]
 Sym= __1_A__
 Ene=   1.00000000000000     
 Spin= Alpha
 Occup=    1.00000000000000     
                     1  4.988524796889555E-005
                     2  0.998503528400496     
                     3  2.326419298707895E-003
                     4  1.647869397118698E-003
                     5  4.321355370061676E-003
                     6  4.143955255907730E-012
                     7  3.062618510814297E-003
                     8  5.953700933345242E-003
                     9 -8.343202407297874E-013
                    10 -6.264806405875300E-004
                    11 -4.481386327135233E-004
                    12  1.209020331337400E-012
                    13 -2.138033955675338E-003
                    14 -1.352250888408355E-003
                    15  2.402082328539300E-004
                    16  1.828368537079112E-013
                    17 -5.473303087846257E-005
                    18  1.139162639012973E-005
                    19 -9.595839198777441E-013
                    20  1.084714201669671E-004
                    21  8.481224952412267E-013
                    22  4.779185994924511E-004
                    23  3.524783325314516E-004
                    24 -9.151744763267486E-013
                    25 -1.198581479988814E-004
                    26 -1.761286508695521E-014
                    27  1.491855502974089E-005
                    28  1.693313933159705E-005
                    29 -8.123815670312570E-013
                    30 -2.729009105748575E-013
                    31  5.503418179648742E-006
                    32 -3.023500439117632E-004
                    33  1.534529844608467E-003
                    34  2.296435533415197E-004
                    35 -2.618335227694963E-004
                    36 -1.343528648028474E-011
                    37 -1.662763591056330E-004
                    38 -4.840888818094747E-003
                    39  1.423473432840060E-011
                    40  4.529148917032737E-004
                    41  2.103357187212630E-004
                    42  2.395952214463027E-012
                    43 -1.871583493121958E-003
                    44  5.104804415848454E-003
                    45  2.277575205964167E-004
                    46 -4.645130320460185E-012
                    47 -1.634627427171556E-005
                    48  1.041180737389848E-004
                    49  1.807168846018145E-012
                    50  7.255904127684927E-005
                    51  7.716169360492664E-012
                    52  6.940269878224570E-004
                    53 -2.941951305283340E-004
                    54  1.919074285209852E-012
                    55 -1.216999741289332E-004
                    56 -5.039289208027745E-012
                    57  4.043357276124553E-006
                    58  4.136463198020302E-005
                    59  6.346257278510314E-013
                    60  1.480950583833174E-012
                    61 -1.484496087696456E-005
                    62 -4.382430230206449E-004
                    63 -2.047885594345013E-003
                    64 -7.575114694973182E-005
                    65  1.838459136590373E-003
                    66 -7.609837379251407E-012
                    67 -6.730498208982751E-004
                    68  4.778022324205412E-004
                    69  9.544061237849680E-012
                    70  3.927680208536030E-004
                    71  7.722548790002843E-004
                    72 -1.776749410951528E-012
                    73 -1.546318252333504E-003
                    74  6.184025779205724E-004
                    75  8.760436116808984E-005
                    76  6.084156556745508E-013
                    77 -2.825067651962466E-005
                    78  7.778236152343773E-006
                    79 -1.317844492800605E-012
                    80 -9.512248751638457E-006
                    81 -4.977906373938303E-012
                    82  1.048413821085724E-004
                    83 -1.540095149836587E-004
                    84 -2.976089804143263E-012
                    85 -1.412645424295091E-004
                    86 -1.574536837631802E-013
                    87 -2.376450115870232E-005
                    88  5.135700447739854E-005
                    89  2.355421392989031E-012
                    90  1.780494677793444E-012
                    91  4.036899070249821E-006
                    92 -1.330029719950589E-004
                    93 -1.047612899643305E-003
                    94  1.953924751488361E-004
                    95 -2.490908211829990E-004
                    96  1.351874892440907E-011
                    97  5.749229009062991E-004
                    98  6.568446688214444E-004
                    99 -1.005167384606429E-011
                   100  3.905326491377112E-004
                   101  3.659138237061922E-004
                   102  1.461265518204092E-012
                   103  4.776758443922019E-004
                   104 -1.203577228349777E-003
                   105  6.188209640235927E-005
                   106  1.439290302809772E-013
                   107 -1.517003079764043E-005
                   108  3.193565592139416E-005
                   109  4.617642166839851E-012
                   110  3.406579317767185E-005
                   111  2.052389886424541E-012
                   112 -7.582039524081697E-005
                   113  1.503760845735058E-004
                   114  1.449145082999023E-012
                   115 -4.701942281333333E-005
                   116  3.877172766021864E-013
                   117  2.077494061507382E-005
                   118 -4.380617781288794E-006
                   119  1.285491897712322E-012
                   120  1.188397150949650E-012
                   121 -1.928010059332717E-005
                   122 -2.481538950271637E-004
                   123 -4.878278195605974E-004
                   124  1.633721423545064E-004
                   125  3.364274476395032E-004
                   126  4.244256919926769E-012
                   127 -5.941184995947079E-006
                   128 -5.357324146444092E-004
                   129  3.658203322298605E-012
                   130  1.668324969441968E-004
                   131  5.653764159997142E-004
                   132  1.519077174668889E-012
                   133  2.822072088009549E-004
                   134  1.767162758582093E-003
                   135 -4.117210524609192E-005
                   136  2.989373735457889E-012
                   137 -3.060541975296366E-008
                   138 -9.090699780412081E-006
                   139  4.042810449209329E-013
                   140 -3.720478591330763E-004
                   141 -3.151102371502316E-012
                   142  2.338285017897526E-004
                   143 -1.182467322285204E-006
                   144  2.174523041071304E-012
                   145 -6.967844193494619E-005
                   146  1.778526234331839E-012
                   147 -1.250972839162181E-005
                   148 -1.675366311196334E-005
                   149 -1.633526718808701E-012
                   150  2.216614227150259E-012
                   151 -1.180119192773701E-005
                   152 -1.733945685971774E-004
                   153 -2.440716169849363E-004
                   154  4.675159843271817E-005
                   155  3.555419716413270E-004
                   156 -1.536597064645322E-011
                   157 -2.676898953452669E-005
                   158 -4.910063579018204E-004
                   159  1.162422045012080E-011
                   160  5.617064854699002E-006
                   161  8.822124481198897E-005
                   162 -6.597629615320031E-012
                   163  6.384431281530575E-004
                   164 -1.134146975661846E-004
                   165  3.500585208606502E-006
                   166  7.102532276552720E-013
                   167  3.979520185953926E-006
                   168  1.023968164285019E-006
                   169 -4.045161147948269E-012
                   170 -6.114146409990625E-005
                   171  2.044250274407703E-013
                   172 -4.877564372062497E-005
                   173  4.059389735818110E-005
                   174  6.890793000015286E-012
                   175 -1.571825695865398E-005
                   176 -1.099904731090414E-012
                   177 -2.047878787537289E-005
                   178 -2.050074210242500E-006
                   179  4.980073518886736E-012
                   180 -1.854234860810511E-012
                   181 -5.913460809295172E-007
                   182 -1.588856303568668E-004
                   183 -4.488388005111025E-004
                   184  4.646100134746869E-005
                   185  2.270893611775698E-004
                   186  1.209515521568638E-011
                   187 -3.272865594052767E-005
                   188 -5.290877272021171E-005
                   189 -8.268133625271812E-012
                   190  1.691760755106292E-004
                   191  5.506416986443200E-005
                   192  2.050781078856505E-012
                   193  1.065329441446103E-003
                   194 -1.113154545390783E-004
                   195  1.323658558187505E-005
                   196  4.602426848655683E-012
                   197  5.497474170022668E-006
                   198  5.900111544544416E-006
                   199  3.982562719032448E-013
                   200  5.862125893231496E-005
                   201 -6.299677088853308E-012
                   202 -1.482071512335552E-004
                   203  5.940310067791984E-005
                   204  2.294870534371524E-012
                   205 -7.298596909156824E-006
                   206 -1.025737235354787E-013
                   207  9.080400813787303E-006
                   208 -1.767230863531906E-006
                   209 -1.211982041910147E-012
                   210 -2.745659991640445E-013
                   211 -2.506815472955264E-006
                   212  9.713089191105711E-005
                   213 -4.500241053375723E-005
                   214 -7.289224810362851E-013
                   215  1.626651256738248E-004
                   216  1.624714839058245E-004
                   217  1.004794166302180E-003
                   218 -1.236398681467311E-003
                   219 -1.046950720701994E-012
                   220 -4.113882173681861E-004
                   221  2.352062611674542E-004
                   222 -4.244909813748765E-004
                   223 -5.903996511688227E-004
                   224 -3.552345216422442E-012
                   225  2.593851205175140E-006
                   226 -6.279183874070513E-005
                   227 -2.959997565466282E-004
                   228 -3.991086595323537E-004
                   229  1.678673571878186E-012
                   230 -3.106883080685579E-006
                   231 -2.045492853351476E-005
                   232 -8.271879172221370E-005
                   233 -5.246550024719444E-004
                   234 -7.206437604955345E-013
                   235  4.636915283485156E-006
                   236 -7.021697952471138E-007
                   237 -1.638629643042701E-004
                   238 -4.034787837403935E-004
                   239 -3.186260080728324E-012
                   240  6.039141352938216E-006
                   241  3.053757624863715E-006
                   242  1.906856424572921E-005
                   243 -5.572400115981813E-005
                   244  7.305684890171070E-013
                   245 -4.077304013786648E-007
                   246  2.003599997052849E-005
 Sym= __2_A__
 Ene=   2.00000000000000     
 Spin= Alpha
 Occup=    1.00000000000000     
                     1 -5.041358643781147E-005
                     2 -3.351838362559804E-004
                     3  2.717454993038581E-003
                     4  1.518980602694930E-004
                     5  1.328474854994873E-003
                     6  5.602391537468333E-013
                     7 -2.535213101381188E-004
                     8  3.027450821071521E-003
                     9  9.717664435797482E-013
                    10 -5.039551888711818E-005
                    11 -9.781551326825545E-005
                    12 -4.438306697543165E-012
                    13  9.487992551466713E-005
                    14 -4.619930245711126E-004
                    15  3.008541753045916E-005
                    16  6.936524128112543E-013
                    17  3.841094954178490E-006
                    18  5.898119427317040E-005
                    19  1.654350824785642E-012
                    20 -1.071527071007114E-004
                    21 -7.371079588024645E-012
                    22  5.479717650712882E-006
                    23 -2.113446850929462E-004
                    24 -6.817392210795450E-013
                    25  1.696811575200286E-004
                    26 -1.709011755520480E-013
                    27 -1.060131776900594E-005
                    28 -1.533830669767654E-005
                    29  7.601388101178739E-013
                    30  3.055894316594180E-013
                    31 -1.682251034078803E-005
                    32   1.00101722048767     
                    33  9.355217001114876E-003
                    34  2.729060831993103E-003
                    35 -8.080054422697849E-003
                    36  2.276205150528126E-012
                    37 -1.045559211885906E-004
                    38 -3.675415341680956E-003
                    39  5.878770886441021E-013
                    40  1.067800210118610E-004
                    41  4.750223170180385E-004
                    42 -8.029008814552115E-012
                    43  6.300460305205958E-005
                    44  4.258595219610270E-003
                    45  4.609661364412578E-004
                    46  3.004470113657930E-012
                    47 -5.496799244483833E-006
                    48 -3.966006686452164E-004
                    49 -1.494648676769939E-012
                    50  5.371684568182460E-004
                    51 -7.215268628976672E-012
                    52  6.548314603711323E-005
                    53  9.410172494151272E-004
                    54  4.840655130286870E-012
                    55  3.792021293849437E-004
                    56  4.509769230392403E-012
                    57  5.441743815252457E-007
                    58 -1.760841499093480E-004
                    59  2.010382552161573E-012
                    60  8.685906135728521E-013
                    61 -2.672440205270778E-006
                    62  8.981645718183225E-003
                    63 -2.086229769589706E-003
                    64 -2.933146464567577E-004
                    65  3.087599372151322E-003
                    66 -5.393266558980778E-012
                    67 -4.780076095054007E-006
                    68  8.607779881925043E-005
                    69  7.476446474191311E-012
                    70  7.313154506417681E-004
                    71 -2.063939212910277E-005
                    72  1.001742549640914E-011
                    73 -2.055207567729088E-003
                    74  6.406375046332035E-005
                    75 -1.052413829298539E-005
                    76  2.339729104596271E-013
                    77  1.678792825871647E-006
                    78  2.423196633230204E-005
                    79  1.861338452404994E-012
                    80  7.095764901188806E-004
                    81  2.917316541477291E-012
                    82 -3.851279953573861E-004
                    83 -5.876550729499530E-005
                    84  1.414069683177268E-012
                    85  7.575378437783829E-005
                    86 -1.022401056617411E-012
                    87  4.316946483030163E-005
                    88 -1.325940033948880E-004
                    89  8.743282101747378E-013
                    90  4.961536699026845E-014
                    91  4.617218051755418E-005
                    92  9.624440251167885E-003
                    93 -2.082944601080181E-003
                    94 -2.815951464324942E-004
                    95  3.034335717738855E-003
                    96  8.054576402808082E-012
                    97  5.152095457907886E-006
                    98  7.257037358157716E-005
                    99 -6.922979049784222E-012
                   100 -6.589541344020327E-004
                   101  3.687327315751195E-005
                   102  1.497595326553869E-012
                   103  2.066521993253119E-003
                   104  7.807024352295200E-005
                   105 -1.167755761369091E-005
                   106 -1.879617671110568E-012
                   107 -7.865960218778999E-006
                   108  2.836906205244194E-005
                   109  1.851692223506949E-012
                   110  7.475154359707533E-004
                   111  3.270438943969188E-012
                   112  3.781316462168349E-004
                   113 -4.180601042343960E-005
                   114  2.168630530436660E-012
                   115  7.301566423025541E-005
                   116  6.450965437987893E-013
                   117 -4.138837961495063E-005
                   118 -1.310801949681456E-004
                   119  4.167975906155546E-013
                   120 -6.554244402655118E-013
                   121 -4.413231716448747E-005
                   122 -1.725267636877533E-004
                   123 -6.862101554686018E-004
                   124  2.228380538402642E-004
                   125 -9.268319546580993E-005
                   126  1.440995928213352E-011
                   127 -3.911579802833366E-006
                   128 -3.239871131059498E-004
                   129 -1.667323643087495E-011
                   130 -5.908764021867811E-005
                   131  5.269425288477328E-004
                   132 -1.403576495156206E-011
                   133  3.090626948004432E-004
                   134  7.499604097999229E-004
                   135 -1.223476820569531E-005
                   136 -2.389047018996635E-012
                   137  5.251246743370001E-005
                   138  1.409559810561542E-005
                   139 -1.110200542198261E-012
                   140 -2.753296367894924E-004
                   141  1.278914896248120E-012
                   142 -1.826392386070129E-004
                   143 -1.663626047729627E-006
                   144  1.600776557597491E-013
                   145  2.236129035513053E-006
                   146 -5.565131473480773E-013
                   147 -4.790235260005852E-005
                   148 -4.398500835302856E-005
                   149  2.801401051469652E-012
                   150 -1.837240213732172E-012
                   151 -4.936293998428558E-006
                   152 -1.476094273372281E-004
                   153 -6.884351263021680E-004
                   154  2.284185074420563E-004
                   155 -1.281450910123051E-004
                   156  6.467455503350901E-012
                   157  2.842997835563625E-006
                   158 -3.232445384564659E-004
                   159 -4.312541437529285E-012
                   160  4.045584632506263E-005