[Molden Format]
[Atoms] AU
  N     1    7     0.0000000000   -4.2907334100    0.0000000000        
  C     2    6     0.0000000000   -1.7772236300    0.0000000000        
  C     3    6    -2.3389203600   -0.4111016300    0.0000000000        
  C     4    6     2.3389203600   -0.4111016300    0.0000000000        
  C     5    6    -2.2998668500    2.1639215300    0.0000000000        
  C     6    6     2.2998668500    2.1639215300    0.0000000000        
  C     7    6     0.0000000000    3.4755251800    0.0000000000        
  H     8    1    -2.5732809600   -5.8782318000    0.0000000000        
  H     9    1     2.5732809600   -5.8782317900    0.0000000000        
  H    10    1    -4.0745407300   -1.4447408500    0.0000000000        
  H    11    1     4.0745407300   -1.4447408500    0.0000000000        
  H    12    1    -4.0420632100    3.1963889500    0.0000000000        
  H    13    1     4.0420632100    3.1963889500    0.0000000000        
  H    14    1     0.0000000000    5.5020335600    0.0000000000        
[5D]
[7F]
[GTO]
  1  0
   s    12 1.00
  0.114200D+05  0.172695D-04
  0.171200D+04  0.134411D-03
  0.389300D+03  0.694561D-03
  0.110000D+03  0.278531D-02
  0.355700D+02  0.863457D-02
  0.125400D+02  0.199805D-01
  0.464400D+01  0.262908D-01
  0.129300D+01 -0.243845D-01
  0.511800D+00 -0.924934D-01
  0.178700D+00 -0.339683D+00
  0.246240D-01  0.345111D+00
  0.112530D-01  0.752750D+00
   s    10 1.00
  0.114200D+05  0.523000D-03
  0.171200D+04  0.404500D-02
  0.389300D+03  0.207750D-01
  0.110000D+03  0.807269D-01
  0.355700D+02  0.233074D+00
  0.125400D+02  0.433501D+00
  0.464400D+01  0.347472D+00
  0.129300D+01  0.412620D-01
  0.511800D+00 -0.850799D-02
  0.178700D+00  0.238400D-02
   s    10 1.00
  0.114200D+05 -0.115000D-03
  0.171200D+04 -0.895000D-03
  0.389300D+03 -0.462400D-02
  0.110000D+03 -0.185280D-01
  0.355700D+02 -0.573390D-01
  0.125400D+02 -0.132076D+00
  0.464400D+01 -0.172510D+00
  0.129300D+01  0.151814D+00
  0.511800D+00  0.599944D+00
  0.178700D+00  0.387462D+00
   s     1 1.00
  0.129300D+01  0.100000D+01
   s     1 1.00
  0.178700D+00  0.100000D+01
   p     5 1.00
  0.266300D+02  0.146700D-01
  0.594800D+01  0.917640D-01
  0.174200D+01  0.298683D+00
  0.555000D+00  0.498487D+00
  0.172500D+00  0.337023D+00
   p     1 1.00
  0.174200D+01  0.100000D+01
   p     1 1.00
  0.555000D+00  0.100000D+01
   d     1 1.00
  0.165400D+01  0.100000D+01
   d     1 1.00
  0.469000D+00  0.100000D+01
   f     1 1.00
  0.109300D+01  0.100000D+01
  
  2  0
   s    10 1.00
  0.823600D+04  0.531000D-03
  0.123500D+04  0.410800D-02
  0.280800D+03  0.210870D-01
  0.792700D+02  0.818530D-01
  0.255900D+02  0.234817D+00
  0.899700D+01  0.434401D+00
  0.331900D+01  0.346129D+00
  0.905900D+00  0.393780D-01
  0.364300D+00 -0.898300D-02
  0.128500D+00  0.238500D-02
   s    10 1.00
  0.823600D+04 -0.113000D-03
  0.123500D+04 -0.878000D-03
  0.280800D+03 -0.454000D-02
  0.792700D+02 -0.181330D-01
  0.255900D+02 -0.557600D-01
  0.899700D+01 -0.126895D+00
  0.331900D+01 -0.170352D+00
  0.905900D+00  0.140382D+00
  0.364300D+00  0.598684D+00
  0.128500D+00  0.395389D+00
   s     1 1.00
  0.905900D+00  0.100000D+01
   s     1 1.00
  0.364300D+00  0.100000D+01
   p     5 1.00
  0.187100D+02  0.140310D-01
  0.413300D+01  0.868660D-01
  0.120000D+01  0.290216D+00
  0.382700D+00  0.501008D+00
  0.120900D+00  0.343406D+00
   p     1 1.00
  0.382700D+00  0.100000D+01
   p     1 1.00
  0.120900D+00  0.100000D+01
   d     1 1.00
  0.109700D+01  0.100000D+01
   d     1 1.00
  0.318000D+00  0.100000D+01
   f     1 1.00
  0.761000D+00  0.100000D+01
  
  3  0
   s    10 1.00
  0.823600D+04  0.531000D-03
  0.123500D+04  0.410800D-02
  0.280800D+03  0.210870D-01
  0.792700D+02  0.818530D-01
  0.255900D+02  0.234817D+00
  0.899700D+01  0.434401D+00
  0.331900D+01  0.346129D+00
  0.905900D+00  0.393780D-01
  0.364300D+00 -0.898300D-02
  0.128500D+00  0.238500D-02
   s    10 1.00
  0.823600D+04 -0.113000D-03
  0.123500D+04 -0.878000D-03
  0.280800D+03 -0.454000D-02
  0.792700D+02 -0.181330D-01
  0.255900D+02 -0.557600D-01
  0.899700D+01 -0.126895D+00
  0.331900D+01 -0.170352D+00
  0.905900D+00  0.140382D+00
  0.364300D+00  0.598684D+00
  0.128500D+00  0.395389D+00
   s     1 1.00
  0.905900D+00  0.100000D+01
   s     1 1.00
  0.364300D+00  0.100000D+01
   p     5 1.00
  0.187100D+02  0.140310D-01
  0.413300D+01  0.868660D-01
  0.120000D+01  0.290216D+00
  0.382700D+00  0.501008D+00
  0.120900D+00  0.343406D+00
   p     1 1.00
  0.382700D+00  0.100000D+01
   p     1 1.00
  0.120900D+00  0.100000D+01
   d     1 1.00
  0.109700D+01  0.100000D+01
   d     1 1.00
  0.318000D+00  0.100000D+01
   f     1 1.00
  0.761000D+00  0.100000D+01
  
  4  0
   s    10 1.00
  0.823600D+04  0.531000D-03
  0.123500D+04  0.410800D-02
  0.280800D+03  0.210870D-01
  0.792700D+02  0.818530D-01
  0.255900D+02  0.234817D+00
  0.899700D+01  0.434401D+00
  0.331900D+01  0.346129D+00
  0.905900D+00  0.393780D-01
  0.364300D+00 -0.898300D-02
  0.128500D+00  0.238500D-02
   s    10 1.00
  0.823600D+04 -0.113000D-03
  0.123500D+04 -0.878000D-03
  0.280800D+03 -0.454000D-02
  0.792700D+02 -0.181330D-01
  0.255900D+02 -0.557600D-01
  0.899700D+01 -0.126895D+00
  0.331900D+01 -0.170352D+00
  0.905900D+00  0.140382D+00
  0.364300D+00  0.598684D+00
  0.128500D+00  0.395389D+00
   s     1 1.00
  0.905900D+00  0.100000D+01
   s     1 1.00
  0.364300D+00  0.100000D+01
   p     5 1.00
  0.187100D+02  0.140310D-01
  0.413300D+01  0.868660D-01
  0.120000D+01  0.290216D+00
  0.382700D+00  0.501008D+00
  0.120900D+00  0.343406D+00
   p     1 1.00
  0.382700D+00  0.100000D+01
   p     1 1.00
  0.120900D+00  0.100000D+01
   d     1 1.00
  0.109700D+01  0.100000D+01
   d     1 1.00
  0.318000D+00  0.100000D+01
   f     1 1.00
  0.761000D+00  0.100000D+01
  
  5  0
   s    10 1.00
  0.823600D+04  0.531000D-03
  0.123500D+04  0.410800D-02
  0.280800D+03  0.210870D-01
  0.792700D+02  0.818530D-01
  0.255900D+02  0.234817D+00
  0.899700D+01  0.434401D+00
  0.331900D+01  0.346129D+00
  0.905900D+00  0.393780D-01
  0.364300D+00 -0.898300D-02
  0.128500D+00  0.238500D-02
   s    10 1.00
  0.823600D+04 -0.113000D-03
  0.123500D+04 -0.878000D-03
  0.280800D+03 -0.454000D-02
  0.792700D+02 -0.181330D-01
  0.255900D+02 -0.557600D-01
  0.899700D+01 -0.126895D+00
  0.331900D+01 -0.170352D+00
  0.905900D+00  0.140382D+00
  0.364300D+00  0.598684D+00
  0.128500D+00  0.395389D+00
   s     1 1.00
  0.905900D+00  0.100000D+01
   s     1 1.00
  0.364300D+00  0.100000D+01
   p     5 1.00
  0.187100D+02  0.140310D-01
  0.413300D+01  0.868660D-01
  0.120000D+01  0.290216D+00
  0.382700D+00  0.501008D+00
  0.120900D+00  0.343406D+00
   p     1 1.00
  0.382700D+00  0.100000D+01
   p     1 1.00
  0.120900D+00  0.100000D+01
   d     1 1.00
  0.109700D+01  0.100000D+01
   d     1 1.00
  0.318000D+00  0.100000D+01
   f     1 1.00
  0.761000D+00  0.100000D+01
  
  6  0
   s    10 1.00
  0.823600D+04  0.531000D-03
  0.123500D+04  0.410800D-02
  0.280800D+03  0.210870D-01
  0.792700D+02  0.818530D-01
  0.255900D+02  0.234817D+00
  0.899700D+01  0.434401D+00
  0.331900D+01  0.346129D+00
  0.905900D+00  0.393780D-01
  0.364300D+00 -0.898300D-02
  0.128500D+00  0.238500D-02
   s    10 1.00
  0.823600D+04 -0.113000D-03
  0.123500D+04 -0.878000D-03
  0.280800D+03 -0.454000D-02
  0.792700D+02 -0.181330D-01
  0.255900D+02 -0.557600D-01
  0.899700D+01 -0.126895D+00
  0.331900D+01 -0.170352D+00
  0.905900D+00  0.140382D+00
  0.364300D+00  0.598684D+00
  0.128500D+00  0.395389D+00
   s     1 1.00
  0.905900D+00  0.100000D+01
   s     1 1.00
  0.364300D+00  0.100000D+01
   p     5 1.00
  0.187100D+02  0.140310D-01
  0.413300D+01  0.868660D-01
  0.120000D+01  0.290216D+00
  0.382700D+00  0.501008D+00
  0.120900D+00  0.343406D+00
   p     1 1.00
  0.382700D+00  0.100000D+01
   p     1 1.00
  0.120900D+00  0.100000D+01
   d     1 1.00
  0.109700D+01  0.100000D+01
   d     1 1.00
  0.318000D+00  0.100000D+01
   f     1 1.00
  0.761000D+00  0.100000D+01
  
  7  0
   s    10 1.00
  0.823600D+04  0.531000D-03
  0.123500D+04  0.410800D-02
  0.280800D+03  0.210870D-01
  0.792700D+02  0.818530D-01
  0.255900D+02  0.234817D+00
  0.899700D+01  0.434401D+00
  0.331900D+01  0.346129D+00
  0.905900D+00  0.393780D-01
  0.364300D+00 -0.898300D-02
  0.128500D+00  0.238500D-02
   s    10 1.00
  0.823600D+04 -0.113000D-03
  0.123500D+04 -0.878000D-03
  0.280800D+03 -0.454000D-02
  0.792700D+02 -0.181330D-01
  0.255900D+02 -0.557600D-01
  0.899700D+01 -0.126895D+00
  0.331900D+01 -0.170352D+00
  0.905900D+00  0.140382D+00
  0.364300D+00  0.598684D+00
  0.128500D+00  0.395389D+00
   s     1 1.00
  0.905900D+00  0.100000D+01
   s     1 1.00
  0.364300D+00  0.100000D+01
   p     5 1.00
  0.187100D+02  0.140310D-01
  0.413300D+01  0.868660D-01
  0.120000D+01  0.290216D+00
  0.382700D+00  0.501008D+00
  0.120900D+00  0.343406D+00
   p     1 1.00
  0.382700D+00  0.100000D+01
   p     1 1.00
  0.120900D+00  0.100000D+01
   d     1 1.00
  0.109700D+01  0.100000D+01
   d     1 1.00
  0.318000D+00  0.100000D+01
   f     1 1.00
  0.761000D+00  0.100000D+01
  
  8  0
   s     4 1.00
  0.130100D+02  0.196850D-01
  0.196200D+01  0.137977D+00
  0.444600D+00  0.478148D+00
  0.122000D+00  0.501240D+00
   s     1 1.00
  0.122000D+00  0.100000D+01
   p     1 1.00
  0.727000D+00  0.100000D+01
  
  9  0
   s     4 1.00
  0.130100D+02  0.196850D-01
  0.196200D+01  0.137977D+00
  0.444600D+00  0.478148D+00
  0.122000D+00  0.501240D+00
   s     1 1.00
  0.122000D+00  0.100000D+01
   p     1 1.00
  0.727000D+00  0.100000D+01
  
 10  0
   s     4 1.00
  0.130100D+02  0.196850D-01
  0.196200D+01  0.137977D+00
  0.444600D+00  0.478148D+00
  0.122000D+00  0.501240D+00
   s     1 1.00
  0.122000D+00  0.100000D+01
   p     1 1.00
  0.727000D+00  0.100000D+01
  
 11  0
   s     4 1.00
  0.130100D+02  0.196850D-01
  0.196200D+01  0.137977D+00
  0.444600D+00  0.478148D+00
  0.122000D+00  0.501240D+00
   s     1 1.00
  0.122000D+00  0.100000D+01
   p     1 1.00
  0.727000D+00  0.100000D+01
  
 12  0
   s     4 1.00
  0.130100D+02  0.196850D-01
  0.196200D+01  0.137977D+00
  0.444600D+00  0.478148D+00
  0.122000D+00  0.501240D+00
   s     1 1.00
  0.122000D+00  0.100000D+01
   p     1 1.00
  0.727000D+00  0.100000D+01
  
 13  0
   s     4 1.00
  0.130100D+02  0.196850D-01
  0.196200D+01  0.137977D+00
  0.444600D+00  0.478148D+00
  0.122000D+00  0.501240D+00
   s     1 1.00
  0.122000D+00  0.100000D+01
   p     1 1.00
  0.727000D+00  0.100000D+01
  
 14  0
   s     4 1.00
  0.130100D+02  0.196850D-01
  0.196200D+01  0.137977D+00
  0.444600D+00  0.478148D+00
  0.122000D+00  0.501240D+00
   s     1 1.00
  0.122000D+00  0.100000D+01
   p     1 1.00
  0.727000D+00  0.100000D+01
  
[MO]
 Sym= __1_A'_
 Ene=   1.00000000000000     
 Spin= Alpha
 Occup=    1.00000000000000     
                     1  4.154247614004972E-005
                     2  0.998821049881749     
                     3 -2.130608920779601E-004
                     4  1.101088946066336E-003
                     5  5.900441723451641E-003
                     6 -3.613880428297070E-009
                     7  6.897707271930687E-003
                     8  0.000000000000000E+000
                     9  6.763234300744144E-009
                    10 -8.917435392072860E-004
                    11  0.000000000000000E+000
                    12 -2.712904959212229E-008
                    13 -2.780007137145295E-003
                    14  0.000000000000000E+000
                    15 -5.103309423923359E-006
                    16  0.000000000000000E+000
                    17  0.000000000000000E+000
                    18 -2.572510953930252E-004
                    19 -1.201011471829057E-010
                    20  8.108388311604798E-005
                    21  0.000000000000000E+000
                    22  0.000000000000000E+000
                    23 -2.374378358463372E-004
                    24 -1.899490557450055E-008
                    25  0.000000000000000E+000
                    26  1.061071769652963E-009
                    27 -3.930495507128854E-005
                    28  0.000000000000000E+000
                    29  0.000000000000000E+000
                    30 -5.606286774531572E-009
                    31 -1.321700399995669E-004
                    32 -2.862363629349347E-004
                    33  5.272340927737530E-004
                    34  3.357346096181209E-004
                    35 -4.033240999052782E-004
                    36  2.559852515182201E-008
                    37 -3.056664938532317E-003
                    38  0.000000000000000E+000
                    39 -1.156532334920350E-007
                    40  7.238178716138203E-005
                    41  0.000000000000000E+000
                    42 -1.811052127894847E-007
                    43  5.754149964378705E-003
                    44  0.000000000000000E+000
                    45 -7.208385555978697E-006
                    46  0.000000000000000E+000
                    47  0.000000000000000E+000
                    48 -1.605419367062700E-004
                    49  2.486061727089065E-009
                    50 -2.004079553411752E-004
                    51  0.000000000000000E+000
                    52  0.000000000000000E+000
                    53 -7.835263795289964E-005
                    54 -1.284135475672476E-007
                    55  0.000000000000000E+000
                    56  4.476882570702712E-009
                    57 -5.821131564594475E-005
                    58  0.000000000000000E+000
                    59  0.000000000000000E+000
                    60  9.217112769831729E-009
                    61 -1.202953560466481E-004
                    62 -3.860990068272437E-004
                    63 -1.589865770572217E-003
                    64  5.615319453311226E-005
                    65  1.130958362767154E-003
                    66 -3.756399931549801E-004
                    67  2.907671596025229E-004
                    68  0.000000000000000E+000
                    69  4.305438707219618E-005
                    70  4.763839768156908E-004
                    71  0.000000000000000E+000
                    72 -1.383495380303763E-003
                    73 -3.885150002887223E-004
                    74  0.000000000000000E+000
                    75 -3.290638204815332E-005
                    76  0.000000000000000E+000
                    77  0.000000000000000E+000
                    78 -5.165899048611162E-005
                    79 -7.655283077897749E-006
                    80  1.342666001866610E-006
                    81  0.000000000000000E+000
                    82  0.000000000000000E+000
                    83 -4.109243227379574E-005
                    84 -1.507900465588242E-005
                    85  0.000000000000000E+000
                    86  1.245155502446730E-005
                    87 -3.788768474407639E-005
                    88  0.000000000000000E+000
                    89  0.000000000000000E+000
                    90 -1.240063131035154E-005
                    91 -9.606712384724152E-005
                    92 -3.860990535068106E-004
                    93 -1.589852824649556E-003
                    94  5.624068131831556E-005
                    95  1.130672114133496E-003
                    96  3.756717839399753E-004
                    97  2.908495183947184E-004
                    98  0.000000000000000E+000
                    99 -4.321074845196774E-005
                   100  4.758853551039175E-004
                   101  0.000000000000000E+000
                   102  1.383182266978351E-003
                   103 -3.888150192804663E-004
                   104  0.000000000000000E+000
                   105 -3.289355081741621E-005
                   106  0.000000000000000E+000
                   107  0.000000000000000E+000
                   108 -5.164147533546520E-005
                   109  7.661960047106339E-006
                   110  1.398789128015844E-006
                   111  0.000000000000000E+000
                   112  0.000000000000000E+000
                   113 -4.079646914242280E-005
                   114  1.509997924631693E-005
                   115  0.000000000000000E+000
                   116 -1.244496351905004E-005
                   117 -3.786152089611932E-005
                   118  0.000000000000000E+000
                   119  0.000000000000000E+000
                   120  1.238090162639259E-005
                   121 -9.604359404669076E-005
                   122 -2.945350163744213E-004
                   123 -7.678906999774008E-004
                   124  1.028041625097165E-004
                   125  6.109782792022247E-004
                   126 -1.290511218948269E-005
                   127 -3.199975513506394E-004
                   128  0.000000000000000E+000
                   129  1.328964376510663E-004
                   130  3.039404627016281E-004
                   131  0.000000000000000E+000
                   132 -1.697775665190020E-004
                   133  9.435983374054889E-004
                   134  0.000000000000000E+000
                   135  7.018585461123727E-007
                   136  0.000000000000000E+000
                   137  0.000000000000000E+000
                   138  1.987128936918278E-005
                   139 -7.836623310968348E-006
                   140  1.419185400000572E-004
                   141  0.000000000000000E+000
                   142  0.000000000000000E+000
                   143  1.873729713003428E-004
                   144  1.185710277228593E-004
                   145  0.000000000000000E+000
                   146 -8.577221082830467E-006
                   147 -3.484316774714644E-005
                   148  0.000000000000000E+000
                   149  0.000000000000000E+000
                   150  4.417627349181484E-006
                   151 -2.951619733218826E-005
                   152 -2.947570361142773E-004
                   153 -7.686558113404432E-004
                   154  1.026751078095053E-004
                   155  6.120525549732351E-004
                   156  1.280435507987097E-005
                   157 -3.199115080982349E-004
                   158  0.000000000000000E+000
                   159 -1.325831106007129E-004
                   160  3.034412027281024E-004
                   161  0.000000000000000E+000
                   162  1.701577226825972E-004
                   163  9.432744561629967E-004
                   164  0.000000000000000E+000
                   165  6.820663845567925E-007
                   166  0.000000000000000E+000
                   167  0.000000000000000E+000
                   168  1.984967113800384E-005
                   169  7.848229628656510E-006
                   170  1.418894893058401E-004
                   171  0.000000000000000E+000
                   172  0.000000000000000E+000
                   173  1.871622660877715E-004
                   174 -1.184878580882676E-004
                   175  0.000000000000000E+000
                   176  8.553326378220878E-006
                   177 -3.482031571910274E-005
                   178  0.000000000000000E+000
                   179  0.000000000000000E+000
                   180 -4.391677082435852E-006
                   181 -2.948412844565796E-005
                   182 -2.173727689459559E-004
                   183 -6.608632184154222E-004
                   184  6.403371364573779E-005
                   185  3.568932817051849E-004
                   186 -5.383961420426601E-008
                   187 -3.357635882959727E-005
                   188  0.000000000000000E+000
                   189  1.949484153660898E-007
                   190  7.727447717583989E-005
                   191  0.000000000000000E+000
                   192  2.319142286236883E-007
                   193 -2.178026112251453E-004
                   194  0.000000000000000E+000
                   195 -1.692900419893249E-006
                   196  0.000000000000000E+000
                   197  0.000000000000000E+000
                   198 -1.112053825201124E-005
                   199 -6.028961532046376E-009
                   200  3.164816168006284E-005
                   201  0.000000000000000E+000
                   202  0.000000000000000E+000
                   203 -8.901069853690963E-005
                   204 -7.276379851871121E-008
                   205  0.000000000000000E+000
                   206 -9.106871784735339E-009
                   207 -6.891644771416734E-006
                   208  0.000000000000000E+000
                   209  0.000000000000000E+000
                   210 -9.225246665034127E-009
                   211  1.297041279518954E-006
                   212 -3.077889581436391E-004
                   213  3.932464636315668E-006
                   214  1.077787895165235E-004
                   215  6.654016611739655E-005
                   216  0.000000000000000E+000
                   217 -3.077903739408245E-004
                   218  3.936258999585695E-006
                   219 -1.077801129735972E-004
                   220  6.653985125402904E-005
                   221  0.000000000000000E+000
                   222 -1.893857367340340E-004
                   223 -7.302607852886976E-004
                   224  1.217184938447530E-005
                   225 -4.672401327143084E-005
                   226  0.000000000000000E+000
                   227 -1.894327702791470E-004
                   228 -7.301715174301410E-004
                   229 -1.218864142810896E-005
                   230 -4.674763561950624E-005
                   231  0.000000000000000E+000
                   232 -3.277574862144771E-005
                   233 -4.920526668655143E-004
                   234  1.473914521480056E-006
                   235 -2.184457293379137E-006
                   236  0.000000000000000E+000
                   237 -3.291731307563278E-005
                   238 -4.920066304072522E-004
                   239 -1.420749388011430E-006
                   240 -2.172986981417001E-006
                   241  0.000000000000000E+000
                   242  3.828319064230654E-006
                   243 -1.606117960910839E-005
                   244  5.009861977638382E-009
                   245  2.374754886476619E-005
                   246  0.000000000000000E+000
 Sym= __2_A'_
 Ene=   2.00000000000000     
 Spin= Alpha
 Occup=    1.00000000000000     
                     1 -5.976966942734832E-005
                     2 -3.667554612340640E-004
                     3  3.115968078048995E-003
                     4  1.762503862019204E-004
                     5  1.335047512766871E-003
                     6  1.369690300625241E-009
                     7  2.731569897965253E-003
                     8  0.000000000000000E+000
                     9 -2.039852569070717E-009
                    10 -1.433541166324018E-004
                    11  0.000000000000000E+000
                    12  5.786214528815179E-009
                    13 -3.173211011739797E-004
                    14  0.000000000000000E+000
                    15  2.891560807380811E-005
                    16  0.000000000000000E+000
                    17  0.000000000000000E+000
                    18 -4.201262864030506E-005
                    19  5.205479806673097E-010
                    20 -1.007824258916158E-004
                    21  0.000000000000000E+000
                    22  0.000000000000000E+000
                    23  7.041483705951378E-005
                    24  2.009990734063987E-009
                    25  0.000000000000000E+000
                    26  5.072350899511146E-010
                    27  8.564376694991847E-005
                    28  0.000000000000000E+000
                    29  0.000000000000000E+000
                    30  1.722865438276840E-009
                    31  1.614693816853660E-004
                    32   1.00099980434509     
                    33  9.180024612581789E-003
                    34  2.779301773614528E-003
                    35 -8.161998624728826E-003
                    36 -3.772611063649142E-009
                    37 -3.576719468186341E-003
                    38  0.000000000000000E+000
                    39  3.065518229081804E-009
                    40  6.160747291347637E-004
                    41  0.000000000000000E+000
                    42 -2.047594537906024E-008
                    43  4.222623045577835E-003
                    44  0.000000000000000E+000
                    45 -5.726386545775526E-004
                    46  0.000000000000000E+000
                    47  0.000000000000000E+000
                    48 -2.006100463685526E-004
                    49 -2.447061099262841E-009
                    50  5.569514262729188E-004
                    51  0.000000000000000E+000
                    52  0.000000000000000E+000
                    53 -8.027014377154318E-004
                    54  1.475345922341751E-008
                    55  0.000000000000000E+000
                    56  1.378278815647004E-009
                    57  9.211252602800380E-005
                    58  0.000000000000000E+000
                    59  0.000000000000000E+000
                    60 -9.457779545065463E-010
                    61  3.902143752055535E-004
                    62  9.589828022417469E-003
                    63 -2.043239641608027E-003
                    64 -2.857730945812541E-004
                    65  3.007111819438634E-003
                    66 -9.057646256076518E-007
                    67  9.424484039772487E-005
                    68  0.000000000000000E+000
                    69  6.804024836688592E-004
                    70  6.257756478711370E-005
                    71  0.000000000000000E+000
                    72 -2.035610384360820E-003
                    73  7.109102130394705E-005
                    74  0.000000000000000E+000
                    75  3.001432744881826E-005
                    76  0.000000000000000E+000
                    77  0.000000000000000E+000
                    78 -3.223328523907212E-006
                    79  6.120242226152096E-006
                    80 -4.144598322075643E-004
                    81  0.000000000000000E+000
                    82  0.000000000000000E+000
                    83 -5.968018850417664E-004
                    84 -3.526550301982671E-004
                    85  0.000000000000000E+000
                    86  3.245459201912193E-005
                    87 -6.005451528723654E-005
                    88  0.000000000000000E+000
                    89  0.000000000000000E+000
                    90  4.825154184359209E-005
                    91  1.380025946261208E-004
                    92  9.589806981154539E-003
                    93 -2.043316471092585E-003
                    94 -2.858113065850508E-004
                    95  3.007291834104539E-003
                    96  9.035667539778391E-007
                    97  9.422169422121832E-005
                    98  0.000000000000000E+000
                    99 -6.803943301039227E-004
                   100  6.270223258342540E-005
                   101  0.000000000000000E+000
                   102  2.035754316945588E-003
                   103  7.101884004446384E-005
                   104  0.000000000000000E+000
                   105  3.000668790485540E-005
                   106  0.000000000000000E+000
                   107  0.000000000000000E+000
                   108 -3.233821569780392E-006
                   109 -6.126089654652424E-006
                   110 -4.144723097097435E-004
                   111  0.000000000000000E+000
                   112  0.000000000000000E+000
                   113 -5.968626146848012E-004
                   114  3.526952402412401E-004
                   115  0.000000000000000E+000
                   116 -3.245399784302980E-005
                   117 -6.006058924213033E-005
                   118  0.000000000000000E+000
                   119  0.000000000000000E+000
                   120 -4.824883965791963E-005
                   121  1.379915855658113E-004
                   122 -1.595675093469764E-004
                   123 -6.795583096948523E-004
                   124  2.316264880499412E-004
                   125 -1.409494830972761E-004
                   126 -1.071288904569974E-006
                   127 -3.412671147996182E-004
                   128  0.000000000000000E+000
                   129 -5.974159107461071E-005
                   130  5.606360268908266E-004
                   131  0.000000000000000E+000
                   132  3.178365510454309E-004
                   133  7.414834666669371E-004
                   134  0.000000000000000E+000
                   135  2.058770371272210E-005
                   136  0.000000000000000E+000
                   137  0.000000000000000E+000
                   138  4.701592309469610E-006
                   139  5.273315323474637E-005
                   140  1.369942253594085E-004
                   141  0.000000000000000E+000
                   142  0.000000000000000E+000
                   143  2.521264551678730E-004
                   144 -1.871955355177173E-004
                   145  0.000000000000000E+000
                   146  6.531874020710600E-006
                   147 -3.374634482040426E-005
                   148  0.000000000000000E+000
                   149  0.000000000000000E+000
                   150 -4.509208498372434E-005
                   151  2.628277826965520E-005
                   152 -1.593579376836590E-004
                   153 -6.788583960390175E-004
                   154  2.316838611743403E-004
                   155 -1.417201571034935E-004
                   156  1.064377694174495E-006
                   157 -3.412722176840270E-004
                   158  0.000000000000000E+000
                   159  5.977113014523585E-005
                   160  5.606997751291652E-004