[Molden Format]
[Atoms] AU
  N     1    7    -4.4930274900    0.0759733000   -0.3208092800        
  C     2    6    -1.7533775500   -0.0125600200   -0.1439899100        
  C     3    6    -0.3611424900    0.2156017500   -2.3612178400        
  C     4    6    -0.4713953000   -0.2057457300    2.1474535900        
  C     5    6     2.2531493900    0.2070061500   -2.2878514000        
  C     6    6     2.1438976300   -0.1742521200    2.2106174200        
  C     7    6     3.5128033300    0.0230800400   -0.0053067300        
  H     8    1    -5.1332152800   -1.7799926600   -0.2986151000        
  H     9    1    -5.1097393700    0.7419431700    1.3957613600        
  H    10    1    -1.3419286300    0.4149967500   -4.1218879400        
  H    11    1    -1.5205389900   -0.3972328500    3.8730424400        
  H    12    1     3.3071129900    0.3758094100   -4.0130403500        
  H    13    1     3.1076154800   -0.3200876900    3.9905012500        
  H    14    1     5.5409580300    0.0368728400    0.0456986300        
[5D]
[7F]
[GTO]
  1  0
   s    12 1.00
  0.114200D+05  0.172695D-04
  0.171200D+04  0.134411D-03
  0.389300D+03  0.694561D-03
  0.110000D+03  0.278531D-02
  0.355700D+02  0.863457D-02
  0.125400D+02  0.199805D-01
  0.464400D+01  0.262908D-01
  0.129300D+01 -0.243845D-01
  0.511800D+00 -0.924934D-01
  0.178700D+00 -0.339683D+00
  0.246240D-01  0.345111D+00
  0.112530D-01  0.752750D+00
   s    10 1.00
  0.114200D+05  0.523000D-03
  0.171200D+04  0.404500D-02
  0.389300D+03  0.207750D-01
  0.110000D+03  0.807269D-01
  0.355700D+02  0.233074D+00
  0.125400D+02  0.433501D+00
  0.464400D+01  0.347472D+00
  0.129300D+01  0.412620D-01
  0.511800D+00 -0.850799D-02
  0.178700D+00  0.238400D-02
   s    10 1.00
  0.114200D+05 -0.115000D-03
  0.171200D+04 -0.895000D-03
  0.389300D+03 -0.462400D-02
  0.110000D+03 -0.185280D-01
  0.355700D+02 -0.573390D-01
  0.125400D+02 -0.132076D+00
  0.464400D+01 -0.172510D+00
  0.129300D+01  0.151814D+00
  0.511800D+00  0.599944D+00
  0.178700D+00  0.387462D+00
   s     1 1.00
  0.129300D+01  0.100000D+01
   s     1 1.00
  0.178700D+00  0.100000D+01
   p     5 1.00
  0.266300D+02  0.146700D-01
  0.594800D+01  0.917640D-01
  0.174200D+01  0.298683D+00
  0.555000D+00  0.498487D+00
  0.172500D+00  0.337023D+00
   p     1 1.00
  0.174200D+01  0.100000D+01
   p     1 1.00
  0.555000D+00  0.100000D+01
   d     1 1.00
  0.165400D+01  0.100000D+01
   d     1 1.00
  0.469000D+00  0.100000D+01
   f     1 1.00
  0.109300D+01  0.100000D+01
  
  2  0
   s    10 1.00
  0.823600D+04  0.531000D-03
  0.123500D+04  0.410800D-02
  0.280800D+03  0.210870D-01
  0.792700D+02  0.818530D-01
  0.255900D+02  0.234817D+00
  0.899700D+01  0.434401D+00
  0.331900D+01  0.346129D+00
  0.905900D+00  0.393780D-01
  0.364300D+00 -0.898300D-02
  0.128500D+00  0.238500D-02
   s    10 1.00
  0.823600D+04 -0.113000D-03
  0.123500D+04 -0.878000D-03
  0.280800D+03 -0.454000D-02
  0.792700D+02 -0.181330D-01
  0.255900D+02 -0.557600D-01
  0.899700D+01 -0.126895D+00
  0.331900D+01 -0.170352D+00
  0.905900D+00  0.140382D+00
  0.364300D+00  0.598684D+00
  0.128500D+00  0.395389D+00
   s     1 1.00
  0.905900D+00  0.100000D+01
   s     1 1.00
  0.364300D+00  0.100000D+01
   p     5 1.00
  0.187100D+02  0.140310D-01
  0.413300D+01  0.868660D-01
  0.120000D+01  0.290216D+00
  0.382700D+00  0.501008D+00
  0.120900D+00  0.343406D+00
   p     1 1.00
  0.382700D+00  0.100000D+01
   p     1 1.00
  0.120900D+00  0.100000D+01
   d     1 1.00
  0.109700D+01  0.100000D+01
   d     1 1.00
  0.318000D+00  0.100000D+01
   f     1 1.00
  0.761000D+00  0.100000D+01
  
  3  0
   s    10 1.00
  0.823600D+04  0.531000D-03
  0.123500D+04  0.410800D-02
  0.280800D+03  0.210870D-01
  0.792700D+02  0.818530D-01
  0.255900D+02  0.234817D+00
  0.899700D+01  0.434401D+00
  0.331900D+01  0.346129D+00
  0.905900D+00  0.393780D-01
  0.364300D+00 -0.898300D-02
  0.128500D+00  0.238500D-02
   s    10 1.00
  0.823600D+04 -0.113000D-03
  0.123500D+04 -0.878000D-03
  0.280800D+03 -0.454000D-02
  0.792700D+02 -0.181330D-01
  0.255900D+02 -0.557600D-01
  0.899700D+01 -0.126895D+00
  0.331900D+01 -0.170352D+00
  0.905900D+00  0.140382D+00
  0.364300D+00  0.598684D+00
  0.128500D+00  0.395389D+00
   s     1 1.00
  0.905900D+00  0.100000D+01
   s     1 1.00
  0.364300D+00  0.100000D+01
   p     5 1.00
  0.187100D+02  0.140310D-01
  0.413300D+01  0.868660D-01
  0.120000D+01  0.290216D+00
  0.382700D+00  0.501008D+00
  0.120900D+00  0.343406D+00
   p     1 1.00
  0.382700D+00  0.100000D+01
   p     1 1.00
  0.120900D+00  0.100000D+01
   d     1 1.00
  0.109700D+01  0.100000D+01
   d     1 1.00
  0.318000D+00  0.100000D+01
   f     1 1.00
  0.761000D+00  0.100000D+01
  
  4  0
   s    10 1.00
  0.823600D+04  0.531000D-03
  0.123500D+04  0.410800D-02
  0.280800D+03  0.210870D-01
  0.792700D+02  0.818530D-01
  0.255900D+02  0.234817D+00
  0.899700D+01  0.434401D+00
  0.331900D+01  0.346129D+00
  0.905900D+00  0.393780D-01
  0.364300D+00 -0.898300D-02
  0.128500D+00  0.238500D-02
   s    10 1.00
  0.823600D+04 -0.113000D-03
  0.123500D+04 -0.878000D-03
  0.280800D+03 -0.454000D-02
  0.792700D+02 -0.181330D-01
  0.255900D+02 -0.557600D-01
  0.899700D+01 -0.126895D+00
  0.331900D+01 -0.170352D+00
  0.905900D+00  0.140382D+00
  0.364300D+00  0.598684D+00
  0.128500D+00  0.395389D+00
   s     1 1.00
  0.905900D+00  0.100000D+01
   s     1 1.00
  0.364300D+00  0.100000D+01
   p     5 1.00
  0.187100D+02  0.140310D-01
  0.413300D+01  0.868660D-01
  0.120000D+01  0.290216D+00
  0.382700D+00  0.501008D+00
  0.120900D+00  0.343406D+00
   p     1 1.00
  0.382700D+00  0.100000D+01
   p     1 1.00
  0.120900D+00  0.100000D+01
   d     1 1.00
  0.109700D+01  0.100000D+01
   d     1 1.00
  0.318000D+00  0.100000D+01
   f     1 1.00
  0.761000D+00  0.100000D+01
  
  5  0
   s    10 1.00
  0.823600D+04  0.531000D-03
  0.123500D+04  0.410800D-02
  0.280800D+03  0.210870D-01
  0.792700D+02  0.818530D-01
  0.255900D+02  0.234817D+00
  0.899700D+01  0.434401D+00
  0.331900D+01  0.346129D+00
  0.905900D+00  0.393780D-01
  0.364300D+00 -0.898300D-02
  0.128500D+00  0.238500D-02
   s    10 1.00
  0.823600D+04 -0.113000D-03
  0.123500D+04 -0.878000D-03
  0.280800D+03 -0.454000D-02
  0.792700D+02 -0.181330D-01
  0.255900D+02 -0.557600D-01
  0.899700D+01 -0.126895D+00
  0.331900D+01 -0.170352D+00
  0.905900D+00  0.140382D+00
  0.364300D+00  0.598684D+00
  0.128500D+00  0.395389D+00
   s     1 1.00
  0.905900D+00  0.100000D+01
   s     1 1.00
  0.364300D+00  0.100000D+01
   p     5 1.00
  0.187100D+02  0.140310D-01
  0.413300D+01  0.868660D-01
  0.120000D+01  0.290216D+00
  0.382700D+00  0.501008D+00
  0.120900D+00  0.343406D+00
   p     1 1.00
  0.382700D+00  0.100000D+01
   p     1 1.00
  0.120900D+00  0.100000D+01
   d     1 1.00
  0.109700D+01  0.100000D+01
   d     1 1.00
  0.318000D+00  0.100000D+01
   f     1 1.00
  0.761000D+00  0.100000D+01
  
  6  0
   s    10 1.00
  0.823600D+04  0.531000D-03
  0.123500D+04  0.410800D-02
  0.280800D+03  0.210870D-01
  0.792700D+02  0.818530D-01
  0.255900D+02  0.234817D+00
  0.899700D+01  0.434401D+00
  0.331900D+01  0.346129D+00
  0.905900D+00  0.393780D-01
  0.364300D+00 -0.898300D-02
  0.128500D+00  0.238500D-02
   s    10 1.00
  0.823600D+04 -0.113000D-03
  0.123500D+04 -0.878000D-03
  0.280800D+03 -0.454000D-02
  0.792700D+02 -0.181330D-01
  0.255900D+02 -0.557600D-01
  0.899700D+01 -0.126895D+00
  0.331900D+01 -0.170352D+00
  0.905900D+00  0.140382D+00
  0.364300D+00  0.598684D+00
  0.128500D+00  0.395389D+00
   s     1 1.00
  0.905900D+00  0.100000D+01
   s     1 1.00
  0.364300D+00  0.100000D+01
   p     5 1.00
  0.187100D+02  0.140310D-01
  0.413300D+01  0.868660D-01
  0.120000D+01  0.290216D+00
  0.382700D+00  0.501008D+00
  0.120900D+00  0.343406D+00
   p     1 1.00
  0.382700D+00  0.100000D+01
   p     1 1.00
  0.120900D+00  0.100000D+01
   d     1 1.00
  0.109700D+01  0.100000D+01
   d     1 1.00
  0.318000D+00  0.100000D+01
   f     1 1.00
  0.761000D+00  0.100000D+01
  
  7  0
   s    10 1.00
  0.823600D+04  0.531000D-03
  0.123500D+04  0.410800D-02
  0.280800D+03  0.210870D-01
  0.792700D+02  0.818530D-01
  0.255900D+02  0.234817D+00
  0.899700D+01  0.434401D+00
  0.331900D+01  0.346129D+00
  0.905900D+00  0.393780D-01
  0.364300D+00 -0.898300D-02
  0.128500D+00  0.238500D-02
   s    10 1.00
  0.823600D+04 -0.113000D-03
  0.123500D+04 -0.878000D-03
  0.280800D+03 -0.454000D-02
  0.792700D+02 -0.181330D-01
  0.255900D+02 -0.557600D-01
  0.899700D+01 -0.126895D+00
  0.331900D+01 -0.170352D+00
  0.905900D+00  0.140382D+00
  0.364300D+00  0.598684D+00
  0.128500D+00  0.395389D+00
   s     1 1.00
  0.905900D+00  0.100000D+01
   s     1 1.00
  0.364300D+00  0.100000D+01
   p     5 1.00
  0.187100D+02  0.140310D-01
  0.413300D+01  0.868660D-01
  0.120000D+01  0.290216D+00
  0.382700D+00  0.501008D+00
  0.120900D+00  0.343406D+00
   p     1 1.00
  0.382700D+00  0.100000D+01
   p     1 1.00
  0.120900D+00  0.100000D+01
   d     1 1.00
  0.109700D+01  0.100000D+01
   d     1 1.00
  0.318000D+00  0.100000D+01
   f     1 1.00
  0.761000D+00  0.100000D+01
  
  8  0
   s     4 1.00
  0.130100D+02  0.196850D-01
  0.196200D+01  0.137977D+00
  0.444600D+00  0.478148D+00
  0.122000D+00  0.501240D+00
   s     1 1.00
  0.122000D+00  0.100000D+01
   p     1 1.00
  0.727000D+00  0.100000D+01
  
  9  0
   s     4 1.00
  0.130100D+02  0.196850D-01
  0.196200D+01  0.137977D+00
  0.444600D+00  0.478148D+00
  0.122000D+00  0.501240D+00
   s     1 1.00
  0.122000D+00  0.100000D+01
   p     1 1.00
  0.727000D+00  0.100000D+01
  
 10  0
   s     4 1.00
  0.130100D+02  0.196850D-01
  0.196200D+01  0.137977D+00
  0.444600D+00  0.478148D+00
  0.122000D+00  0.501240D+00
   s     1 1.00
  0.122000D+00  0.100000D+01
   p     1 1.00
  0.727000D+00  0.100000D+01
  
 11  0
   s     4 1.00
  0.130100D+02  0.196850D-01
  0.196200D+01  0.137977D+00
  0.444600D+00  0.478148D+00
  0.122000D+00  0.501240D+00
   s     1 1.00
  0.122000D+00  0.100000D+01
   p     1 1.00
  0.727000D+00  0.100000D+01
  
 12  0
   s     4 1.00
  0.130100D+02  0.196850D-01
  0.196200D+01  0.137977D+00
  0.444600D+00  0.478148D+00
  0.122000D+00  0.501240D+00
   s     1 1.00
  0.122000D+00  0.100000D+01
   p     1 1.00
  0.727000D+00  0.100000D+01
  
 13  0
   s     4 1.00
  0.130100D+02  0.196850D-01
  0.196200D+01  0.137977D+00
  0.444600D+00  0.478148D+00
  0.122000D+00  0.501240D+00
   s     1 1.00
  0.122000D+00  0.100000D+01
   p     1 1.00
  0.727000D+00  0.100000D+01
  
 14  0
   s     4 1.00
  0.130100D+02  0.196850D-01
  0.196200D+01  0.137977D+00
  0.444600D+00  0.478148D+00
  0.122000D+00  0.501240D+00
   s     1 1.00
  0.122000D+00  0.100000D+01
   p     1 1.00
  0.727000D+00  0.100000D+01
  
[MO]
 Sym= __1_A__
 Ene=  0.000000000000000E+000
 Spin= Alpha
 Occup=    2.00000000000000     
                     1  1.804639636708112E-004
                     2  0.998129690678649     
                     3 -4.524075639871661E-003
                     4  1.967988513867897E-003
                     5  7.135847371440299E-003
                     6  6.955289496464141E-003
                     7 -3.680207372253961E-003
                     8  7.618169172380254E-003
                     9 -1.080356375620718E-003
                    10  3.358367976917079E-004
                    11 -8.807574353852903E-004
                    12 -2.289225596646261E-003
                    13  2.162680698713241E-003
                    14 -3.817179864769995E-003
                    15  4.143761494007444E-005
                    16 -6.856426553059545E-005
                    17 -3.652540941202975E-005
                    18  3.353733864518004E-005
                    19  1.146427611953513E-005
                    20 -4.622894743271561E-005
                    21  6.092703997564549E-004
                    22 -2.368901810939516E-004
                    23  2.338613111548910E-004
                    24 -2.988299568039530E-004
                    25  9.335655797385998E-006
                    26 -9.189847807905886E-005
                    27  5.891281004005306E-005
                    28  2.761668497986460E-005
                    29  6.539919707628295E-007
                    30 -8.261012842156560E-005
                    31 -7.876581893177955E-006
                    32 -3.153391317250065E-004
                    33  2.972507695673083E-004
                    34  2.727795193350859E-004
                    35 -2.467130645557471E-005
                    36 -2.317334284188596E-003
                    37 -6.157852003737459E-004
                    38 -3.923585364996279E-004
                    39  1.668084426620221E-004
                    40 -1.190656364066396E-004
                    41  1.041563166462732E-003
                    42  4.641807166211586E-003
                    43  6.301364498275078E-004
                    44 -3.546272260551988E-003
                    45 -1.381143405154391E-004
                    46  2.692208877658619E-006
                    47  1.486041092393206E-005
                    48  1.424569076675258E-004
                    49  3.206646306733695E-005
                    50  5.598260291294305E-004
                    51  8.093547907965010E-004
                    52 -9.777035600639635E-005
                    53 -1.978846102051099E-004
                    54 -2.649255769257256E-004
                    55  5.119599121715751E-005
                    56 -3.325225068044975E-005
                    57 -6.510464183068134E-006
                    58  5.792770356730048E-005
                    59 -1.941336945248928E-006
                    60 -3.792126933484003E-005
                    61  1.374230258117182E-006
                    62 -7.965440384698507E-004
                    63 -2.654734814478694E-003
                    64 -8.808928714757360E-005
                    65  2.892048412377369E-003
                    66 -1.915072722841186E-004
                    67 -2.931503459852555E-004
                    68 -3.253782792837819E-004
                    69  8.647187249797556E-004
                    70 -3.534243566570944E-005
                    71  7.265403533031575E-004
                    72  1.744071923187536E-003
                    73  9.507224108472518E-005
                    74 -1.546640921785038E-003
                    75 -4.324252318693140E-005
                    76 -4.777639119202197E-005
                    77 -2.579069864309146E-006
                    78  7.740928462605951E-005
                    79  8.179661112704451E-006
                    80  4.984917175388666E-004
                    81  1.479183407366536E-004
                    82 -9.601396367859451E-005
                    83 -6.952683766215520E-005
                    84  3.267465679532440E-006
                    85 -2.567948061280869E-005
                    86 -1.530107661361737E-004
                    87  1.484374683635047E-006
                    88  1.166106058389024E-005
                    89  2.157081840568869E-005
                    90 -7.438722606949600E-005
                    91 -7.841232643506047E-006
                    92  4.000500984114659E-005
                    93 -1.833226308377188E-004
                    94  3.269714899021534E-004
                    95 -1.332726999416266E-003
                    96  3.140557110875572E-004
                    97 -2.959622147537122E-004
                    98  2.219506612827437E-004
                    99  2.030856352903925E-004
                   100  2.982564971778114E-006
                   101  5.394159519989342E-004
                   102 -2.440253660640411E-003
                   103 -9.557224894782168E-005
                   104  1.963133358174037E-004
                   105 -4.984379696867020E-005
                   106 -9.061049546554685E-006
                   107  6.795087766820342E-006
                   108  2.956197759013474E-005
                   109  1.725359157877270E-006
                   110 -1.373013522825385E-004
                   111 -1.986760306726332E-004
                   112  3.552147260650236E-005
                   113 -2.423122781287728E-004
                   114  3.101130555301803E-005
                   115 -2.928819742495640E-005
                   116  5.538042219052961E-005
                   117  5.311227084795501E-006
                   118  1.507864653671920E-005
                   119 -1.221128897294382E-005
                   120 -3.770384454160667E-006
                   121 -6.803573054404464E-006
                   122 -3.278009036329163E-004
                   123 -9.973804664065074E-004
                   124  1.196738645590771E-004
                   125  9.546996874851971E-004
                   126 -1.997375543940276E-004
                   127 -4.787073698765741E-005
                   128 -5.443595041655721E-005
                   129  5.692355436913219E-004
                   130 -2.595511205843920E-005
                   131  3.040276470405805E-004
                   132  2.863053896772436E-003
                   133  2.496295992878244E-005
                   134  4.834364571513709E-004
                   135  3.846391521622845E-005
                   136 -3.753463525871198E-006
                   137 -4.413564368651378E-006
                   138 -2.221252420517154E-005
                   139  8.675498687158731E-006
                   140  2.599763651288524E-004
                   141  3.778167626543947E-004
                   142  2.915929955494527E-006
                   143 -4.048932502656608E-004
                   144 -2.934469143181742E-005
                   145 -3.779388252612695E-005
                   146 -2.773158119723957E-005
                   147 -5.112859180469988E-006
                   148 -1.368544011396554E-005
                   149 -4.957739549762148E-006
                   150 -9.024955842784710E-005
                   151  2.592255554739271E-007
                   152 -1.444357299195921E-004
                   153 -3.179724600950700E-004
                   154 -5.813747565316761E-005
                   155  5.792545164697238E-004
                   156 -2.103588028350271E-004
                   157 -2.187383870707076E-005
                   158 -5.418102832117335E-005
                   159 -2.667623255926783E-004
                   160 -3.133693834971044E-005
                   161  2.545892105055683E-004
                   162 -1.203756710064416E-003
                   163 -5.217367648992571E-005
                   164  9.172113165522162E-004
                   165 -2.359042829364242E-005
                   166  9.492546915484880E-006
                   167  1.298806198927674E-006
                   168  2.280202697387650E-005
                   169  6.269548267783289E-006
                   170 -8.796104588540086E-005
                   171  1.131462842077444E-005
                   172  1.379068828628939E-005
                   173  6.249012623719104E-005
                   174  7.595261275052776E-006
                   175 -1.394278325307010E-005
                   176 -1.619222437843553E-006
                   177 -1.169712518155928E-006
                   178 -9.345447534286329E-006
                   179 -3.381407288306119E-007
                   180  7.314855497250110E-006
                   181 -1.469307887265036E-006
                   182 -1.613279427857737E-004
                   183 -4.983074193123434E-004
                   184  4.021149305602230E-005
                   185  2.134717718215423E-004
                   186 -2.561265240673414E-005
                   187  6.388047680469493E-005
                   188 -8.848589503225547E-005
                   189  9.534151521048810E-005
                   190 -2.657033969999624E-005
                   191  4.311541877041589E-004
                   192 -4.676745539530202E-004
                   193 -1.917060898637818E-004
                   194  2.234387940905443E-003
                   195 -3.124824942699400E-006
                   196  5.544934306521939E-006
                   197  6.412480529915423E-007
                   198 -2.932708872283116E-007
                   199  1.586673978162986E-007
                   200 -1.323988565403940E-004
                   201 -3.467602807672193E-004
                   202  1.635621875128563E-005
                   203  6.356430467389840E-005
                   204  3.114411595540501E-005
                   205  3.076091793599150E-006
                   206  4.790310339029500E-006
                   207 -1.543079947458093E-006
                   208  2.522033691125852E-005
                   209 -2.101432600463517E-006
                   210 -4.257107891717089E-006
                   211 -2.904496343568752E-006
                   212  2.276286824828528E-005
                   213 -8.214659611784636E-004
                   214  1.066533606615141E-004
                   215  2.532325436556842E-004
                   216 -4.463972321034180E-005
                   217  1.144435106507330E-003
                   218 -1.263606365814103E-003
                   219  1.420630053674261E-004
                   220 -4.943812900214394E-005
                   221 -3.349193298407211E-004
                   222 -3.445454408440200E-004
                   223 -2.675483714122759E-004
                   224 -1.043258656229836E-004
                   225 -4.488502718337489E-006
                   226  5.233665422473280E-005
                   227 -1.689749334272607E-004
                   228 -5.972872409351915E-004
                   229 -2.336657830326898E-005
                   230  9.657706396703946E-006
                   231 -5.685421800295137E-005
                   232  1.208611540860585E-004
                   233 -7.284053719993222E-004
                   234 -2.322222511632375E-006
                   235 -1.483013371214712E-006
                   236  1.023233044877056E-005
                   237 -1.164376580802013E-004
                   238 -2.243836705721645E-004
                   239  1.923813073873113E-005
                   240 -2.851569914978861E-006
                   241  2.435199203749468E-005
                   242 -4.382056348912372E-005
                   243  1.325295466074204E-004
                   244  3.137354216823737E-005
                   245  2.917636334105055E-006
                   246  1.826398770213153E-006
 Sym= __2_A__
 Ene=  0.000000000000000E+000
 Spin= Alpha
 Occup=    2.00000000000000     
                     1  1.814723015462924E-006
                     2 -9.562909907307994E-005
                     3  1.008558257411557E-003
                     4 -2.046598029294378E-005
                     5  1.189706686765910E-003
                     6  1.358112985714248E-003
                     7 -1.780646869568093E-004
                     8 -1.797548531976786E-005
                     9 -1.559702129922028E-004
                    10  1.020156232461951E-004
                    11 -5.936838904888888E-005
                    12  1.973204011386999E-004
                    13  1.472618626632996E-004
                    14 -3.262221631870960E-005
                    15 -5.451279223492628E-005
                    16  2.010343285662757E-005
                    17 -3.989130765926234E-006
                    18  4.748689887157022E-005
                    19 -4.186093484773312E-007
                    20  6.806057850918672E-005
                    21 -6.428096547591464E-005
                    22  1.758420812946644E-005
                    23  1.189403779739498E-004
                    24 -5.224409341195686E-005
                    25 -4.882643404573043E-005
                    26  1.251720768894712E-004
                    27  1.942429317377119E-005
                    28 -3.747274987954870E-005
                    29 -1.103978314792762E-005
                    30  1.197556349431857E-004
                    31  2.709487509617174E-005
                    32   1.00086125809264     
                    33  8.567346909633270E-003
                    34  2.856545470805452E-003
                    35 -8.421465080251990E-003
                    36 -1.695456326249408E-003
                    37  2.184705830817373E-004
                    38  1.180728127890757E-004
                    39  9.710931311401056E-004
                    40 -9.294620935478192E-005
                    41 -2.890948451966271E-004
                    42  2.691873815182773E-003
                    43 -1.000602382370302E-004
                    44  3.511364716630968E-005
                    45  3.126735282042600E-004
                    46  9.181452574963754E-006
                    47 -6.783833241660436E-005
                    48  3.376542923164508E-004
                    49  2.100447564532596E-006
                    50 -9.736388079162161E-004
                    51 -2.687378143120158E-004
                    52  1.703751285784828E-004
                    53 -1.589805549879453E-004
                    54  1.636428570377457E-005
                    55 -1.734355282225812E-005
                    56  2.643794294913105E-004
                    57 -7.479069547336370E-006
                    58 -2.746759491514826E-005
                    59 -2.613715338505550E-005
                    60  6.719464743696180E-005
                    61  7.898400069617418E-006
                    62  1.563042976316186E-002
                    63 -1.612501756887287E-003
                    64 -2.872965784519157E-004
                    65  2.844604041715595E-003
                    66 -2.425162285970240E-004
                    67 -1.791159675426854E-005
                    68  3.783859130231968E-004
                    69  3.519972241033855E-005
                    70 -3.532770822377726E-005
                    71  3.351070463781791E-004
                    72  3.506501505248127E-004
                    73  2.018237960015402E-004
                    74 -1.741800667282958E-003
                    75  3.875466343777115E-006
                    76  2.511180516431316E-005
                    77  2.801503980846057E-006
                    78 -4.405926323967018E-005
                    79 -2.372211545115667E-006
                    80 -4.950239012856077E-004
                    81 -3.806241911084642E-004
                    82  2.249570573011369E-005
                    83  7.992684388578378E-004
                    84  3.429422738266683E-005
                    85  3.726549505018091E-005
                    86  1.050409357394641E-004
                    87  1.728557238927212E-005
                    88 -2.481992713103596E-005
                    89 -2.226229747193052E-005
                    90 -2.537108966757948E-005
                    91  3.216306484263842E-006
                    92  1.786054242272456E-002
                    93 -1.652285196140304E-003
                    94 -3.363967408633961E-004
                    95  3.303968355952932E-003
                    96 -2.633025300665095E-004
                    97  4.533481171800270E-005
                    98 -3.604977200324219E-004
                    99 -8.596202623024499E-005
                   100  7.152119344429561E-005
                   101 -7.180711319871675E-004
                   102  2.259891204461935E-004
                   103 -1.191308921255365E-004
                   104  1.587600518958385E-003
                   105  8.553742686010812E-006
                   106 -6.937958692503605E-006
                   107  1.711568533282222E-006
                   108 -2.790653870552156E-005
                   109 -6.936264190757435E-007
                   110 -2.355921121191639E-004
                   111  4.890678594452716E-004
                   112 -3.680757867444629E-005
                   113  6.417827396429476E-004
                   114 -4.122339417253088E-005
                   115 -4.827368037016419E-005
                   116  8.977899105358840E-005
                   117 -9.186454805377397E-006
                   118  2.004988996297060E-005
                   119 -1.079600891779700E-005
                   120 -3.079859604927610E-005
                   121 -4.879395971793987E-007
                   122 -8.287252631073435E-005
                   123 -7.573802595087195E-004
                   124  2.424327977889209E-004
                   125 -3.368994416930381E-004
                   126 -1.214168186179111E-004
                   127  6.687997046357338E-006
                   128 -5.422337910780977E-005
                   129  6.177038651499089E-004
                   130 -7.167210608219578E-006
                   131  6.773748500757239E-005
                   132  5.116519243722958E-004
                   133 -4.603570053279286E-005
                   134  4.059526740188693E-004
                   135  1.234476012693488E-006
                   136  3.748518271882787E-005
                   137  3.105160277069705E-006
                   138 -3.729294265075000E-005
                   139 -4.451876332774589E-006
                   140  1.924597622912867E-004
                   141 -2.753104570649528E-004
                   142 -1.017748982912331E-005
                   143 -2.343047137519062E-004
                   144  2.572834916209527E-005
                   145 -1.203127382743283E-005
                   146  1.267826064136672E-005
                   147 -2.310277073508153E-006
                   148 -5.148953990037440E-006
                   149 -3.719234206619552E-006
                   150 -2.055120547410260E-005
                   151  1.347675774441140E-006
                   152 -2.369545416634432E-005
                   153 -7.794936250068991E-004
                   154  2.371937349873034E-004
                   155 -2.046480303461050E-004
                   156 -1.008497843369399E-004
                   157 -1.053253636262810E-005
                   158  3.628376348579639E-005
                   159  5.049782987676807E-004
                   160  1.009355327275612E-005