[Molden Format]
[Atoms] AU
  N     1    7    -4.4767208000    0.1045494800   -0.2138294300        
  C     2    6    -1.7670706800   -0.0298855000   -0.0952771300        
  C     3    6    -0.3859437300    0.0926647900   -2.3367970500        
  C     4    6    -0.4691960000   -0.1176598800    2.1916293300        
  C     5    6     2.2250302000    0.0770696700   -2.2794446500        
  C     6    6     2.1509877400   -0.0826550700    2.2324138600        
  C     7    6     3.5085872600    0.0022118400    0.0033093800        
  H     8    1    -5.1772656300   -1.5465849800   -0.9584157500        
  H     9    1    -5.1565153200    0.1818989700    1.6018839500        
  H    10    1    -1.3703549900    0.2136872800   -4.1042062000        
  H    11    1    -1.5027727200   -0.2257846200    3.9337648400        
  H    12    1     3.2639439600    0.1576456600   -4.0204597000        
  H    13    1     3.1227698800   -0.1430848100    4.0127919900        
  H    14    1     5.5365942200    0.0139503000    0.0377459600        
[5D]
[7F]
[GTO]
  1  0
   s    12 1.00
  0.114200D+05  0.172695D-04
  0.171200D+04  0.134411D-03
  0.389300D+03  0.694561D-03
  0.110000D+03  0.278531D-02
  0.355700D+02  0.863457D-02
  0.125400D+02  0.199805D-01
  0.464400D+01  0.262908D-01
  0.129300D+01 -0.243845D-01
  0.511800D+00 -0.924934D-01
  0.178700D+00 -0.339683D+00
  0.246240D-01  0.345111D+00
  0.112530D-01  0.752750D+00
   s    10 1.00
  0.114200D+05  0.523000D-03
  0.171200D+04  0.404500D-02
  0.389300D+03  0.207750D-01
  0.110000D+03  0.807269D-01
  0.355700D+02  0.233074D+00
  0.125400D+02  0.433501D+00
  0.464400D+01  0.347472D+00
  0.129300D+01  0.412620D-01
  0.511800D+00 -0.850799D-02
  0.178700D+00  0.238400D-02
   s    10 1.00
  0.114200D+05 -0.115000D-03
  0.171200D+04 -0.895000D-03
  0.389300D+03 -0.462400D-02
  0.110000D+03 -0.185280D-01
  0.355700D+02 -0.573390D-01
  0.125400D+02 -0.132076D+00
  0.464400D+01 -0.172510D+00
  0.129300D+01  0.151814D+00
  0.511800D+00  0.599944D+00
  0.178700D+00  0.387462D+00
   s     1 1.00
  0.129300D+01  0.100000D+01
   s     1 1.00
  0.178700D+00  0.100000D+01
   p     5 1.00
  0.266300D+02  0.146700D-01
  0.594800D+01  0.917640D-01
  0.174200D+01  0.298683D+00
  0.555000D+00  0.498487D+00
  0.172500D+00  0.337023D+00
   p     1 1.00
  0.174200D+01  0.100000D+01
   p     1 1.00
  0.555000D+00  0.100000D+01
   d     1 1.00
  0.165400D+01  0.100000D+01
   d     1 1.00
  0.469000D+00  0.100000D+01
   f     1 1.00
  0.109300D+01  0.100000D+01
  
  2  0
   s    10 1.00
  0.823600D+04  0.531000D-03
  0.123500D+04  0.410800D-02
  0.280800D+03  0.210870D-01
  0.792700D+02  0.818530D-01
  0.255900D+02  0.234817D+00
  0.899700D+01  0.434401D+00
  0.331900D+01  0.346129D+00
  0.905900D+00  0.393780D-01
  0.364300D+00 -0.898300D-02
  0.128500D+00  0.238500D-02
   s    10 1.00
  0.823600D+04 -0.113000D-03
  0.123500D+04 -0.878000D-03
  0.280800D+03 -0.454000D-02
  0.792700D+02 -0.181330D-01
  0.255900D+02 -0.557600D-01
  0.899700D+01 -0.126895D+00
  0.331900D+01 -0.170352D+00
  0.905900D+00  0.140382D+00
  0.364300D+00  0.598684D+00
  0.128500D+00  0.395389D+00
   s     1 1.00
  0.905900D+00  0.100000D+01
   s     1 1.00
  0.364300D+00  0.100000D+01
   p     5 1.00
  0.187100D+02  0.140310D-01
  0.413300D+01  0.868660D-01
  0.120000D+01  0.290216D+00
  0.382700D+00  0.501008D+00
  0.120900D+00  0.343406D+00
   p     1 1.00
  0.382700D+00  0.100000D+01
   p     1 1.00
  0.120900D+00  0.100000D+01
   d     1 1.00
  0.109700D+01  0.100000D+01
   d     1 1.00
  0.318000D+00  0.100000D+01
   f     1 1.00
  0.761000D+00  0.100000D+01
  
  3  0
   s    10 1.00
  0.823600D+04  0.531000D-03
  0.123500D+04  0.410800D-02
  0.280800D+03  0.210870D-01
  0.792700D+02  0.818530D-01
  0.255900D+02  0.234817D+00
  0.899700D+01  0.434401D+00
  0.331900D+01  0.346129D+00
  0.905900D+00  0.393780D-01
  0.364300D+00 -0.898300D-02
  0.128500D+00  0.238500D-02
   s    10 1.00
  0.823600D+04 -0.113000D-03
  0.123500D+04 -0.878000D-03
  0.280800D+03 -0.454000D-02
  0.792700D+02 -0.181330D-01
  0.255900D+02 -0.557600D-01
  0.899700D+01 -0.126895D+00
  0.331900D+01 -0.170352D+00
  0.905900D+00  0.140382D+00
  0.364300D+00  0.598684D+00
  0.128500D+00  0.395389D+00
   s     1 1.00
  0.905900D+00  0.100000D+01
   s     1 1.00
  0.364300D+00  0.100000D+01
   p     5 1.00
  0.187100D+02  0.140310D-01
  0.413300D+01  0.868660D-01
  0.120000D+01  0.290216D+00
  0.382700D+00  0.501008D+00
  0.120900D+00  0.343406D+00
   p     1 1.00
  0.382700D+00  0.100000D+01
   p     1 1.00
  0.120900D+00  0.100000D+01
   d     1 1.00
  0.109700D+01  0.100000D+01
   d     1 1.00
  0.318000D+00  0.100000D+01
   f     1 1.00
  0.761000D+00  0.100000D+01
  
  4  0
   s    10 1.00
  0.823600D+04  0.531000D-03
  0.123500D+04  0.410800D-02
  0.280800D+03  0.210870D-01
  0.792700D+02  0.818530D-01
  0.255900D+02  0.234817D+00
  0.899700D+01  0.434401D+00
  0.331900D+01  0.346129D+00
  0.905900D+00  0.393780D-01
  0.364300D+00 -0.898300D-02
  0.128500D+00  0.238500D-02
   s    10 1.00
  0.823600D+04 -0.113000D-03
  0.123500D+04 -0.878000D-03
  0.280800D+03 -0.454000D-02
  0.792700D+02 -0.181330D-01
  0.255900D+02 -0.557600D-01
  0.899700D+01 -0.126895D+00
  0.331900D+01 -0.170352D+00
  0.905900D+00  0.140382D+00
  0.364300D+00  0.598684D+00
  0.128500D+00  0.395389D+00
   s     1 1.00
  0.905900D+00  0.100000D+01
   s     1 1.00
  0.364300D+00  0.100000D+01
   p     5 1.00
  0.187100D+02  0.140310D-01
  0.413300D+01  0.868660D-01
  0.120000D+01  0.290216D+00
  0.382700D+00  0.501008D+00
  0.120900D+00  0.343406D+00
   p     1 1.00
  0.382700D+00  0.100000D+01
   p     1 1.00
  0.120900D+00  0.100000D+01
   d     1 1.00
  0.109700D+01  0.100000D+01
   d     1 1.00
  0.318000D+00  0.100000D+01
   f     1 1.00
  0.761000D+00  0.100000D+01
  
  5  0
   s    10 1.00
  0.823600D+04  0.531000D-03
  0.123500D+04  0.410800D-02
  0.280800D+03  0.210870D-01
  0.792700D+02  0.818530D-01
  0.255900D+02  0.234817D+00
  0.899700D+01  0.434401D+00
  0.331900D+01  0.346129D+00
  0.905900D+00  0.393780D-01
  0.364300D+00 -0.898300D-02
  0.128500D+00  0.238500D-02
   s    10 1.00
  0.823600D+04 -0.113000D-03
  0.123500D+04 -0.878000D-03
  0.280800D+03 -0.454000D-02
  0.792700D+02 -0.181330D-01
  0.255900D+02 -0.557600D-01
  0.899700D+01 -0.126895D+00
  0.331900D+01 -0.170352D+00
  0.905900D+00  0.140382D+00
  0.364300D+00  0.598684D+00
  0.128500D+00  0.395389D+00
   s     1 1.00
  0.905900D+00  0.100000D+01
   s     1 1.00
  0.364300D+00  0.100000D+01
   p     5 1.00
  0.187100D+02  0.140310D-01
  0.413300D+01  0.868660D-01
  0.120000D+01  0.290216D+00
  0.382700D+00  0.501008D+00
  0.120900D+00  0.343406D+00
   p     1 1.00
  0.382700D+00  0.100000D+01
   p     1 1.00
  0.120900D+00  0.100000D+01
   d     1 1.00
  0.109700D+01  0.100000D+01
   d     1 1.00
  0.318000D+00  0.100000D+01
   f     1 1.00
  0.761000D+00  0.100000D+01
  
  6  0
   s    10 1.00
  0.823600D+04  0.531000D-03
  0.123500D+04  0.410800D-02
  0.280800D+03  0.210870D-01
  0.792700D+02  0.818530D-01
  0.255900D+02  0.234817D+00
  0.899700D+01  0.434401D+00
  0.331900D+01  0.346129D+00
  0.905900D+00  0.393780D-01
  0.364300D+00 -0.898300D-02
  0.128500D+00  0.238500D-02
   s    10 1.00
  0.823600D+04 -0.113000D-03
  0.123500D+04 -0.878000D-03
  0.280800D+03 -0.454000D-02
  0.792700D+02 -0.181330D-01
  0.255900D+02 -0.557600D-01
  0.899700D+01 -0.126895D+00
  0.331900D+01 -0.170352D+00
  0.905900D+00  0.140382D+00
  0.364300D+00  0.598684D+00
  0.128500D+00  0.395389D+00
   s     1 1.00
  0.905900D+00  0.100000D+01
   s     1 1.00
  0.364300D+00  0.100000D+01
   p     5 1.00
  0.187100D+02  0.140310D-01
  0.413300D+01  0.868660D-01
  0.120000D+01  0.290216D+00
  0.382700D+00  0.501008D+00
  0.120900D+00  0.343406D+00
   p     1 1.00
  0.382700D+00  0.100000D+01
   p     1 1.00
  0.120900D+00  0.100000D+01
   d     1 1.00
  0.109700D+01  0.100000D+01
   d     1 1.00
  0.318000D+00  0.100000D+01
   f     1 1.00
  0.761000D+00  0.100000D+01
  
  7  0
   s    10 1.00
  0.823600D+04  0.531000D-03
  0.123500D+04  0.410800D-02
  0.280800D+03  0.210870D-01
  0.792700D+02  0.818530D-01
  0.255900D+02  0.234817D+00
  0.899700D+01  0.434401D+00
  0.331900D+01  0.346129D+00
  0.905900D+00  0.393780D-01
  0.364300D+00 -0.898300D-02
  0.128500D+00  0.238500D-02
   s    10 1.00
  0.823600D+04 -0.113000D-03
  0.123500D+04 -0.878000D-03
  0.280800D+03 -0.454000D-02
  0.792700D+02 -0.181330D-01
  0.255900D+02 -0.557600D-01
  0.899700D+01 -0.126895D+00
  0.331900D+01 -0.170352D+00
  0.905900D+00  0.140382D+00
  0.364300D+00  0.598684D+00
  0.128500D+00  0.395389D+00
   s     1 1.00
  0.905900D+00  0.100000D+01
   s     1 1.00
  0.364300D+00  0.100000D+01
   p     5 1.00
  0.187100D+02  0.140310D-01
  0.413300D+01  0.868660D-01
  0.120000D+01  0.290216D+00
  0.382700D+00  0.501008D+00
  0.120900D+00  0.343406D+00
   p     1 1.00
  0.382700D+00  0.100000D+01
   p     1 1.00
  0.120900D+00  0.100000D+01
   d     1 1.00
  0.109700D+01  0.100000D+01
   d     1 1.00
  0.318000D+00  0.100000D+01
   f     1 1.00
  0.761000D+00  0.100000D+01
  
  8  0
   s     4 1.00
  0.130100D+02  0.196850D-01
  0.196200D+01  0.137977D+00
  0.444600D+00  0.478148D+00
  0.122000D+00  0.501240D+00
   s     1 1.00
  0.122000D+00  0.100000D+01
   p     1 1.00
  0.727000D+00  0.100000D+01
  
  9  0
   s     4 1.00
  0.130100D+02  0.196850D-01
  0.196200D+01  0.137977D+00
  0.444600D+00  0.478148D+00
  0.122000D+00  0.501240D+00
   s     1 1.00
  0.122000D+00  0.100000D+01
   p     1 1.00
  0.727000D+00  0.100000D+01
  
 10  0
   s     4 1.00
  0.130100D+02  0.196850D-01
  0.196200D+01  0.137977D+00
  0.444600D+00  0.478148D+00
  0.122000D+00  0.501240D+00
   s     1 1.00
  0.122000D+00  0.100000D+01
   p     1 1.00
  0.727000D+00  0.100000D+01
  
 11  0
   s     4 1.00
  0.130100D+02  0.196850D-01
  0.196200D+01  0.137977D+00
  0.444600D+00  0.478148D+00
  0.122000D+00  0.501240D+00
   s     1 1.00
  0.122000D+00  0.100000D+01
   p     1 1.00
  0.727000D+00  0.100000D+01
  
 12  0
   s     4 1.00
  0.130100D+02  0.196850D-01
  0.196200D+01  0.137977D+00
  0.444600D+00  0.478148D+00
  0.122000D+00  0.501240D+00
   s     1 1.00
  0.122000D+00  0.100000D+01
   p     1 1.00
  0.727000D+00  0.100000D+01
  
 13  0
   s     4 1.00
  0.130100D+02  0.196850D-01
  0.196200D+01  0.137977D+00
  0.444600D+00  0.478148D+00
  0.122000D+00  0.501240D+00
   s     1 1.00
  0.122000D+00  0.100000D+01
   p     1 1.00
  0.727000D+00  0.100000D+01
  
 14  0
   s     4 1.00
  0.130100D+02  0.196850D-01
  0.196200D+01  0.137977D+00
  0.444600D+00  0.478148D+00
  0.122000D+00  0.501240D+00
   s     1 1.00
  0.122000D+00  0.100000D+01
   p     1 1.00
  0.727000D+00  0.100000D+01
  
[MO]
 Sym= __1_A__
 Ene=  0.000000000000000E+000
 Spin= Alpha
 Occup=    2.00000000000000     
                     1  2.316580706698451E-004
                     2  0.998091137864708     
                     3  1.380481959402614E-003
                     4  1.933799195694518E-003
                     5  6.244772210818329E-003
                     6  5.846477750034427E-003
                     7 -4.274985034834052E-003
                     8  3.923469228910102E-003
                     9 -8.750785393340571E-004
                    10  2.976296812770894E-004
                    11 -4.649280334732928E-004
                    12 -1.699423277113997E-003
                    13  2.796611195605473E-003
                    14 -2.298193570731508E-003
                    15 -2.077385012380151E-006
                    16 -5.657117916474636E-005
                    17 -1.641826221475421E-005
                    18  4.922795416497450E-005
                    19  4.670770161474349E-005
                    20 -2.567267153983376E-004
                    21  4.200052853301014E-004
                    22 -1.973516506097719E-004
                    23  1.233274446122497E-004
                    24 -3.999545071888555E-004
                    25 -4.547756234668076E-005
                    26 -1.123017025343465E-004
                    27  2.558155412846255E-005
                    28  6.169898201655627E-005
                    29 -1.830726110086570E-005
                    30 -1.040254120819892E-004
                    31 -2.038570103014589E-005
                    32 -3.519448289062491E-004
                    33  6.901319921208738E-004
                    34  2.503552283059632E-004
                    35 -7.673558977352386E-005
                    36 -3.634129563260404E-003
                    37 -1.704242464589921E-004
                    38 -2.151795329632543E-004
                    39  2.066237950082173E-004
                    40 -5.107180697944845E-005
                    41  6.818228374750062E-004
                    42  4.785215354064503E-003
                    43  7.541448153224440E-004
                    44 -2.899547761309564E-003
                    45 -1.933924060782915E-004
                    46  2.680528691608735E-005
                    47  9.806572968316778E-006
                    48  1.870533425243645E-004
                    49  4.468367667364997E-005
                    50  5.179521951865281E-004
                    51  5.341338725470562E-004
                    52 -6.643600691911514E-005
                    53 -1.096805478936869E-004
                    54 -3.319610094635452E-004
                    55  3.289688806264787E-005
                    56 -4.902223010664800E-005
                    57  5.881941468404929E-007
                    58  2.998125816661428E-005
                    59  2.332018956457036E-006
                    60 -3.395996138335328E-005
                    61  2.514024669167903E-005
                    62 -6.464259127534366E-004
                    63 -2.578198831558731E-003
                    64 -2.228577335286324E-005
                    65  2.191489534444046E-003
                    66  3.043070516669179E-004
                    67 -1.289079874446615E-004
                    68 -5.660090678657464E-004
                    69  8.466324008825454E-004
                    70  4.229888560615017E-005
                    71  5.060802734190315E-004
                    72  1.337779532884679E-003
                    73 -1.845633926661066E-004
                    74 -1.436536159650988E-003
                    75 -6.628840682242579E-005
                    76 -2.967243500516469E-005
                    77  1.510325212198991E-005
                    78  7.740697390115106E-005
                    79 -3.416507943913082E-006
                    80  3.792325133913810E-004
                    81  1.920438306343052E-004
                    82 -5.435145150739941E-005
                    83 -5.566961516828706E-005
                    84  1.790043097900906E-005
                    85 -2.004717136286677E-005
                    86 -1.242208838932866E-004
                    87  1.663517336278936E-005
                    88  3.888142203597420E-006
                    89  1.364032482597046E-005
                    90 -6.875921615248808E-005
                    91 -1.018045297391338E-005
                    92 -7.924305415491012E-005
                    93 -7.324686680510001E-004
                    94  2.377740968883951E-004
                    95 -5.886017382451442E-004
                    96  4.997715684851451E-004
                    97 -1.382727925501082E-004
                    98  3.918382555028468E-004
                    99  3.017147167137300E-004
                   100  6.901878978075377E-005
                   101  3.071148423582478E-004
                   102 -2.145921138718115E-003
                   103 -2.594206056539334E-004
                   104  1.842900960330933E-004
                   105 -6.281275650255477E-005
                   106  5.287849100990593E-007
                   107 -8.854894368351238E-006
                   108  4.108341129271632E-005
                   109 -7.515731801119116E-006
                   110 -1.899269126722782E-005
                   111 -2.041497659382450E-004
                   112  9.920746028863124E-006
                   113 -2.205337890629226E-004
                   114  5.091113465430236E-005
                   115 -1.419963969197769E-005
                   116  2.044252767181679E-005
                   117  1.694009808432829E-005
                   118  1.821180664002989E-005
                   119 -1.013752197537312E-005
                   120 -1.820472508974584E-005
                   121 -6.189380779565394E-006
                   122 -2.889114019636028E-004
                   123 -7.055124923117762E-004
                   124  1.036520325973823E-004
                   125  8.200385610134862E-004
                   126 -4.643915805006727E-004
                   127 -5.081847152909326E-005
                   128 -2.265530179348601E-005
                   129  5.257695259348020E-004
                   130 -2.006935518688572E-005
                   131  2.379304459076976E-004
                   132  2.572652044686781E-003
                   133  1.054958455581752E-004
                   134  3.973991182877895E-004
                   135  2.651628969269604E-005
                   136  9.342186261846881E-007
                   137 -4.195153887343650E-006
                   138 -1.436734958010051E-005
                   139  8.928116383500698E-006
                   140  2.322487536217057E-004
                   141  3.426579486398065E-004
                   142  6.927787512433417E-006
                   143 -3.552785348918422E-004
                   144 -2.558400316887335E-005
                   145 -3.276783864284775E-005
                   146 -2.146632970844086E-005
                   147 -8.013332617122482E-007
                   148 -1.194690910377273E-005
                   149 -3.685902439925813E-006
                   150 -7.703660504280571E-005
                   151 -6.532224206986706E-007
                   152 -1.378646443052754E-004
                   153 -2.122281648701559E-004
                   154 -1.597468231406515E-005
                   155  4.772519739667694E-004
                   156 -3.838648345213449E-004
                   157 -4.081533939969365E-005
                   158 -5.783815914402154E-005
                   159 -1.357135118733443E-004
                   160 -3.230740658260844E-005
                   161  2.161398349471644E-004
                   162 -8.855558930385924E-004
                   163  4.948446277616304E-005
                   164  8.772204471415995E-004
                   165 -1.570049118941009E-005
                   166  7.425293953317074E-006
                   167  2.561039259237352E-006
                   168  1.454265611070683E-005
                   169  6.105959981020900E-006
                   170 -7.028355389733985E-005
                   171 -4.665992594157206E-005
                   172  5.437711614201266E-006
                   173  3.640683727094226E-006
                   174  5.934922620746994E-006
                   175 -9.167367340339755E-006
                   176 -7.160304188000833E-006
                   177  1.637774859840671E-006
                   178 -4.573156483352278E-006
                   179  1.877229298821061E-007
                   180 -8.938931260295586E-006
                   181 -3.697074069690790E-006
                   182 -1.466789768937481E-004
                   183 -4.547389709214751E-004
                   184  3.432170709705663E-005
                   185  1.873579787351990E-004
                   186 -1.837377367962408E-005
                   187 -2.618588763792800E-005
                   188 -7.836530063510638E-005
                   189  8.990879434021227E-005
                   190  4.271931413593504E-006
                   191  3.473499015072658E-004
                   192 -4.116060892732795E-004
                   193 -1.298533103101228E-004
                   194  1.896820603319562E-003
                   195 -7.696046488899411E-006
                   196  3.565486390267572E-006
                   197  9.386690691415368E-008
                   198  2.521038555343598E-006
                   199 -7.114433624219099E-007
                   200 -1.280221389499353E-004
                   201 -2.847794072250682E-004
                   202  5.874528310596852E-006
                   203  6.627789250354382E-005
                   204  2.002402798659981E-005
                   205  3.333139589420794E-006
                   206  2.521497404699075E-006
                   207  1.063142179633168E-006
                   208  2.238615169994630E-005
                   209 -1.137467386158764E-006
                   210 -4.880165112249870E-006
                   211 -2.523910909844737E-006
                   212  1.665608241949961E-003
                   213 -1.668228047953460E-003
                   214  1.264010076859287E-004
                   215  3.756845441185831E-004
                   216  9.403939688504172E-005
                   217  2.297550182364267E-003
                   218 -1.962666496516609E-003
                   219  1.723224625297222E-004
                   220  5.662418267550678E-005
                   221 -4.593498968136102E-004
                   222 -4.840600492359246E-004
                   223 -2.333030454523029E-004
                   224 -9.005834203707535E-005
                   225  6.020778790851500E-006
                   226  3.795743808984037E-005
                   227 -3.353301860402301E-004
                   228 -4.640299945638999E-004
                   229 -3.464744827606828E-005
                   230  1.376806091933897E-005
                   231 -4.824091166617235E-005
                   232 -2.042019110043544E-005
                   233 -6.693935233138439E-004
                   234 -1.036720040053458E-006
                   235 -1.157917642192067E-006
                   236  7.329441578090795E-007
                   237 -1.290352735995787E-004
                   238 -2.852245687601477E-004
                   239  1.675923827806908E-005
                   240 -3.083169501332382E-006
                   241  1.965180625981181E-005
                   242 -5.187833390968567E-006
                   243  1.187489426856950E-004
                   244  3.023296964797897E-005
                   245  1.833541798247679E-006
                   246  1.693160774279540E-006
 Sym= __2_A__
 Ene=  0.000000000000000E+000
 Spin= Alpha
 Occup=    2.00000000000000     
                     1 -7.483659684683339E-006
                     2 -8.638014947339905E-005
                     3  1.714776098518144E-003
                     4 -2.009470497684245E-005
                     5  1.203112610930892E-003
                     6  1.692727108222453E-003
                     7  7.010412291965371E-005
                     8 -2.071484007233615E-004
                     9 -1.553420530205545E-004
                    10  1.032621143003894E-004
                    11 -2.871623376934563E-005
                    12  1.281346644347111E-004
                    13  1.251613373023648E-004
                    14  5.160825807963274E-005
                    15 -6.429320157355586E-005
                    16  1.510279946360437E-005
                    17 -8.644146805419194E-006
                    18  4.476002650885298E-005
                    19 -7.981566874675328E-007
                    20  1.308884503042216E-004
                    21 -7.035971357834199E-005
                    22  3.435023351582081E-005
                    23  1.186089544425441E-004
                    24 -6.135552941412290E-005
                    25 -6.101647226100870E-005
                    26  1.301999716419413E-004
                    27 -7.594450340021188E-006
                    28 -1.097015887635970E-005
                    29 -2.195413265614541E-006
                    30  1.267016016615956E-004
                    31  3.348888729313394E-005
                    32   1.00092767060206     
                    33  8.724181530267177E-003
                    34  2.819181215854303E-003
                    35 -8.326442135223690E-003
                    36 -2.274249737293297E-003
                    37  5.117698274952783E-004
                    38  3.816484709517110E-005
                    39  1.079766981993912E-003
                    40 -1.863751502029059E-004
                    41 -1.418767869405553E-004
                    42  3.123338431438320E-003
                    43 -1.050011427984827E-004
                    44 -1.806299756489426E-004
                    45  3.040870403162921E-004
                    46  1.902386678802252E-005
                    47 -2.506369057673375E-005
                    48  3.818108492432262E-004
                    49 -8.833755080469931E-006
                    50 -1.011991740213917E-003
                    51 -1.807914730776905E-004
                    52  9.213209949770598E-005
                    53 -1.418011040056018E-004
                    54  1.562701236659005E-005
                    55 -1.251814673204958E-005
                    56  2.898489485940195E-004
                    57 -8.762584368195960E-006
                    58 -1.887159839031761E-005
                    59 -7.796002643676476E-006
                    60  7.372668843950510E-005
                    61  1.244492097662558E-005
                    62  1.364927193710646E-002
                    63 -1.800114189670238E-003
                    64 -2.872247320463787E-004
                    65  2.965611336187817E-003
                    66 -1.652917784425544E-004
                    67  6.407455553562167E-005
                    68  3.053732230119574E-004
                    69  3.216417108395853E-005
                    70 -1.744835689410424E-005
                    71  3.954205029690354E-004
                    72  4.257008864332395E-004
                    73  8.321178876813970E-005
                    74 -1.821843645706080E-003
                    75 -5.950704977612383E-006
                    76  2.569685613410327E-005
                    77  7.044956104746606E-006
                    78 -3.965341054392946E-005
                    79 -3.527724992721188E-006
                    80 -4.647709087933470E-004
                    81 -4.099090945738255E-004
                    82  1.499582929262957E-005
                    83  7.873644701452932E-004
                    84  1.034188945586617E-005
                    85  4.450190521092707E-005
                    86  1.091800457688131E-004
                    87  1.171435871387418E-005
                    88 -1.855346529702212E-005
                    89 -1.584270580160695E-005
                    90 -2.483222809313847E-005
                    91  2.353696354059508E-006
                    92  1.520617906116209E-002
                    93 -1.723903449959119E-003
                    94 -3.363128274496748E-004
                    95  3.255537785114675E-003
                    96 -2.044936139957860E-004
                    97  9.237182634158813E-005
                    98 -2.960092185643675E-004
                    99 -2.697304305798118E-005
                   100  3.361829859698872E-005
                   101 -6.434207518993750E-004
                   102  3.258139607811098E-005
                   103 -7.953863128230063E-005
                   104  1.698452358452399E-003
                   105 -3.596019422151861E-007
                   106 -1.570633607371144E-005
                   107 -2.367305684456383E-006
                   108 -3.216199647143494E-005
                   109 -3.209217387989549E-006
                   110 -3.286300781872106E-004
                   111  4.915676170941106E-004
                   112 -1.562058667498095E-005
                   113  6.990837927735018E-004
                   114 -1.468422661351289E-005
                   115 -5.148576186622896E-005
                   116  9.673862020202786E-005
                   117 -4.234487368148565E-006
                   118  2.042100392478682E-005
                   119 -1.841644492391283E-006
                   120 -3.292753579395377E-005
                   121  3.557763391010700E-006
                   122 -1.330879335736310E-004
                   123 -7.624617541630137E-004
                   124  2.414600070029358E-004
                   125 -2.749724517785676E-004
                   126 -1.707672108874084E-004
                   127  1.664046646869391E-005
                   128 -5.346540475727279E-005
                   129  6.082519914126649E-004
                   130 -9.491617284377935E-006
                   131  7.976795419900267E-005
                   132  7.036363227029570E-004
                   133 -1.736137750868702E-005
                   134  4.168624250032123E-004
                   135  5.324056394184607E-007
                   136  4.043308561401334E-005
                   137  8.127128374809365E-007
                   138 -3.337661882568720E-005
                   139 -2.849584034215770E-006
                   140  1.978269936366746E-004
                   141 -2.627376745517500E-004
                   142 -4.348257156607743E-007
                   143 -2.514508275940578E-004
                   144  1.052712623821207E-005
                   145 -1.725593345157778E-005
                   146  1.511841097677271E-005
                   147 -1.455195834589618E-006
                   148 -1.006063867152070E-005
                   149 -2.876848710930419E-006
                   150 -2.202407690033236E-005
                   151  8.683761418195584E-007
                   152 -9.341604865490636E-005
                   153 -7.225554967203626E-004
                   154  2.521798203262903E-004
                   155 -3.160473937371041E-004
                   156 -1.502799150876310E-004
                   157  1.575111817278436E-006
                   158  3.362923697377202E-005
                   159  5.546056268048624E-004
                   160  8.830074050050880E-006