[Molden Format]
[Atoms] AU
  N     1    7    -4.5007026400    0.0276635100   -0.3575033500        
  C     2    6    -1.7531723400   -0.0334383200   -0.1587724500        
  C     3    6    -0.3565005500    0.2170634600   -2.3688250400        
  C     4    6    -0.4755680500   -0.2392751800    2.1357859300        
  C     5    6     2.2591424900    0.2292198300   -2.2886798400        
  C     6    6     2.1377443600   -0.1964347800    2.2073273200        
  C     7    6     3.5114851800    0.0313738900   -0.0048928600        
  H     8    1    -5.1102094500   -1.8222848700   -0.0497787100        
  H     9    1    -5.1050035800    0.8881079300    1.2686160100        
  H    10    1    -1.3363487000    0.4154663800   -4.1297239200        
  H    11    1    -1.5301992700   -0.4456513300    3.8563305400        
  H    12    1     3.3173882600    0.4178774800   -4.0089795900        
  H    13    1     3.0985794600   -0.3538751600    3.9877616700        
  H    14    1     5.5394470300    0.0563027100    0.0527684800        
[5D]
[7F]
[GTO]
  1  0
   s    12 1.00
  0.114200D+05  0.172695D-04
  0.171200D+04  0.134411D-03
  0.389300D+03  0.694561D-03
  0.110000D+03  0.278531D-02
  0.355700D+02  0.863457D-02
  0.125400D+02  0.199805D-01
  0.464400D+01  0.262908D-01
  0.129300D+01 -0.243845D-01
  0.511800D+00 -0.924934D-01
  0.178700D+00 -0.339683D+00
  0.246240D-01  0.345111D+00
  0.112530D-01  0.752750D+00
   s    10 1.00
  0.114200D+05  0.523000D-03
  0.171200D+04  0.404500D-02
  0.389300D+03  0.207750D-01
  0.110000D+03  0.807269D-01
  0.355700D+02  0.233074D+00
  0.125400D+02  0.433501D+00
  0.464400D+01  0.347472D+00
  0.129300D+01  0.412620D-01
  0.511800D+00 -0.850799D-02
  0.178700D+00  0.238400D-02
   s    10 1.00
  0.114200D+05 -0.115000D-03
  0.171200D+04 -0.895000D-03
  0.389300D+03 -0.462400D-02
  0.110000D+03 -0.185280D-01
  0.355700D+02 -0.573390D-01
  0.125400D+02 -0.132076D+00
  0.464400D+01 -0.172510D+00
  0.129300D+01  0.151814D+00
  0.511800D+00  0.599944D+00
  0.178700D+00  0.387462D+00
   s     1 1.00
  0.129300D+01  0.100000D+01
   s     1 1.00
  0.178700D+00  0.100000D+01
   p     5 1.00
  0.266300D+02  0.146700D-01
  0.594800D+01  0.917640D-01
  0.174200D+01  0.298683D+00
  0.555000D+00  0.498487D+00
  0.172500D+00  0.337023D+00
   p     1 1.00
  0.174200D+01  0.100000D+01
   p     1 1.00
  0.555000D+00  0.100000D+01
   d     1 1.00
  0.165400D+01  0.100000D+01
   d     1 1.00
  0.469000D+00  0.100000D+01
   f     1 1.00
  0.109300D+01  0.100000D+01
  
  2  0
   s    10 1.00
  0.823600D+04  0.531000D-03
  0.123500D+04  0.410800D-02
  0.280800D+03  0.210870D-01
  0.792700D+02  0.818530D-01
  0.255900D+02  0.234817D+00
  0.899700D+01  0.434401D+00
  0.331900D+01  0.346129D+00
  0.905900D+00  0.393780D-01
  0.364300D+00 -0.898300D-02
  0.128500D+00  0.238500D-02
   s    10 1.00
  0.823600D+04 -0.113000D-03
  0.123500D+04 -0.878000D-03
  0.280800D+03 -0.454000D-02
  0.792700D+02 -0.181330D-01
  0.255900D+02 -0.557600D-01
  0.899700D+01 -0.126895D+00
  0.331900D+01 -0.170352D+00
  0.905900D+00  0.140382D+00
  0.364300D+00  0.598684D+00
  0.128500D+00  0.395389D+00
   s     1 1.00
  0.905900D+00  0.100000D+01
   s     1 1.00
  0.364300D+00  0.100000D+01
   p     5 1.00
  0.187100D+02  0.140310D-01
  0.413300D+01  0.868660D-01
  0.120000D+01  0.290216D+00
  0.382700D+00  0.501008D+00
  0.120900D+00  0.343406D+00
   p     1 1.00
  0.382700D+00  0.100000D+01
   p     1 1.00
  0.120900D+00  0.100000D+01
   d     1 1.00
  0.109700D+01  0.100000D+01
   d     1 1.00
  0.318000D+00  0.100000D+01
   f     1 1.00
  0.761000D+00  0.100000D+01
  
  3  0
   s    10 1.00
  0.823600D+04  0.531000D-03
  0.123500D+04  0.410800D-02
  0.280800D+03  0.210870D-01
  0.792700D+02  0.818530D-01
  0.255900D+02  0.234817D+00
  0.899700D+01  0.434401D+00
  0.331900D+01  0.346129D+00
  0.905900D+00  0.393780D-01
  0.364300D+00 -0.898300D-02
  0.128500D+00  0.238500D-02
   s    10 1.00
  0.823600D+04 -0.113000D-03
  0.123500D+04 -0.878000D-03
  0.280800D+03 -0.454000D-02
  0.792700D+02 -0.181330D-01
  0.255900D+02 -0.557600D-01
  0.899700D+01 -0.126895D+00
  0.331900D+01 -0.170352D+00
  0.905900D+00  0.140382D+00
  0.364300D+00  0.598684D+00
  0.128500D+00  0.395389D+00
   s     1 1.00
  0.905900D+00  0.100000D+01
   s     1 1.00
  0.364300D+00  0.100000D+01
   p     5 1.00
  0.187100D+02  0.140310D-01
  0.413300D+01  0.868660D-01
  0.120000D+01  0.290216D+00
  0.382700D+00  0.501008D+00
  0.120900D+00  0.343406D+00
   p     1 1.00
  0.382700D+00  0.100000D+01
   p     1 1.00
  0.120900D+00  0.100000D+01
   d     1 1.00
  0.109700D+01  0.100000D+01
   d     1 1.00
  0.318000D+00  0.100000D+01
   f     1 1.00
  0.761000D+00  0.100000D+01
  
  4  0
   s    10 1.00
  0.823600D+04  0.531000D-03
  0.123500D+04  0.410800D-02
  0.280800D+03  0.210870D-01
  0.792700D+02  0.818530D-01
  0.255900D+02  0.234817D+00
  0.899700D+01  0.434401D+00
  0.331900D+01  0.346129D+00
  0.905900D+00  0.393780D-01
  0.364300D+00 -0.898300D-02
  0.128500D+00  0.238500D-02
   s    10 1.00
  0.823600D+04 -0.113000D-03
  0.123500D+04 -0.878000D-03
  0.280800D+03 -0.454000D-02
  0.792700D+02 -0.181330D-01
  0.255900D+02 -0.557600D-01
  0.899700D+01 -0.126895D+00
  0.331900D+01 -0.170352D+00
  0.905900D+00  0.140382D+00
  0.364300D+00  0.598684D+00
  0.128500D+00  0.395389D+00
   s     1 1.00
  0.905900D+00  0.100000D+01
   s     1 1.00
  0.364300D+00  0.100000D+01
   p     5 1.00
  0.187100D+02  0.140310D-01
  0.413300D+01  0.868660D-01
  0.120000D+01  0.290216D+00
  0.382700D+00  0.501008D+00
  0.120900D+00  0.343406D+00
   p     1 1.00
  0.382700D+00  0.100000D+01
   p     1 1.00
  0.120900D+00  0.100000D+01
   d     1 1.00
  0.109700D+01  0.100000D+01
   d     1 1.00
  0.318000D+00  0.100000D+01
   f     1 1.00
  0.761000D+00  0.100000D+01
  
  5  0
   s    10 1.00
  0.823600D+04  0.531000D-03
  0.123500D+04  0.410800D-02
  0.280800D+03  0.210870D-01
  0.792700D+02  0.818530D-01
  0.255900D+02  0.234817D+00
  0.899700D+01  0.434401D+00
  0.331900D+01  0.346129D+00
  0.905900D+00  0.393780D-01
  0.364300D+00 -0.898300D-02
  0.128500D+00  0.238500D-02
   s    10 1.00
  0.823600D+04 -0.113000D-03
  0.123500D+04 -0.878000D-03
  0.280800D+03 -0.454000D-02
  0.792700D+02 -0.181330D-01
  0.255900D+02 -0.557600D-01
  0.899700D+01 -0.126895D+00
  0.331900D+01 -0.170352D+00
  0.905900D+00  0.140382D+00
  0.364300D+00  0.598684D+00
  0.128500D+00  0.395389D+00
   s     1 1.00
  0.905900D+00  0.100000D+01
   s     1 1.00
  0.364300D+00  0.100000D+01
   p     5 1.00
  0.187100D+02  0.140310D-01
  0.413300D+01  0.868660D-01
  0.120000D+01  0.290216D+00
  0.382700D+00  0.501008D+00
  0.120900D+00  0.343406D+00
   p     1 1.00
  0.382700D+00  0.100000D+01
   p     1 1.00
  0.120900D+00  0.100000D+01
   d     1 1.00
  0.109700D+01  0.100000D+01
   d     1 1.00
  0.318000D+00  0.100000D+01
   f     1 1.00
  0.761000D+00  0.100000D+01
  
  6  0
   s    10 1.00
  0.823600D+04  0.531000D-03
  0.123500D+04  0.410800D-02
  0.280800D+03  0.210870D-01
  0.792700D+02  0.818530D-01
  0.255900D+02  0.234817D+00
  0.899700D+01  0.434401D+00
  0.331900D+01  0.346129D+00
  0.905900D+00  0.393780D-01
  0.364300D+00 -0.898300D-02
  0.128500D+00  0.238500D-02
   s    10 1.00
  0.823600D+04 -0.113000D-03
  0.123500D+04 -0.878000D-03
  0.280800D+03 -0.454000D-02
  0.792700D+02 -0.181330D-01
  0.255900D+02 -0.557600D-01
  0.899700D+01 -0.126895D+00
  0.331900D+01 -0.170352D+00
  0.905900D+00  0.140382D+00
  0.364300D+00  0.598684D+00
  0.128500D+00  0.395389D+00
   s     1 1.00
  0.905900D+00  0.100000D+01
   s     1 1.00
  0.364300D+00  0.100000D+01
   p     5 1.00
  0.187100D+02  0.140310D-01
  0.413300D+01  0.868660D-01
  0.120000D+01  0.290216D+00
  0.382700D+00  0.501008D+00
  0.120900D+00  0.343406D+00
   p     1 1.00
  0.382700D+00  0.100000D+01
   p     1 1.00
  0.120900D+00  0.100000D+01
   d     1 1.00
  0.109700D+01  0.100000D+01
   d     1 1.00
  0.318000D+00  0.100000D+01
   f     1 1.00
  0.761000D+00  0.100000D+01
  
  7  0
   s    10 1.00
  0.823600D+04  0.531000D-03
  0.123500D+04  0.410800D-02
  0.280800D+03  0.210870D-01
  0.792700D+02  0.818530D-01
  0.255900D+02  0.234817D+00
  0.899700D+01  0.434401D+00
  0.331900D+01  0.346129D+00
  0.905900D+00  0.393780D-01
  0.364300D+00 -0.898300D-02
  0.128500D+00  0.238500D-02
   s    10 1.00
  0.823600D+04 -0.113000D-03
  0.123500D+04 -0.878000D-03
  0.280800D+03 -0.454000D-02
  0.792700D+02 -0.181330D-01
  0.255900D+02 -0.557600D-01
  0.899700D+01 -0.126895D+00
  0.331900D+01 -0.170352D+00
  0.905900D+00  0.140382D+00
  0.364300D+00  0.598684D+00
  0.128500D+00  0.395389D+00
   s     1 1.00
  0.905900D+00  0.100000D+01
   s     1 1.00
  0.364300D+00  0.100000D+01
   p     5 1.00
  0.187100D+02  0.140310D-01
  0.413300D+01  0.868660D-01
  0.120000D+01  0.290216D+00
  0.382700D+00  0.501008D+00
  0.120900D+00  0.343406D+00
   p     1 1.00
  0.382700D+00  0.100000D+01
   p     1 1.00
  0.120900D+00  0.100000D+01
   d     1 1.00
  0.109700D+01  0.100000D+01
   d     1 1.00
  0.318000D+00  0.100000D+01
   f     1 1.00
  0.761000D+00  0.100000D+01
  
  8  0
   s     4 1.00
  0.130100D+02  0.196850D-01
  0.196200D+01  0.137977D+00
  0.444600D+00  0.478148D+00
  0.122000D+00  0.501240D+00
   s     1 1.00
  0.122000D+00  0.100000D+01
   p     1 1.00
  0.727000D+00  0.100000D+01
  
  9  0
   s     4 1.00
  0.130100D+02  0.196850D-01
  0.196200D+01  0.137977D+00
  0.444600D+00  0.478148D+00
  0.122000D+00  0.501240D+00
   s     1 1.00
  0.122000D+00  0.100000D+01
   p     1 1.00
  0.727000D+00  0.100000D+01
  
 10  0
   s     4 1.00
  0.130100D+02  0.196850D-01
  0.196200D+01  0.137977D+00
  0.444600D+00  0.478148D+00
  0.122000D+00  0.501240D+00
   s     1 1.00
  0.122000D+00  0.100000D+01
   p     1 1.00
  0.727000D+00  0.100000D+01
  
 11  0
   s     4 1.00
  0.130100D+02  0.196850D-01
  0.196200D+01  0.137977D+00
  0.444600D+00  0.478148D+00
  0.122000D+00  0.501240D+00
   s     1 1.00
  0.122000D+00  0.100000D+01
   p     1 1.00
  0.727000D+00  0.100000D+01
  
 12  0
   s     4 1.00
  0.130100D+02  0.196850D-01
  0.196200D+01  0.137977D+00
  0.444600D+00  0.478148D+00
  0.122000D+00  0.501240D+00
   s     1 1.00
  0.122000D+00  0.100000D+01
   p     1 1.00
  0.727000D+00  0.100000D+01
  
 13  0
   s     4 1.00
  0.130100D+02  0.196850D-01
  0.196200D+01  0.137977D+00
  0.444600D+00  0.478148D+00
  0.122000D+00  0.501240D+00
   s     1 1.00
  0.122000D+00  0.100000D+01
   p     1 1.00
  0.727000D+00  0.100000D+01
  
 14  0
   s     4 1.00
  0.130100D+02  0.196850D-01
  0.196200D+01  0.137977D+00
  0.444600D+00  0.478148D+00
  0.122000D+00  0.501240D+00
   s     1 1.00
  0.122000D+00  0.100000D+01
   p     1 1.00
  0.727000D+00  0.100000D+01
  
[MO]
 Sym= __1_A__
 Ene=   1.00000000000000     
 Spin= Alpha
 Occup=    1.00000000000000     
                     1  9.148185788774224E-005
                     2  0.998141354806728     
                     3 -8.755404788598013E-003
                     4  1.993572112838879E-003
                     5  7.165052657953532E-003
                     6  7.856059356528817E-003
                     7 -3.559790661466102E-003
                     8  1.023238706314327E-002
                     9 -1.156347928574773E-003
                    10  3.335688669028062E-004
                    11 -1.079799513829878E-003
                    12 -2.568223909053367E-003
                    13  1.800621495065863E-003
                    14 -4.335928175395570E-003
                    15  6.863132370475373E-005
                    16 -5.638304990441788E-005
                    17 -3.495521772663354E-005
                    18  3.459441266459682E-005
                    19 -5.667576507429116E-006
                    20  8.061113826137193E-005
                    21  6.512315819735106E-004
                    22 -2.253900467553588E-004
                    23  2.488540843972294E-004
                    24 -2.567034614627538E-004
                    25  2.563085114388123E-005
                    26 -8.745885318078207E-005
                    27  4.970026465908686E-005
                    28  1.887436153430185E-005
                    29  5.960906287038503E-006
                    30 -6.423710594987744E-005
                    31 -1.014300884383235E-005
                    32 -3.082844596360734E-004
                    33  1.859693397814767E-004
                    34  2.756353520692534E-004
                    35  1.215226699824198E-005
                    36 -1.713518018176589E-003
                    37 -8.976157439808262E-004
                    38 -5.314898181956938E-004
                    39  7.717674225804136E-005
                    40 -1.200155988891964E-004
                    41  1.025420655624423E-003
                    42  4.471779871001871E-003
                    43  5.122254431819257E-004
                    44 -3.277256252421654E-003
                    45 -1.099114048710810E-004
                    46 -3.917219353656159E-005
                    47  1.424592986348392E-005
                    48  1.139315740881930E-004
                    49  2.946570061304531E-005
                    50  5.129078073411989E-004
                    51  7.549058289188248E-004
                    52 -8.281761494054443E-005
                    53 -1.950319716732892E-004
                    54 -2.058720786134760E-004
                    55  6.153050721860500E-005
                    56 -2.599420040762542E-005
                    57 -6.860716472436015E-006
                    58  6.993465743610040E-005
                    59 -4.239864800293578E-006
                    60 -3.946473041371076E-005
                    61 -8.447102131815474E-006
                    62 -8.210363861109632E-004
                    63 -2.370195705880858E-003
                    64 -1.035170038275016E-004
                    65  3.004839743707539E-003
                    66 -5.880978437543579E-004
                    67 -4.259141408012043E-004
                    68 -1.294226748762569E-004
                    69  8.349811584793559E-004
                    70 -5.159805540357465E-005
                    71  7.352773989311787E-004
                    72  1.632550712642569E-003
                    73  2.045760963991442E-004
                    74 -1.616808609164786E-003
                    75 -2.454078299108802E-005
                    76 -5.338880712915979E-005
                    77 -1.387000817898853E-005
                    78  7.028772460140244E-005
                    79  1.412490525202769E-005
                    80  4.755427753305427E-004
                    81  9.433583968144046E-005
                    82 -9.873452616406687E-005
                    83 -7.027097935579580E-005
                    84  9.171740451825297E-006
                    85 -2.598492339144625E-005
                    86 -1.568808733100149E-004
                    87 -5.966349283603656E-006
                    88  1.017234037816318E-005
                    89  2.426314161419168E-005
                    90 -7.525255974145435E-005
                    91 -6.161234390482461E-006
                    92  5.638263186937844E-005
                    93 -1.907145173078201E-004
                    94  3.400463904173555E-004
                    95 -1.426318669359267E-003
                    96  3.021448579554761E-004
                    97 -3.876175590207762E-004
                    98  2.688908405910571E-004
                    99  1.638868759842830E-004
                   100 -1.680105974256041E-005
                   101  5.365331461535815E-004
                   102 -2.302260850283303E-003
                   103 -3.460467874908909E-005
                   104  1.745401166246043E-004
                   105 -4.919197797441281E-005
                   106 -1.044894402542181E-005
                   107  1.429289592986321E-005
                   108  3.097717444913952E-005
                   109  6.784486763675110E-006
                   110 -1.329464638404085E-004
                   111 -1.495721957889834E-004
                   112  4.420986970441587E-005
                   113 -2.346525465618984E-004
                   114  1.852008050458233E-005
                   115 -3.253556458804524E-005
                   116  5.663447819035798E-005
                   117 -1.467766577117081E-007
                   118  9.481321901624423E-006
                   119 -1.269275742195659E-005
                   120  5.599293612499466E-007
                   121 -6.956491604097581E-006
                   122 -3.260728559232961E-004
                   123 -1.121905608725385E-003
                   124  1.251365790313455E-004
                   125  9.234354086315352E-004
                   126  2.263840267716472E-005
                   127 -3.373277494902870E-005
                   128 -7.216879525936872E-005
                   129  5.544119277422015E-004
                   130 -2.382217548412700E-005
                   131  3.080119902483670E-004
                   132  2.601990049222047E-003
                   133  1.789921385589302E-005
                   134  5.018878058915471E-004
                   135  4.289295467051663E-005
                   136 -7.138547705783012E-006
                   137 -3.954144090345738E-006
                   138 -2.704206021929832E-005
                   139  9.541288971152114E-006
                   140  2.535994515892373E-004
                   141  3.467634350539866E-004
                   142  5.700274350660330E-006
                   143 -3.977694306703390E-004
                   144 -2.714757587822736E-005
                   145 -3.460195805321949E-005
                   146 -3.003534293556728E-005
                   147 -5.550023738132798E-006
                   148 -1.010926545729718E-005
                   149 -4.284113466199852E-006
                   150 -9.140104080898639E-005
                   151  1.635620779763508E-006
                   152 -1.448402130842971E-004
                   153 -3.149456271331310E-004
                   154 -7.021984707789851E-005
                   155  6.378514295154121E-004
                   156 -1.704258292523191E-004
                   157  3.834463514819084E-006
                   158 -4.403816752727846E-005
                   159 -2.939983294272184E-004
                   160 -2.800280374807307E-005
                   161  2.245087349317795E-004
                   162 -1.036868569901876E-003
                   163 -7.324937639792546E-005
                   164  9.013224763668340E-004
                   165 -2.381667630934822E-005
                   166  7.359032690370811E-006
                   167  3.155805864778411E-007
                   168  2.564422693368564E-005
                   169  7.969305932208280E-006
                   170 -8.495368788291931E-005
                   171  1.903919381196549E-005
                   172  1.313304287492785E-005
                   173  5.375785173919986E-005
                   174  8.456486141905672E-006
                   175 -1.216593370201927E-005
                   176 -1.475988416225891E-006
                   177 -1.221045489775786E-006
                   178 -8.755159742954736E-006
                   179 -1.003969125588069E-006
                   180  9.242245056586574E-006
                   181 -7.149575176685423E-007
                   182 -1.567527497421823E-004
                   183 -4.712679224405082E-004
                   184  3.938638838993849E-005
                   185  2.157853024110739E-004
                   186 -4.211881320659305E-005
                   187  1.294596338057886E-004
                   188 -8.127352338754612E-005
                   189  1.006934294016492E-004
                   190 -3.284208115838479E-005
                   191  4.254648493104546E-004
                   192 -4.793974265780585E-004
                   193 -1.773936886327367E-004
                   194  2.026595430492802E-003
                   195 -8.565255247878320E-009
                   196  4.043067242465608E-006
                   197  6.989072170307703E-007
                   198 -1.696468752919696E-006
                   199  1.469657793606275E-007
                   200 -1.238635436322329E-004
                   201 -3.306638633359418E-004
                   202  1.576805816331668E-005
                   203  5.623055559668560E-005
                   204  3.127976085179958E-005
                   205  2.102664732255627E-006
                   206  5.723475312222179E-006
                   207 -1.729731693841134E-006
                   208  2.299043039465738E-005
                   209 -2.032140037788693E-006
                   210 -4.183839499685024E-006
                   211 -2.450060252214677E-006
                   212 -7.796685466936280E-004
                   213 -3.243028639516248E-004
                   214  1.077942352130723E-004
                   215  1.602170486847579E-004
                   216 -3.765454336830889E-005
                   217  5.897321619987887E-004
                   218 -8.156586395163568E-004
                   219  1.371262984221595E-004
                   220 -6.622817334813126E-005
                   221 -2.258624124509986E-004
                   222 -1.668072541439310E-004
                   223 -4.344303745547290E-004
                   224 -9.705522258949574E-005
                   225 -1.093959122857971E-005
                   226  6.144425931067289E-005
                   227 -1.196153668785846E-004
                   228 -5.305000943707163E-004
                   229 -2.585489058506125E-005
                   230  5.971168354610271E-006
                   231 -6.220381061187412E-005
                   232  2.111026955780119E-004
                   233 -6.420183400134293E-004
                   234 -1.819676813854954E-006
                   235 -1.339632040226329E-006
                   236  1.506011844416700E-005
                   237 -1.114586906364677E-004
                   238 -2.670040162906039E-004
                   239  1.373266341908267E-005
                   240 -1.457354262636506E-006
                   241  2.232132462173407E-005
                   242 -7.035256261589042E-005
                   243  1.470903754338413E-004
                   244  3.155734966524355E-005
                   245  4.265688854529868E-006
                   246  1.527370916225800E-006
 Sym= __2_A__
 Ene=   2.00000000000000     
 Spin= Alpha
 Occup=    1.00000000000000     
                     1 -2.101198438475717E-006
                     2 -9.207213907432205E-005
                     3  5.852779056921246E-004
                     4 -1.794462660913149E-005
                     5  1.182479178693315E-003
                     6  1.283394155174086E-003
                     7 -2.200564935400174E-004
                     8  1.839664302019556E-004
                     9 -1.555629679966933E-004
                    10  9.097974237217252E-005
                    11 -7.942877877355843E-005
                    12  2.017030026105304E-004
                    13  1.282946884670507E-004
                    14 -7.382769001538193E-005
                    15 -5.085817572653113E-005
                    16  2.206145631438380E-005
                    17 -1.859879928787674E-006
                    18  4.780583392238436E-005
                    19 -8.936096801748664E-007
                    20  5.687764216944055E-005
                    21 -6.176655166679286E-005
                    22  4.910737125339928E-006
                    23  1.121305959273339E-004
                    24 -3.845305413359936E-005
                    25 -4.203558773766480E-005
                    26  1.254335873210067E-004
                    27  2.014772593241295E-005
                    28 -4.786604130527262E-005
                    29 -1.208382550991243E-005
                    30  1.174047037959149E-004
                    31  2.163618462621251E-005
                    32   1.00084660529026     
                    33  8.488772313141039E-003
                    34  2.859818216860767E-003
                    35 -8.429543952255718E-003
                    36 -1.472299813133011E-003
                    37  1.004202332504545E-004
                    38  1.322102873878113E-004
                    39  9.125384599486566E-004
                    40 -4.304993441376601E-005
                    41 -3.494736114631779E-004
                    42  2.565168301430889E-003
                    43 -7.991347140958599E-005
                    44  1.643872249978435E-004
                    45  3.157104294852225E-004
                    46  2.603096763463399E-006
                    47 -7.742515488993352E-005
                    48  3.249704307440166E-004
                    49  6.475764427589416E-006
                    50 -9.672930582138255E-004
                    51 -3.057821373867397E-004
                    52  1.809442952293437E-004
                    53 -1.578528728155403E-004
                    54  2.362234533416206E-005
                    55 -1.988388007336834E-005
                    56  2.582370894718684E-004
                    57 -4.442476682838590E-006
                    58 -3.025369879867728E-005
                    59 -3.070163664311525E-005
                    60  6.617094086105347E-005
                    61  6.027740362961041E-006
                    62  1.598480671082263E-002
                    63 -1.526855871708498E-003
                    64 -2.875192605342272E-004
                    65  2.797337225138480E-003
                    66 -2.891078701593532E-004
                    67 -4.599598735367122E-005
                    68  4.131660967643116E-004
                    69  3.991948294848226E-005
                    70 -3.686204069506845E-005
                    71  3.129450528271798E-004
                    72  2.819779683237375E-004
                    73  2.170820922967199E-004
                    74 -1.726305110564561E-003
                    75  7.840485048663464E-006
                    76  2.512292967704875E-005
                    77  1.771743953179883E-006
                    78 -4.618827613924420E-005
                    79 -2.579894280164662E-006
                    80 -5.114057238744819E-004
                    81 -3.731581053262364E-004
                    82  1.822033242159229E-005
                    83  8.023139636215706E-004
                    84  5.004313778631423E-005
                    85  3.514980607376627E-005
                    86  1.050468944667914E-004
                    87  1.729652300907472E-005
                    88 -2.747690479997162E-005
                    89 -2.301371481113459E-005
                    90 -2.591743203626629E-005
                    91  4.358302066127892E-006
                    92  1.839078318639384E-002
                    93 -1.652447073248447E-003
                    94 -3.364498582720174E-004
                    95  3.329740229791153E-003
                    96 -2.768974791070795E-004
                    97  2.952347296233290E-005
                    98 -3.725981062660537E-004
                    99 -1.026498412594102E-004
                   100  7.783151325940024E-005
                   101 -7.507238737293335E-004
                   102  3.026887131505432E-004
                   103 -1.252431104865467E-004
                   104  1.555945927171768E-003
                   105  1.038755197941833E-005
                   106 -4.370896641038556E-006
                   107  1.991224540061925E-006
                   108 -2.611811250538138E-005
                   109 -2.019918152726497E-007
                   110 -1.970366906852174E-004
                   111  4.937608636666208E-004
                   112 -3.619892457998476E-005
                   113  6.231536591556240E-004
                   114 -3.910112306305022E-005
                   115 -4.651374661462948E-005
                   116  8.742799287058395E-005
                   117 -1.022865537322023E-005
                   118  1.937426314110997E-005
                   119 -1.272671247015582E-005
                   120 -2.975985411672403E-005
                   121 -8.481817751072031E-007
                   122 -6.938010137441275E-005
                   123 -7.506443261430574E-004
                   124  2.434998819037256E-004
                   125 -3.715456848662271E-004
                   126 -9.473965107280593E-005
                   127  5.941718299908288E-006
                   128 -5.448293933499612E-005
                   129  6.217106580488484E-004
                   130 -8.872829627925862E-007
                   131  6.094327742276234E-005
                   132  4.125293446287648E-004
                   133 -4.600629279689076E-005
                   134  3.979485494679285E-004
                   135  1.579772579740235E-006
                   136  3.616256563005734E-005
                   137  3.944701437961020E-006
                   138 -3.870991744211450E-005
                   139 -4.887816485717475E-006
                   140  1.893594370231004E-004
                   141 -2.821682490308028E-004
                   142 -1.331438159067951E-005
                   143 -2.283845944195350E-004
                   144  2.581997276222115E-005
                   145 -9.987570747711887E-006
                   146  1.197712689953523E-005
                   147 -2.047322343418660E-006
                   148 -3.237378580336688E-006
                   149 -3.906670641123988E-006
                   150 -2.024290476129444E-005
                   151  1.489239653325742E-006
                   152 -2.455350559858535E-006
                   153 -7.919567192421171E-004
                   154  2.318167800985811E-004
                   155 -1.627350259897606E-004
                   156 -8.736794294664884E-005
                   157 -8.986989868407921E-006
                   158  3.730891326833779E-005
                   159  4.893169757576092E-004
                   160  1.321348155907907E-005