[Molden Format]
[Atoms] AU
  N     1    7     0.0000000000    0.0000000000   -4.2907334100        
  C     2    6     0.0000000000    0.0000000000   -1.7772236300        
  C     3    6     0.0000000000   -2.3389203600   -0.4111016300        
  C     4    6     0.0000000000    2.3389203600   -0.4111016300        
  C     5    6     0.0000000000   -2.2998668500    2.1639215300        
  C     6    6     0.0000000000    2.2998668500    2.1639215300        
  C     7    6     0.0000000000    0.0000000000    3.4755251800        
  H     8    1     0.0000000000   -1.6528040300   -5.3103747800        
  H     9    1     0.0000000000    1.6528040300   -5.3103747800        
  H    10    1     0.0000000000   -4.0745407300   -1.4447408500        
  H    11    1     0.0000000000    4.0745407300   -1.4447408500        
  H    12    1     0.0000000000   -4.0420632100    3.1963889500        
  H    13    1     0.0000000000    4.0420632100    3.1963889500        
  H    14    1     0.0000000000    0.0000000000    5.5020335600        
[5D]
[7F]
[GTO]
  1  0
   s    12 1.00
  0.114200D+05  0.172695D-04
  0.171200D+04  0.134411D-03
  0.389300D+03  0.694561D-03
  0.110000D+03  0.278531D-02
  0.355700D+02  0.863457D-02
  0.125400D+02  0.199805D-01
  0.464400D+01  0.262908D-01
  0.129300D+01 -0.243845D-01
  0.511800D+00 -0.924934D-01
  0.178700D+00 -0.339683D+00
  0.246240D-01  0.345111D+00
  0.112530D-01  0.752750D+00
   s    10 1.00
  0.114200D+05  0.523000D-03
  0.171200D+04  0.404500D-02
  0.389300D+03  0.207750D-01
  0.110000D+03  0.807269D-01
  0.355700D+02  0.233074D+00
  0.125400D+02  0.433501D+00
  0.464400D+01  0.347472D+00
  0.129300D+01  0.412620D-01
  0.511800D+00 -0.850799D-02
  0.178700D+00  0.238400D-02
   s    10 1.00
  0.114200D+05 -0.115000D-03
  0.171200D+04 -0.895000D-03
  0.389300D+03 -0.462400D-02
  0.110000D+03 -0.185280D-01
  0.355700D+02 -0.573390D-01
  0.125400D+02 -0.132076D+00
  0.464400D+01 -0.172510D+00
  0.129300D+01  0.151814D+00
  0.511800D+00  0.599944D+00
  0.178700D+00  0.387462D+00
   s     1 1.00
  0.129300D+01  0.100000D+01
   s     1 1.00
  0.178700D+00  0.100000D+01
   p     5 1.00
  0.266300D+02  0.146700D-01
  0.594800D+01  0.917640D-01
  0.174200D+01  0.298683D+00
  0.555000D+00  0.498487D+00
  0.172500D+00  0.337023D+00
   p     1 1.00
  0.174200D+01  0.100000D+01
   p     1 1.00
  0.555000D+00  0.100000D+01
   d     1 1.00
  0.165400D+01  0.100000D+01
   d     1 1.00
  0.469000D+00  0.100000D+01
   f     1 1.00
  0.109300D+01  0.100000D+01
  
  2  0
   s    10 1.00
  0.823600D+04  0.531000D-03
  0.123500D+04  0.410800D-02
  0.280800D+03  0.210870D-01
  0.792700D+02  0.818530D-01
  0.255900D+02  0.234817D+00
  0.899700D+01  0.434401D+00
  0.331900D+01  0.346129D+00
  0.905900D+00  0.393780D-01
  0.364300D+00 -0.898300D-02
  0.128500D+00  0.238500D-02
   s    10 1.00
  0.823600D+04 -0.113000D-03
  0.123500D+04 -0.878000D-03
  0.280800D+03 -0.454000D-02
  0.792700D+02 -0.181330D-01
  0.255900D+02 -0.557600D-01
  0.899700D+01 -0.126895D+00
  0.331900D+01 -0.170352D+00
  0.905900D+00  0.140382D+00
  0.364300D+00  0.598684D+00
  0.128500D+00  0.395389D+00
   s     1 1.00
  0.905900D+00  0.100000D+01
   s     1 1.00
  0.364300D+00  0.100000D+01
   p     5 1.00
  0.187100D+02  0.140310D-01
  0.413300D+01  0.868660D-01
  0.120000D+01  0.290216D+00
  0.382700D+00  0.501008D+00
  0.120900D+00  0.343406D+00
   p     1 1.00
  0.382700D+00  0.100000D+01
   p     1 1.00
  0.120900D+00  0.100000D+01
   d     1 1.00
  0.109700D+01  0.100000D+01
   d     1 1.00
  0.318000D+00  0.100000D+01
   f     1 1.00
  0.761000D+00  0.100000D+01
  
  3  0
   s    10 1.00
  0.823600D+04  0.531000D-03
  0.123500D+04  0.410800D-02
  0.280800D+03  0.210870D-01
  0.792700D+02  0.818530D-01
  0.255900D+02  0.234817D+00
  0.899700D+01  0.434401D+00
  0.331900D+01  0.346129D+00
  0.905900D+00  0.393780D-01
  0.364300D+00 -0.898300D-02
  0.128500D+00  0.238500D-02
   s    10 1.00
  0.823600D+04 -0.113000D-03
  0.123500D+04 -0.878000D-03
  0.280800D+03 -0.454000D-02
  0.792700D+02 -0.181330D-01
  0.255900D+02 -0.557600D-01
  0.899700D+01 -0.126895D+00
  0.331900D+01 -0.170352D+00
  0.905900D+00  0.140382D+00
  0.364300D+00  0.598684D+00
  0.128500D+00  0.395389D+00
   s     1 1.00
  0.905900D+00  0.100000D+01
   s     1 1.00
  0.364300D+00  0.100000D+01
   p     5 1.00
  0.187100D+02  0.140310D-01
  0.413300D+01  0.868660D-01
  0.120000D+01  0.290216D+00
  0.382700D+00  0.501008D+00
  0.120900D+00  0.343406D+00
   p     1 1.00
  0.382700D+00  0.100000D+01
   p     1 1.00
  0.120900D+00  0.100000D+01
   d     1 1.00
  0.109700D+01  0.100000D+01
   d     1 1.00
  0.318000D+00  0.100000D+01
   f     1 1.00
  0.761000D+00  0.100000D+01
  
  4  0
   s    10 1.00
  0.823600D+04  0.531000D-03
  0.123500D+04  0.410800D-02
  0.280800D+03  0.210870D-01
  0.792700D+02  0.818530D-01
  0.255900D+02  0.234817D+00
  0.899700D+01  0.434401D+00
  0.331900D+01  0.346129D+00
  0.905900D+00  0.393780D-01
  0.364300D+00 -0.898300D-02
  0.128500D+00  0.238500D-02
   s    10 1.00
  0.823600D+04 -0.113000D-03
  0.123500D+04 -0.878000D-03
  0.280800D+03 -0.454000D-02
  0.792700D+02 -0.181330D-01
  0.255900D+02 -0.557600D-01
  0.899700D+01 -0.126895D+00
  0.331900D+01 -0.170352D+00
  0.905900D+00  0.140382D+00
  0.364300D+00  0.598684D+00
  0.128500D+00  0.395389D+00
   s     1 1.00
  0.905900D+00  0.100000D+01
   s     1 1.00
  0.364300D+00  0.100000D+01
   p     5 1.00
  0.187100D+02  0.140310D-01
  0.413300D+01  0.868660D-01
  0.120000D+01  0.290216D+00
  0.382700D+00  0.501008D+00
  0.120900D+00  0.343406D+00
   p     1 1.00
  0.382700D+00  0.100000D+01
   p     1 1.00
  0.120900D+00  0.100000D+01
   d     1 1.00
  0.109700D+01  0.100000D+01
   d     1 1.00
  0.318000D+00  0.100000D+01
   f     1 1.00
  0.761000D+00  0.100000D+01
  
  5  0
   s    10 1.00
  0.823600D+04  0.531000D-03
  0.123500D+04  0.410800D-02
  0.280800D+03  0.210870D-01
  0.792700D+02  0.818530D-01
  0.255900D+02  0.234817D+00
  0.899700D+01  0.434401D+00
  0.331900D+01  0.346129D+00
  0.905900D+00  0.393780D-01
  0.364300D+00 -0.898300D-02
  0.128500D+00  0.238500D-02
   s    10 1.00
  0.823600D+04 -0.113000D-03
  0.123500D+04 -0.878000D-03
  0.280800D+03 -0.454000D-02
  0.792700D+02 -0.181330D-01
  0.255900D+02 -0.557600D-01
  0.899700D+01 -0.126895D+00
  0.331900D+01 -0.170352D+00
  0.905900D+00  0.140382D+00
  0.364300D+00  0.598684D+00
  0.128500D+00  0.395389D+00
   s     1 1.00
  0.905900D+00  0.100000D+01
   s     1 1.00
  0.364300D+00  0.100000D+01
   p     5 1.00
  0.187100D+02  0.140310D-01
  0.413300D+01  0.868660D-01
  0.120000D+01  0.290216D+00
  0.382700D+00  0.501008D+00
  0.120900D+00  0.343406D+00
   p     1 1.00
  0.382700D+00  0.100000D+01
   p     1 1.00
  0.120900D+00  0.100000D+01
   d     1 1.00
  0.109700D+01  0.100000D+01
   d     1 1.00
  0.318000D+00  0.100000D+01
   f     1 1.00
  0.761000D+00  0.100000D+01
  
  6  0
   s    10 1.00
  0.823600D+04  0.531000D-03
  0.123500D+04  0.410800D-02
  0.280800D+03  0.210870D-01
  0.792700D+02  0.818530D-01
  0.255900D+02  0.234817D+00
  0.899700D+01  0.434401D+00
  0.331900D+01  0.346129D+00
  0.905900D+00  0.393780D-01
  0.364300D+00 -0.898300D-02
  0.128500D+00  0.238500D-02
   s    10 1.00
  0.823600D+04 -0.113000D-03
  0.123500D+04 -0.878000D-03
  0.280800D+03 -0.454000D-02
  0.792700D+02 -0.181330D-01
  0.255900D+02 -0.557600D-01
  0.899700D+01 -0.126895D+00
  0.331900D+01 -0.170352D+00
  0.905900D+00  0.140382D+00
  0.364300D+00  0.598684D+00
  0.128500D+00  0.395389D+00
   s     1 1.00
  0.905900D+00  0.100000D+01
   s     1 1.00
  0.364300D+00  0.100000D+01
   p     5 1.00
  0.187100D+02  0.140310D-01
  0.413300D+01  0.868660D-01
  0.120000D+01  0.290216D+00
  0.382700D+00  0.501008D+00
  0.120900D+00  0.343406D+00
   p     1 1.00
  0.382700D+00  0.100000D+01
   p     1 1.00
  0.120900D+00  0.100000D+01
   d     1 1.00
  0.109700D+01  0.100000D+01
   d     1 1.00
  0.318000D+00  0.100000D+01
   f     1 1.00
  0.761000D+00  0.100000D+01
  
  7  0
   s    10 1.00
  0.823600D+04  0.531000D-03
  0.123500D+04  0.410800D-02
  0.280800D+03  0.210870D-01
  0.792700D+02  0.818530D-01
  0.255900D+02  0.234817D+00
  0.899700D+01  0.434401D+00
  0.331900D+01  0.346129D+00
  0.905900D+00  0.393780D-01
  0.364300D+00 -0.898300D-02
  0.128500D+00  0.238500D-02
   s    10 1.00
  0.823600D+04 -0.113000D-03
  0.123500D+04 -0.878000D-03
  0.280800D+03 -0.454000D-02
  0.792700D+02 -0.181330D-01
  0.255900D+02 -0.557600D-01
  0.899700D+01 -0.126895D+00
  0.331900D+01 -0.170352D+00
  0.905900D+00  0.140382D+00
  0.364300D+00  0.598684D+00
  0.128500D+00  0.395389D+00
   s     1 1.00
  0.905900D+00  0.100000D+01
   s     1 1.00
  0.364300D+00  0.100000D+01
   p     5 1.00
  0.187100D+02  0.140310D-01
  0.413300D+01  0.868660D-01
  0.120000D+01  0.290216D+00
  0.382700D+00  0.501008D+00
  0.120900D+00  0.343406D+00
   p     1 1.00
  0.382700D+00  0.100000D+01
   p     1 1.00
  0.120900D+00  0.100000D+01
   d     1 1.00
  0.109700D+01  0.100000D+01
   d     1 1.00
  0.318000D+00  0.100000D+01
   f     1 1.00
  0.761000D+00  0.100000D+01
  
  8  0
   s     4 1.00
  0.130100D+02  0.196850D-01
  0.196200D+01  0.137977D+00
  0.444600D+00  0.478148D+00
  0.122000D+00  0.501240D+00
   s     1 1.00
  0.122000D+00  0.100000D+01
   p     1 1.00
  0.727000D+00  0.100000D+01
  
  9  0
   s     4 1.00
  0.130100D+02  0.196850D-01
  0.196200D+01  0.137977D+00
  0.444600D+00  0.478148D+00
  0.122000D+00  0.501240D+00
   s     1 1.00
  0.122000D+00  0.100000D+01
   p     1 1.00
  0.727000D+00  0.100000D+01
  
 10  0
   s     4 1.00
  0.130100D+02  0.196850D-01
  0.196200D+01  0.137977D+00
  0.444600D+00  0.478148D+00
  0.122000D+00  0.501240D+00
   s     1 1.00
  0.122000D+00  0.100000D+01
   p     1 1.00
  0.727000D+00  0.100000D+01
  
 11  0
   s     4 1.00
  0.130100D+02  0.196850D-01
  0.196200D+01  0.137977D+00
  0.444600D+00  0.478148D+00
  0.122000D+00  0.501240D+00
   s     1 1.00
  0.122000D+00  0.100000D+01
   p     1 1.00
  0.727000D+00  0.100000D+01
  
 12  0
   s     4 1.00
  0.130100D+02  0.196850D-01
  0.196200D+01  0.137977D+00
  0.444600D+00  0.478148D+00
  0.122000D+00  0.501240D+00
   s     1 1.00
  0.122000D+00  0.100000D+01
   p     1 1.00
  0.727000D+00  0.100000D+01
  
 13  0
   s     4 1.00
  0.130100D+02  0.196850D-01
  0.196200D+01  0.137977D+00
  0.444600D+00  0.478148D+00
  0.122000D+00  0.501240D+00
   s     1 1.00
  0.122000D+00  0.100000D+01
   p     1 1.00
  0.727000D+00  0.100000D+01
  
 14  0
   s     4 1.00
  0.130100D+02  0.196850D-01
  0.196200D+01  0.137977D+00
  0.444600D+00  0.478148D+00
  0.122000D+00  0.501240D+00
   s     1 1.00
  0.122000D+00  0.100000D+01
   p     1 1.00
  0.727000D+00  0.100000D+01
  
[MO]
 Sym= __1_a__
 Ene=  0.000000000000000E+000
 Spin= Alpha
 Occup=    2.00000000000000     
                     1  4.178884268621990E-005
                     2  0.998070789431624     
                     3  9.271367561395970E-003
                     4  2.061406877880850E-003
                     5  1.526243341423650E-003
                     6 -1.257456492282930E-011
                     7  5.810239217035640E-010
                     8  4.485098571631090E-003
                     9  6.758547922488370E-012
                    10  1.320660833043970E-008
                    11 -1.185993254820120E-004
                    12  2.777182494149200E-012
                    13 -6.500889407016060E-008
                    14 -7.813425788244549E-005
                    15  2.694145466590065E-004
                    16  2.322098966409300E-013
                    17 -1.003814131542740E-010
                    18 -1.181463213710018E-004
                    19 -6.918563950485320E-013
                    20  1.644127142005899E-004
                    21 -1.551235469273950E-012
                    22 -1.116138038076660E-008
                    23  5.836993637467240E-004
                    24  1.528517192455600E-012
                    25 -1.898054119811857E-004
                    26 -6.787885629541859E-013
                    27 -4.686976861395318E-009
                    28  9.191641025054120E-005
                    29  1.391010783354070E-012
                    30  3.429620949285770E-012
                    31  2.340192762549720E-010
                    32 -3.712510919354080E-004
                    33  2.713595920245640E-003
                    34  1.460054860081310E-004
                    35 -2.435590242459310E-004
                    36 -1.172440248162750E-012
                    37  2.863956093032630E-008
                    38 -7.114262328581360E-003
                    39  3.796953082016570E-012
                    40 -1.113613045487910E-007
                    41  3.886243832503250E-004
                    42  2.037625567694760E-013
                    43 -1.227866795677440E-007
                    44  4.409457388199030E-003
                    45  3.493436254521593E-004
                    46  2.635649981573640E-012
                    47  7.959044431536140E-009
                    48  1.387026802566696E-004
                    49  6.240816394426890E-013
                    50  4.415902332114564E-005
                    51 -4.430789210965300E-012
                    52 -1.763562676189270E-007
                    53 -4.613367485521740E-004
                    54 -4.837869620189010E-012
                    55 -1.115855121460905E-004
                    56  5.094456491746128E-013
                    57  3.316726096613797E-009
                    58  7.825669846186061E-005
                    59 -4.153695215125980E-013
                    60  1.957934412224695E-012
                    61  2.714043371902877E-009
                    62 -2.113677787842890E-004
                    63 -1.681881043616960E-003
                    64  6.058073054192240E-005
                    65  5.537430470555420E-004
                    66  9.932605407349060E-012
                    67 -8.410080764003190E-004
                    68  1.015333301297590E-003
                    69 -9.322799591553900E-012
                    70 -3.614387063721410E-005
                    71  6.248771045764230E-004
                    72 -1.836044973047630E-012
                    73 -5.631981218149790E-004
                    74 -1.309443494521030E-004
                    75  9.260030901304938E-005
                    76  2.047475616537240E-012
                    77 -8.431257179850510E-006
                    78  4.208187182041620E-005
                    79  1.586472799527880E-012
                    80 -2.533184800163338E-005
                    81  3.627266059457210E-012
                    82  2.128991028871150E-004
                    83 -3.122633563953360E-005
                    84 -2.811551190251580E-012
                    85 -9.341353730871077E-005
                    86  2.978386670925816E-012
                    87 -2.993838184406457E-005
                    88  1.997455596180162E-005
                    89  1.293194181135860E-012
                    90 -2.199288306572662E-012
                    91  1.278687856353965E-005
                    92 -2.113494303176490E-004
                    93 -1.681793227221940E-003
                    94  6.075806670195090E-005
                    95  5.531603501026650E-004
                    96 -6.797509061983940E-012
                    97  8.410447827273120E-004
                    98  1.015464983287990E-003
                    99  4.294288266212800E-012
                   100  3.593745845387010E-005
                   101  6.240879649938540E-004
                   102  7.132481258090730E-012
                   103  5.625826119688160E-004
                   104 -1.310835098142660E-004
                   105  9.256353388219372E-005
                   106  1.401020732386200E-012
                   107  8.447024466872270E-006
                   108  4.208505616175040E-005
                   109 -4.079840088336880E-013
                   110 -2.583181911243806E-005
                   111  7.436032911208580E-013
                   112 -2.129661371514560E-004
                   113 -3.135243753882260E-005
                   114 -8.056611160091620E-013
                   115 -9.334330764765700E-005
                   116  1.932144578435483E-012
                   117  2.992264507399766E-005
                   118  1.997573821497922E-005
                   119  1.198562301311500E-012
                   120  1.553428659599689E-012
                   121 -1.278522439099306E-005
                   122 -1.476801146522300E-004
                   123  7.369564569577440E-006
                   124  1.108566302889620E-004
                   125  1.283287009209510E-004
                   126  3.258151090583550E-012
                   127  4.132220701482380E-005
                   128 -8.000079267143901E-004
                   129 -5.556288440471320E-012
                   130  2.019209125976540E-005
                   131  3.515026652841790E-004
                   132 -4.377875606578130E-012
                   133 -1.723652720180220E-004
                   134  7.086277663726770E-004
                   135 -1.739170010093568E-005
                   136 -1.450687204431160E-012
                   137  1.813138536621210E-006
                   138  1.505350091831146E-006
                   139  1.090793983903010E-012
                   140 -1.890319747645775E-004
                   141  3.506949010815610E-012
                   142  1.700553939318330E-004
                   143  1.256200134424256E-005
                   144 -1.925809027962760E-012
                   145 -3.929468039125790E-005
                   146 -1.817339187099364E-012
                   147  1.410966945119279E-006
                   148 -9.710131911438200E-006
                   149 -3.431045505849770E-012
                   150 -1.136011347895319E-012
                   151 -3.654766405498861E-006
                   152 -1.481145261011410E-004
                   153  5.829561961925170E-006
                   154  1.104327953627360E-004
                   155  1.310100565429820E-004
                   156 -1.033755286623230E-011
                   157 -4.136222893070550E-005
                   158 -7.999223095723040E-004
                   159  8.197718599442320E-012
                   160 -2.017937793141370E-005
                   161  3.508845511299210E-004
                   162 -4.305862538590190E-012
                   163  1.730210137030140E-004
                   164  7.084983422751120E-004
                   165 -1.733755217155181E-005
                   166 -6.805970805290490E-013
                   167 -1.806816417261180E-006
                   168  1.470221245557820E-006
                   169 -2.797928120387010E-012
                   170 -1.887811543339369E-004
                   171  4.293714593870860E-013
                   172 -1.701788578105970E-004
                   173  1.259186303515060E-005
                   174  5.450271986315600E-012
                   175 -3.920857309458838E-005
                   176  8.514761000727775E-013
                   177 -1.382069842239656E-006
                   178 -9.743908517474640E-006
                   179  1.316517862921310E-012
                   180  1.037113617122401E-012
                   181  3.648885443818214E-006
                   182 -1.216633952943250E-004
                   183 -3.262813125559650E-004
                   184  3.235970704310180E-005
                   185  1.466183029604960E-004
                   186 -6.257041609082060E-012
                   187  1.392458805185610E-008
                   188 -4.068325937963700E-005
                   189  7.209287194498300E-012
                   190 -1.334198176142180E-007
                   191  1.812711669013280E-005
                   192  5.289468120860110E-012
                   193  1.431371531040350E-007
                   194  5.440357626247160E-005
                   195  1.921482774749564E-005
                   196  4.180235724577620E-013
                   197  1.094724770287150E-008
                   198  9.155883540636480E-006
                   199 -6.886889408548140E-013
                   200  5.925264545307827E-005
                   201 -3.269935050721480E-012
                   202  7.307274260422460E-008
                   203  5.013869423627040E-005
                   204  1.414795824676630E-012
                   205 -1.162931892328217E-005
                   206  2.493986502657639E-013
                   207 -9.717904656347066E-009
                   208  3.151709996275020E-006
                   209  1.499159402159930E-012
                   210  3.016553141351046E-012
                   211  8.791098252323934E-009
                   212  3.855731771901560E-003
                   213 -2.325777832095970E-003
                   214  9.791840449633790E-013
                   215  4.677852515621310E-004
                   216  3.805892503842620E-004
                   217  3.855779499961860E-003
                   218 -2.325792880313460E-003
                   219 -8.174025198501770E-013
                   220 -4.678105523384080E-004
                   221  3.806010405034400E-004
                   222 -6.698673061588050E-004
                   223 -1.197915482306410E-004
                   224  4.029889666510290E-013
                   225 -1.696895045719600E-005
                   226 -4.527507695884690E-005
                   227 -6.699479737318360E-004
                   228 -1.194827228044190E-004
                   229 -1.865016280588140E-012
                   230  1.694531057745440E-005
                   231 -4.530671187402410E-005
                   232 -2.338896772431120E-004
                   233 -4.095131678854300E-004
                   234  9.160449121300779E-014
                   235 -5.665286495073600E-006
                   236  5.929770494179730E-006
                   237 -2.340107813271780E-004
                   238 -4.096029898217810E-004
                   239 -8.599653797220130E-013
                   240  5.733835013751130E-006
                   241  5.968084872317270E-006
                   242  6.905403682145471E-005
                   243 -1.307584257277040E-004
                   244 -9.906510468594529E-013
                   245 -6.987296361313620E-009
                   246  1.437621138523760E-005
 Sym= __2_a__
 Ene=  0.000000000000000E+000
 Spin= Alpha
 Occup=    2.00000000000000     
                     1 -4.667499154619230E-005
                     2 -2.158582957395220E-004
                     3  2.293797215162790E-003
                     4  1.018625692356580E-004
                     5  1.263778098273720E-003
                     6  1.943970728503700E-011
                     7  5.315864067651510E-009
                     8  3.012033155532980E-003
                     9 -3.123444352801370E-012
                    10 -3.662526680586690E-009
                    11 -4.986892527771710E-005
                    12 -1.955434076504740E-011
                    13  4.488484470519370E-009
                    14 -5.489398402322590E-004
                    15  4.269282052012543E-005
                    16 -2.323966583101040E-012
                    17  4.199054229337680E-010
                    18  6.537515991836660E-005
                    19 -1.487732873304220E-013
                    20 -2.856596020023081E-004
                    21 -1.398614911179710E-013
                    22  1.987653131492200E-010
                    23 -3.371009209914840E-004
                    24  1.457890671264280E-012
                    25  1.801054279052038E-004
                    26  1.848192775878125E-012
                    27 -7.575248968511096E-010
                    28 -5.846413179028680E-007
                    29 -2.418977652696400E-012
                    30 -6.575382112033677E-012
                    31  7.858600344617551E-010
                    32   1.00106048576313     
                    33  9.290486329687330E-003
                    34  2.631927886194440E-003
                    35 -7.762662693759510E-003
                    36 -7.880712984062350E-013
                    37 -5.161924791416670E-009
                    38 -4.151433350893020E-003
                    39 -5.833788817162170E-012
                    40  1.597728244499500E-009
                    41  1.004248023684360E-003
                    42  5.914553734328720E-012
                    43 -6.025830620972910E-008
                    44  4.449275040750330E-003
                    45  4.767335812208221E-004
                    46 -9.522238060069029E-013
                    47 -2.917801986321080E-009
                    48 -4.313122792749860E-004
                    49  4.302651154677000E-012
                    50  5.827162307563694E-004
                    51  3.550955533470150E-012
                    52  9.757052134742930E-009
                    53  9.397974233831760E-004
                    54  3.769531172540170E-012
                    55  3.869397349390983E-004
                    56  1.812039552422177E-012
                    57 -6.797131182395318E-010
                    58 -2.063127903426520E-004
                    59  5.938431101451730E-012
                    60 -8.917239894752357E-013
                    61  1.511284960372828E-009
                    62  7.187591416090340E-003
                    63 -2.058804821810210E-003
                    64 -2.763567211621060E-004
                    65  3.040472834429500E-003
                    66  3.376112405891310E-012
                    67  9.397967279153979E-005
                    68 -7.578028352730060E-006
                    69 -1.053781525535360E-011
                    70  6.013038856163090E-004
                    71  1.685111228239360E-005
                    72  1.252301006218990E-011
                    73 -2.098423305023010E-003
                    74  9.605221280838830E-005
                    75 -1.502052084701518E-005
                    76 -2.848715342760150E-012
                    77  1.367821501147220E-005
                    78  2.896765397710580E-005
                    79 -1.287242435006270E-014
                    80  7.635685315848041E-004
                    81  1.046991857252730E-012
                    82 -4.229271084500170E-004
                    83 -1.131272529805058E-005
                    84 -1.274017794017960E-012
                    85  7.338094833839199E-005
                    86 -3.922876460410029E-012
                    87  4.622581002553670E-005
                    88 -1.272075396146480E-004
                    89 -4.549315695871780E-012
                    90  3.762694542474251E-012
                    91  5.017361989931155E-005
                    92  7.187565849314760E-003
                    93 -2.058890502565560E-003
                    94 -2.763988397841230E-004
                    95  3.040675030028450E-003
                    96  8.549999633554210E-012
                    97 -9.398094899254850E-005
                    98 -7.600301126911400E-006
                    99 -8.654720038021560E-012
                   100 -6.013019426884940E-004
                   101  1.698057068894500E-005
                   102 -1.043805144325460E-011
                   103  2.098548938179510E-003
                   104  9.590896231465830E-005
                   105 -1.500580402857440E-005
                   106  1.484395587467620E-012
                   107 -1.368440888818990E-005
                   108  2.896618272261780E-005
                   109 -2.220426296827270E-012
                   110  7.636263446085494E-004
                   111 -4.391456670791690E-012
                   112  4.229743223311170E-004
                   113 -1.129387499988044E-005
                   114  4.040066219336810E-012
                   115  7.336807952367896E-005
                   116  8.103109369347725E-013
                   117 -4.622305333838515E-005
                   118 -1.272050940518704E-004
                   119 -3.202421321838230E-012
                   120  4.271277411878130E-012
                   121 -5.017218990526666E-005
                   122 -2.333631250194350E-004
                   123 -7.541314014921710E-004
                   124  2.243955327964890E-004
                   125 -1.094893727961730E-004
                   126 -9.885786702638461E-012
                   127 -1.799463749888430E-005
                   128 -2.559278458207210E-004
                   129  2.155716032727170E-011
                   130 -9.655138854110240E-006
                   131  5.352290200497020E-004
                   132 -1.782647973166370E-011
                   133  3.288336442902380E-004
                   134  7.514460438997910E-004
                   135 -1.389030660970590E-005
                   136  5.405416088735881E-013
                   137  5.166686162979570E-005
                   138  1.390497939850354E-005
                   139  1.932657446621090E-012
                   140 -2.891550301505067E-004
                   141 -5.397400691829790E-013
                   142 -2.182507587287170E-004
                   143 -1.299600421494476E-005
                   144  3.667956727321250E-012
                   145  1.311572471030424E-006
                   146  4.058563256088847E-012
                   147 -4.127776697060892E-005
                   148 -3.985129132272740E-005
                   149  3.548097320540230E-012
                   150  3.433935548372889E-012
                   151 -5.518458594696308E-006
                   152 -2.330839055826920E-004
                   153 -7.532038622366020E-004
                   154  2.244560106753870E-004
                   155 -1.104595028454960E-004
                   156 -1.489890069414880E-011
                   157  1.798720216419950E-005
                   158 -2.559321443777270E-004
                   159  1.072224523964280E-011
                   160  9.688418030923560E-006