[Molden Format]
[Atoms] AU
  N     1    7     0.0000000000    0.0000000000   -4.2907334100        
  C     2    6     0.0000000000    0.0000000000   -1.7772236300        
  C     3    6     0.0000000000   -2.3389203600   -0.4111016300        
  C     4    6     0.0000000000    2.3389203600   -0.4111016300        
  C     5    6     0.0000000000   -2.2998668500    2.1639215300        
  C     6    6     0.0000000000    2.2998668500    2.1639215300        
  C     7    6     0.0000000000    0.0000000000    3.4755251800        
  H     8    1     0.0000000000   -1.6528040300   -5.3103747800        
  H     9    1     0.0000000000    1.6528040300   -5.3103747800        
  H    10    1     0.0000000000   -4.0745407300   -1.4447408500        
  H    11    1     0.0000000000    4.0745407300   -1.4447408500        
  H    12    1     0.0000000000   -4.0420632100    3.1963889500        
  H    13    1     0.0000000000    4.0420632100    3.1963889500        
  H    14    1     0.0000000000    0.0000000000    5.5020335600        
[5D]
[7F]
[GTO]
  1  0
   s    12 1.00
  0.114200D+05  0.172695D-04
  0.171200D+04  0.134411D-03
  0.389300D+03  0.694561D-03
  0.110000D+03  0.278531D-02
  0.355700D+02  0.863457D-02
  0.125400D+02  0.199805D-01
  0.464400D+01  0.262908D-01
  0.129300D+01 -0.243845D-01
  0.511800D+00 -0.924934D-01
  0.178700D+00 -0.339683D+00
  0.246240D-01  0.345111D+00
  0.112530D-01  0.752750D+00
   s    10 1.00
  0.114200D+05  0.523000D-03
  0.171200D+04  0.404500D-02
  0.389300D+03  0.207750D-01
  0.110000D+03  0.807269D-01
  0.355700D+02  0.233074D+00
  0.125400D+02  0.433501D+00
  0.464400D+01  0.347472D+00
  0.129300D+01  0.412620D-01
  0.511800D+00 -0.850799D-02
  0.178700D+00  0.238400D-02
   s    10 1.00
  0.114200D+05 -0.115000D-03
  0.171200D+04 -0.895000D-03
  0.389300D+03 -0.462400D-02
  0.110000D+03 -0.185280D-01
  0.355700D+02 -0.573390D-01
  0.125400D+02 -0.132076D+00
  0.464400D+01 -0.172510D+00
  0.129300D+01  0.151814D+00
  0.511800D+00  0.599944D+00
  0.178700D+00  0.387462D+00
   s     1 1.00
  0.129300D+01  0.100000D+01
   s     1 1.00
  0.178700D+00  0.100000D+01
   p     5 1.00
  0.266300D+02  0.146700D-01
  0.594800D+01  0.917640D-01
  0.174200D+01  0.298683D+00
  0.555000D+00  0.498487D+00
  0.172500D+00  0.337023D+00
   p     1 1.00
  0.174200D+01  0.100000D+01
   p     1 1.00
  0.555000D+00  0.100000D+01
   d     1 1.00
  0.165400D+01  0.100000D+01
   d     1 1.00
  0.469000D+00  0.100000D+01
   f     1 1.00
  0.109300D+01  0.100000D+01
  
  2  0
   s    10 1.00
  0.823600D+04  0.531000D-03
  0.123500D+04  0.410800D-02
  0.280800D+03  0.210870D-01
  0.792700D+02  0.818530D-01
  0.255900D+02  0.234817D+00
  0.899700D+01  0.434401D+00
  0.331900D+01  0.346129D+00
  0.905900D+00  0.393780D-01
  0.364300D+00 -0.898300D-02
  0.128500D+00  0.238500D-02
   s    10 1.00
  0.823600D+04 -0.113000D-03
  0.123500D+04 -0.878000D-03
  0.280800D+03 -0.454000D-02
  0.792700D+02 -0.181330D-01
  0.255900D+02 -0.557600D-01
  0.899700D+01 -0.126895D+00
  0.331900D+01 -0.170352D+00
  0.905900D+00  0.140382D+00
  0.364300D+00  0.598684D+00
  0.128500D+00  0.395389D+00
   s     1 1.00
  0.905900D+00  0.100000D+01
   s     1 1.00
  0.364300D+00  0.100000D+01
   p     5 1.00
  0.187100D+02  0.140310D-01
  0.413300D+01  0.868660D-01
  0.120000D+01  0.290216D+00
  0.382700D+00  0.501008D+00
  0.120900D+00  0.343406D+00
   p     1 1.00
  0.382700D+00  0.100000D+01
   p     1 1.00
  0.120900D+00  0.100000D+01
   d     1 1.00
  0.109700D+01  0.100000D+01
   d     1 1.00
  0.318000D+00  0.100000D+01
   f     1 1.00
  0.761000D+00  0.100000D+01
  
  3  0
   s    10 1.00
  0.823600D+04  0.531000D-03
  0.123500D+04  0.410800D-02
  0.280800D+03  0.210870D-01
  0.792700D+02  0.818530D-01
  0.255900D+02  0.234817D+00
  0.899700D+01  0.434401D+00
  0.331900D+01  0.346129D+00
  0.905900D+00  0.393780D-01
  0.364300D+00 -0.898300D-02
  0.128500D+00  0.238500D-02
   s    10 1.00
  0.823600D+04 -0.113000D-03
  0.123500D+04 -0.878000D-03
  0.280800D+03 -0.454000D-02
  0.792700D+02 -0.181330D-01
  0.255900D+02 -0.557600D-01
  0.899700D+01 -0.126895D+00
  0.331900D+01 -0.170352D+00
  0.905900D+00  0.140382D+00
  0.364300D+00  0.598684D+00
  0.128500D+00  0.395389D+00
   s     1 1.00
  0.905900D+00  0.100000D+01
   s     1 1.00
  0.364300D+00  0.100000D+01
   p     5 1.00
  0.187100D+02  0.140310D-01
  0.413300D+01  0.868660D-01
  0.120000D+01  0.290216D+00
  0.382700D+00  0.501008D+00
  0.120900D+00  0.343406D+00
   p     1 1.00
  0.382700D+00  0.100000D+01
   p     1 1.00
  0.120900D+00  0.100000D+01
   d     1 1.00
  0.109700D+01  0.100000D+01
   d     1 1.00
  0.318000D+00  0.100000D+01
   f     1 1.00
  0.761000D+00  0.100000D+01
  
  4  0
   s    10 1.00
  0.823600D+04  0.531000D-03
  0.123500D+04  0.410800D-02
  0.280800D+03  0.210870D-01
  0.792700D+02  0.818530D-01
  0.255900D+02  0.234817D+00
  0.899700D+01  0.434401D+00
  0.331900D+01  0.346129D+00
  0.905900D+00  0.393780D-01
  0.364300D+00 -0.898300D-02
  0.128500D+00  0.238500D-02
   s    10 1.00
  0.823600D+04 -0.113000D-03
  0.123500D+04 -0.878000D-03
  0.280800D+03 -0.454000D-02
  0.792700D+02 -0.181330D-01
  0.255900D+02 -0.557600D-01
  0.899700D+01 -0.126895D+00
  0.331900D+01 -0.170352D+00
  0.905900D+00  0.140382D+00
  0.364300D+00  0.598684D+00
  0.128500D+00  0.395389D+00
   s     1 1.00
  0.905900D+00  0.100000D+01
   s     1 1.00
  0.364300D+00  0.100000D+01
   p     5 1.00
  0.187100D+02  0.140310D-01
  0.413300D+01  0.868660D-01
  0.120000D+01  0.290216D+00
  0.382700D+00  0.501008D+00
  0.120900D+00  0.343406D+00
   p     1 1.00
  0.382700D+00  0.100000D+01
   p     1 1.00
  0.120900D+00  0.100000D+01
   d     1 1.00
  0.109700D+01  0.100000D+01
   d     1 1.00
  0.318000D+00  0.100000D+01
   f     1 1.00
  0.761000D+00  0.100000D+01
  
  5  0
   s    10 1.00
  0.823600D+04  0.531000D-03
  0.123500D+04  0.410800D-02
  0.280800D+03  0.210870D-01
  0.792700D+02  0.818530D-01
  0.255900D+02  0.234817D+00
  0.899700D+01  0.434401D+00
  0.331900D+01  0.346129D+00
  0.905900D+00  0.393780D-01
  0.364300D+00 -0.898300D-02
  0.128500D+00  0.238500D-02
   s    10 1.00
  0.823600D+04 -0.113000D-03
  0.123500D+04 -0.878000D-03
  0.280800D+03 -0.454000D-02
  0.792700D+02 -0.181330D-01
  0.255900D+02 -0.557600D-01
  0.899700D+01 -0.126895D+00
  0.331900D+01 -0.170352D+00
  0.905900D+00  0.140382D+00
  0.364300D+00  0.598684D+00
  0.128500D+00  0.395389D+00
   s     1 1.00
  0.905900D+00  0.100000D+01
   s     1 1.00
  0.364300D+00  0.100000D+01
   p     5 1.00
  0.187100D+02  0.140310D-01
  0.413300D+01  0.868660D-01
  0.120000D+01  0.290216D+00
  0.382700D+00  0.501008D+00
  0.120900D+00  0.343406D+00
   p     1 1.00
  0.382700D+00  0.100000D+01
   p     1 1.00
  0.120900D+00  0.100000D+01
   d     1 1.00
  0.109700D+01  0.100000D+01
   d     1 1.00
  0.318000D+00  0.100000D+01
   f     1 1.00
  0.761000D+00  0.100000D+01
  
  6  0
   s    10 1.00
  0.823600D+04  0.531000D-03
  0.123500D+04  0.410800D-02
  0.280800D+03  0.210870D-01
  0.792700D+02  0.818530D-01
  0.255900D+02  0.234817D+00
  0.899700D+01  0.434401D+00
  0.331900D+01  0.346129D+00
  0.905900D+00  0.393780D-01
  0.364300D+00 -0.898300D-02
  0.128500D+00  0.238500D-02
   s    10 1.00
  0.823600D+04 -0.113000D-03
  0.123500D+04 -0.878000D-03
  0.280800D+03 -0.454000D-02
  0.792700D+02 -0.181330D-01
  0.255900D+02 -0.557600D-01
  0.899700D+01 -0.126895D+00
  0.331900D+01 -0.170352D+00
  0.905900D+00  0.140382D+00
  0.364300D+00  0.598684D+00
  0.128500D+00  0.395389D+00
   s     1 1.00
  0.905900D+00  0.100000D+01
   s     1 1.00
  0.364300D+00  0.100000D+01
   p     5 1.00
  0.187100D+02  0.140310D-01
  0.413300D+01  0.868660D-01
  0.120000D+01  0.290216D+00
  0.382700D+00  0.501008D+00
  0.120900D+00  0.343406D+00
   p     1 1.00
  0.382700D+00  0.100000D+01
   p     1 1.00
  0.120900D+00  0.100000D+01
   d     1 1.00
  0.109700D+01  0.100000D+01
   d     1 1.00
  0.318000D+00  0.100000D+01
   f     1 1.00
  0.761000D+00  0.100000D+01
  
  7  0
   s    10 1.00
  0.823600D+04  0.531000D-03
  0.123500D+04  0.410800D-02
  0.280800D+03  0.210870D-01
  0.792700D+02  0.818530D-01
  0.255900D+02  0.234817D+00
  0.899700D+01  0.434401D+00
  0.331900D+01  0.346129D+00
  0.905900D+00  0.393780D-01
  0.364300D+00 -0.898300D-02
  0.128500D+00  0.238500D-02
   s    10 1.00
  0.823600D+04 -0.113000D-03
  0.123500D+04 -0.878000D-03
  0.280800D+03 -0.454000D-02
  0.792700D+02 -0.181330D-01
  0.255900D+02 -0.557600D-01
  0.899700D+01 -0.126895D+00
  0.331900D+01 -0.170352D+00
  0.905900D+00  0.140382D+00
  0.364300D+00  0.598684D+00
  0.128500D+00  0.395389D+00
   s     1 1.00
  0.905900D+00  0.100000D+01
   s     1 1.00
  0.364300D+00  0.100000D+01
   p     5 1.00
  0.187100D+02  0.140310D-01
  0.413300D+01  0.868660D-01
  0.120000D+01  0.290216D+00
  0.382700D+00  0.501008D+00
  0.120900D+00  0.343406D+00
   p     1 1.00
  0.382700D+00  0.100000D+01
   p     1 1.00
  0.120900D+00  0.100000D+01
   d     1 1.00
  0.109700D+01  0.100000D+01
   d     1 1.00
  0.318000D+00  0.100000D+01
   f     1 1.00
  0.761000D+00  0.100000D+01
  
  8  0
   s     4 1.00
  0.130100D+02  0.196850D-01
  0.196200D+01  0.137977D+00
  0.444600D+00  0.478148D+00
  0.122000D+00  0.501240D+00
   s     1 1.00
  0.122000D+00  0.100000D+01
   p     1 1.00
  0.727000D+00  0.100000D+01
  
  9  0
   s     4 1.00
  0.130100D+02  0.196850D-01
  0.196200D+01  0.137977D+00
  0.444600D+00  0.478148D+00
  0.122000D+00  0.501240D+00
   s     1 1.00
  0.122000D+00  0.100000D+01
   p     1 1.00
  0.727000D+00  0.100000D+01
  
 10  0
   s     4 1.00
  0.130100D+02  0.196850D-01
  0.196200D+01  0.137977D+00
  0.444600D+00  0.478148D+00
  0.122000D+00  0.501240D+00
   s     1 1.00
  0.122000D+00  0.100000D+01
   p     1 1.00
  0.727000D+00  0.100000D+01
  
 11  0
   s     4 1.00
  0.130100D+02  0.196850D-01
  0.196200D+01  0.137977D+00
  0.444600D+00  0.478148D+00
  0.122000D+00  0.501240D+00
   s     1 1.00
  0.122000D+00  0.100000D+01
   p     1 1.00
  0.727000D+00  0.100000D+01
  
 12  0
   s     4 1.00
  0.130100D+02  0.196850D-01
  0.196200D+01  0.137977D+00
  0.444600D+00  0.478148D+00
  0.122000D+00  0.501240D+00
   s     1 1.00
  0.122000D+00  0.100000D+01
   p     1 1.00
  0.727000D+00  0.100000D+01
  
 13  0
   s     4 1.00
  0.130100D+02  0.196850D-01
  0.196200D+01  0.137977D+00
  0.444600D+00  0.478148D+00
  0.122000D+00  0.501240D+00
   s     1 1.00
  0.122000D+00  0.100000D+01
   p     1 1.00
  0.727000D+00  0.100000D+01
  
 14  0
   s     4 1.00
  0.130100D+02  0.196850D-01
  0.196200D+01  0.137977D+00
  0.444600D+00  0.478148D+00
  0.122000D+00  0.501240D+00
   s     1 1.00
  0.122000D+00  0.100000D+01
   p     1 1.00
  0.727000D+00  0.100000D+01
  
[MO]
 Sym= __1_A__
 Ene=   1.00000000000000     
 Spin= Alpha
 Occup=    1.00000000000000     
                     1  4.178884268621994E-005
                     2  0.998070789431624     
                     3  9.271367561395969E-003
                     4  2.061406877880854E-003
                     5  1.526243341423652E-003
                     6 -1.257456492282930E-011
                     7  5.810239217035638E-010
                     8  4.485098571631091E-003
                     9  6.758547922488366E-012
                    10  1.320660833043974E-008
                    11 -1.185993254820123E-004
                    12  2.777182494149202E-012
                    13 -6.500889407016062E-008
                    14 -7.813425788244547E-005
                    15  2.694145466590064E-004
                    16  2.322098966409296E-013
                    17 -1.003814131542741E-010
                    18 -1.181463213710018E-004
                    19 -6.918563950485325E-013
                    20  1.644127142005900E-004
                    21 -1.551235469273946E-012
                    22 -1.116138038076661E-008
                    23  5.836993637467244E-004
                    24  1.528517192455597E-012
                    25 -1.898054119811856E-004
                    26 -6.787885629541892E-013
                    27 -4.686976861395315E-009
                    28  9.191641025054129E-005
                    29  1.391010783354074E-012
                    30  3.429620949285767E-012
                    31  2.340192762549719E-010
                    32 -3.712510919354083E-004
                    33  2.713595920245637E-003
                    34  1.460054860081309E-004
                    35 -2.435590242459311E-004
                    36 -1.172440248162753E-012
                    37  2.863956093032633E-008
                    38 -7.114262328581360E-003
                    39  3.796953082016571E-012
                    40 -1.113613045487912E-007
                    41  3.886243832503254E-004
                    42  2.037625567694757E-013
                    43 -1.227866795677440E-007
                    44  4.409457388199025E-003
                    45  3.493436254521600E-004
                    46  2.635649981573637E-012
                    47  7.959044431536138E-009
                    48  1.387026802566695E-004
                    49  6.240816394426889E-013
                    50  4.415902332114574E-005
                    51 -4.430789210965299E-012
                    52 -1.763562676189269E-007
                    53 -4.613367485521732E-004
                    54 -4.837869620189012E-012
                    55 -1.115855121460906E-004
                    56  5.094456491746130E-013
                    57  3.316726096613797E-009
                    58  7.825669846186052E-005
                    59 -4.153695215125976E-013
                    60  1.957934412224695E-012
                    61  2.714043371902876E-009
                    62 -2.113677787842893E-004
                    63 -1.681881043616960E-003
                    64  6.058073054192239E-005
                    65  5.537430470555423E-004
                    66  9.932605407349057E-012
                    67 -8.410080764003189E-004
                    68  1.015333301297595E-003
                    69 -9.322799591553901E-012
                    70 -3.614387063721413E-005
                    71  6.248771045764234E-004
                    72 -1.836044973047626E-012
                    73 -5.631981218149791E-004
                    74 -1.309443494521027E-004
                    75  9.260030901304931E-005
                    76  2.047475616537241E-012
                    77 -8.431257179850512E-006
                    78  4.208187182041612E-005
                    79  1.586472799527884E-012
                    80 -2.533184800163339E-005
                    81  3.627266059457212E-012
                    82  2.128991028871149E-004
                    83 -3.122633563953370E-005
                    84 -2.811551190251584E-012
                    85 -9.341353730871078E-005
                    86  2.978386670925818E-012
                    87 -2.993838184406459E-005
                    88  1.997455596180163E-005
                    89  1.293194181135861E-012
                    90 -2.199288306572663E-012
                    91  1.278687856353964E-005
                    92 -2.113494303176491E-004
                    93 -1.681793227221943E-003
                    94  6.075806670195094E-005
                    95  5.531603501026654E-004
                    96 -6.797509061983942E-012
                    97  8.410447827273122E-004
                    98  1.015464983287991E-003
                    99  4.294288266212796E-012
                   100  3.593745845387005E-005
                   101  6.240879649938538E-004
                   102  7.132481258090730E-012
                   103  5.625826119688157E-004
                   104 -1.310835098142663E-004
                   105  9.256353388219365E-005
                   106  1.401020732386204E-012
                   107  8.447024466872270E-006
                   108  4.208505616175030E-005
                   109 -4.079840088336883E-013
                   110 -2.583181911243808E-005
                   111  7.436032911208581E-013
                   112 -2.129661371514564E-004
                   113 -3.135243753882268E-005
                   114 -8.056611160091617E-013
                   115 -9.334330764765691E-005
                   116  1.932144578435485E-012
                   117  2.992264507399768E-005
                   118  1.997573821497922E-005
                   119  1.198562301311495E-012
                   120  1.553428659599690E-012
                   121 -1.278522439099307E-005
                   122 -1.476801146522301E-004
                   123  7.369564569577445E-006
                   124  1.108566302889623E-004
                   125  1.283287009209510E-004
                   126  3.258151090583550E-012
                   127  4.132220701482378E-005
                   128 -8.000079267143903E-004
                   129 -5.556288440471325E-012
                   130  2.019209125976537E-005
                   131  3.515026652841795E-004
                   132 -4.377875606578129E-012
                   133 -1.723652720180224E-004
                   134  7.086277663726772E-004
                   135 -1.739170010093567E-005
                   136 -1.450687204431164E-012
                   137  1.813138536621209E-006
                   138  1.505350091831145E-006
                   139  1.090793983903010E-012
                   140 -1.890319747645776E-004
                   141  3.506949010815607E-012
                   142  1.700553939318333E-004
                   143  1.256200134424257E-005
                   144 -1.925809027962757E-012
                   145 -3.929468039125796E-005
                   146 -1.817339187099361E-012
                   147  1.410966945119281E-006
                   148 -9.710131911438206E-006
                   149 -3.431045505849768E-012
                   150 -1.136011347895318E-012
                   151 -3.654766405498863E-006
                   152 -1.481145261011406E-004
                   153  5.829561961925170E-006
                   154  1.104327953627359E-004
                   155  1.310100565429820E-004
                   156 -1.033755286623229E-011
                   157 -4.136222893070551E-005
                   158 -7.999223095723036E-004
                   159  8.197718599442315E-012
                   160 -2.017937793141373E-005
                   161  3.508845511299207E-004
                   162 -4.305862538590188E-012
                   163  1.730210137030139E-004
                   164  7.084983422751119E-004
                   165 -1.733755217155180E-005
                   166 -6.805970805290486E-013
                   167 -1.806816417261177E-006
                   168  1.470221245557819E-006
                   169 -2.797928120387012E-012
                   170 -1.887811543339369E-004
                   171  4.293714593870855E-013
                   172 -1.701788578105974E-004
                   173  1.259186303515059E-005
                   174  5.450271986315600E-012
                   175 -3.920857309458851E-005
                   176  8.514761000727769E-013
                   177 -1.382069842239654E-006
                   178 -9.743908517474635E-006
                   179  1.316517862921306E-012
                   180  1.037113617122400E-012
                   181  3.648885443818212E-006
                   182 -1.216633952943253E-004
                   183 -3.262813125559649E-004
                   184  3.235970704310178E-005
                   185  1.466183029604963E-004
                   186 -6.257041609082058E-012
                   187  1.392458805185615E-008
                   188 -4.068325937963703E-005
                   189  7.209287194498304E-012
                   190 -1.334198176142181E-007
                   191  1.812711669013284E-005
                   192  5.289468120860105E-012
                   193  1.431371531040353E-007
                   194  5.440357626247156E-005
                   195  1.921482774749564E-005
                   196  4.180235724577621E-013
                   197  1.094724770287152E-008
                   198  9.155883540636477E-006
                   199 -6.886889408548138E-013
                   200  5.925264545307827E-005
                   201 -3.269935050721484E-012
                   202  7.307274260422459E-008
                   203  5.013869423627032E-005
                   204  1.414795824676628E-012
                   205 -1.162931892328218E-005
                   206  2.493986502657636E-013
                   207 -9.717904656347066E-009
                   208  3.151709996275022E-006
                   209  1.499159402159931E-012
                   210  3.016553141351054E-012
                   211  8.791098252323929E-009
                   212  3.855731771901562E-003
                   213 -2.325777832095970E-003
                   214  9.791840449633790E-013
                   215  4.677852515621312E-004
                   216  3.805892503842621E-004
                   217  3.855779499961858E-003
                   218 -2.325792880313462E-003
                   219 -8.174025198501770E-013
                   220 -4.678105523384082E-004
                   221  3.806010405034399E-004
                   222 -6.698673061588046E-004
                   223 -1.197915482306415E-004
                   224  4.029889666510294E-013
                   225 -1.696895045719600E-005
                   226 -4.527507695884689E-005
                   227 -6.699479737318356E-004
                   228 -1.194827228044188E-004
                   229 -1.865016280588139E-012
                   230  1.694531057745439E-005
                   231 -4.530671187402405E-005
                   232 -2.338896772431122E-004
                   233 -4.095131678854299E-004
                   234  9.160449121300783E-014
                   235 -5.665286495073597E-006
                   236  5.929770494179734E-006
                   237 -2.340107813271783E-004
                   238 -4.096029898217814E-004
                   239 -8.599653797220133E-013
                   240  5.733835013751128E-006
                   241  5.968084872317271E-006
                   242  6.905403682145471E-005
                   243 -1.307584257277040E-004
                   244 -9.906510468594533E-013
                   245 -6.987296361313625E-009
                   246  1.437621138523757E-005
 Sym= __2_A__
 Ene=   2.00000000000000     
 Spin= Alpha
 Occup=    1.00000000000000     
                     1 -4.667499154619233E-005
                     2 -2.158582957395222E-004
                     3  2.293797215162794E-003
                     4  1.018625692356585E-004
                     5  1.263778098273720E-003
                     6  1.943970728503697E-011
                     7  5.315864067651506E-009
                     8  3.012033155532977E-003
                     9 -3.123444352801368E-012
                    10 -3.662526680586684E-009
                    11 -4.986892527771712E-005
                    12 -1.955434076504744E-011
                    13  4.488484470519365E-009
                    14 -5.489398402322586E-004
                    15  4.269282052012529E-005
                    16 -2.323966583101036E-012
                    17  4.199054229337677E-010
                    18  6.537515991836662E-005
                    19 -1.487732873304215E-013
                    20 -2.856596020023081E-004
                    21 -1.398614911179706E-013
                    22  1.987653131492202E-010
                    23 -3.371009209914836E-004
                    24  1.457890671264275E-012
                    25  1.801054279052038E-004
                    26  1.848192775878126E-012
                    27 -7.575248968511089E-010
                    28 -5.846413179028674E-007
                    29 -2.418977652696401E-012
                    30 -6.575382112033684E-012
                    31  7.858600344617535E-010
                    32   1.00106048576313     
                    33  9.290486329687325E-003
                    34  2.631927886194441E-003
                    35 -7.762662693759504E-003
                    36 -7.880712984062351E-013
                    37 -5.161924791416669E-009
                    38 -4.151433350893019E-003
                    39 -5.833788817162171E-012
                    40  1.597728244499496E-009
                    41  1.004248023684364E-003
                    42  5.914553734328721E-012
                    43 -6.025830620972911E-008
                    44  4.449275040750333E-003
                    45  4.767335812208227E-004
                    46 -9.522238060069029E-013
                    47 -2.917801986321084E-009
                    48 -4.313122792749850E-004
                    49  4.302651154676997E-012
                    50  5.827162307563676E-004
                    51  3.550955533470152E-012
                    52  9.757052134742923E-009
                    53  9.397974233831750E-004
                    54  3.769531172540165E-012
                    55  3.869397349390991E-004
                    56  1.812039552422174E-012
                    57 -6.797131182395300E-010
                    58 -2.063127903426520E-004
                    59  5.938431101451730E-012
                    60 -8.917239894752355E-013
                    61  1.511284960372829E-009
                    62  7.187591416090342E-003
                    63 -2.058804821810209E-003
                    64 -2.763567211621062E-004
                    65  3.040472834429503E-003
                    66  3.376112405891307E-012
                    67  9.397967279153984E-005
                    68 -7.578028352730057E-006
                    69 -1.053781525535362E-011
                    70  6.013038856163089E-004
                    71  1.685111228239359E-005
                    72  1.252301006218989E-011
                    73 -2.098423305023015E-003
                    74  9.605221280838824E-005
                    75 -1.502052084701516E-005
                    76 -2.848715342760152E-012
                    77  1.367821501147218E-005
                    78  2.896765397710578E-005
                    79 -1.287242435006268E-014
                    80  7.635685315848048E-004
                    81  1.046991857252726E-012
                    82 -4.229271084500175E-004
                    83 -1.131272529805059E-005
                    84 -1.274017794017957E-012
                    85  7.338094833839205E-005
                    86 -3.922876460410029E-012
                    87  4.622581002553666E-005
                    88 -1.272075396146479E-004
                    89 -4.549315695871776E-012
                    90  3.762694542474251E-012
                    91  5.017361989931136E-005
                    92  7.187565849314755E-003
                    93 -2.058890502565563E-003
                    94 -2.763988397841231E-004
                    95  3.040675030028448E-003
                    96  8.549999633554212E-012
                    97 -9.398094899254850E-005
                    98 -7.600301126911400E-006
                    99 -8.654720038021562E-012
                   100 -6.013019426884938E-004
                   101  1.698057068894497E-005
                   102 -1.043805144325461E-011
                   103  2.098548938179511E-003
                   104  9.590896231465832E-005
                   105 -1.500580402857440E-005
                   106  1.484395587467614E-012
                   107 -1.368440888818993E-005
                   108  2.896618272261776E-005
                   109 -2.220426296827268E-012
                   110  7.636263446085473E-004
                   111 -4.391456670791685E-012
                   112  4.229743223311166E-004
                   113 -1.129387499988043E-005
                   114  4.040066219336812E-012
                   115  7.336807952367885E-005
                   116  8.103109369347751E-013
                   117 -4.622305333838512E-005
                   118 -1.272050940518704E-004
                   119 -3.202421321838232E-012
                   120  4.271277411878130E-012
                   121 -5.017218990526651E-005
                   122 -2.333631250194354E-004
                   123 -7.541314014921712E-004
                   124  2.243955327964894E-004
                   125 -1.094893727961730E-004
                   126 -9.885786702638457E-012
                   127 -1.799463749888427E-005
                   128 -2.559278458207209E-004
                   129  2.155716032727166E-011
                   130 -9.655138854110237E-006
                   131  5.352290200497022E-004
                   132 -1.782647973166369E-011
                   133  3.288336442902375E-004
                   134  7.514460438997907E-004
                   135 -1.389030660970590E-005
                   136  5.405416088735879E-013
                   137  5.166686162979565E-005
                   138  1.390497939850354E-005
                   139  1.932657446621093E-012
                   140 -2.891550301505065E-004
                   141 -5.397400691829790E-013
                   142 -2.182507587287175E-004
                   143 -1.299600421494477E-005
                   144  3.667956727321250E-012
                   145  1.311572471030424E-006
                   146  4.058563256088848E-012
                   147 -4.127776697060889E-005
                   148 -3.985129132272740E-005
                   149  3.548097320540225E-012
                   150  3.433935548372891E-012
                   151 -5.518458594696303E-006
                   152 -2.330839055826924E-004
                   153 -7.532038622366024E-004
                   154  2.244560106753865E-004
                   155 -1.104595028454955E-004
                   156 -1.489890069414883E-011
                   157  1.798720216419946E-005
                   158 -2.559321443777265E-004
                   159  1.072224523964277E-011
                   160  9.688418030923558E-006