[Molden Format]
[Atoms] AU
  N     1    7     0.0000000000    0.0000000000   -4.2935160100        
  C     2    6     0.0000000000    0.0000000000   -1.7754750500        
  C     3    6     0.0000000000   -2.3387268100   -0.4122698900        
  C     4    6     0.0000000000    2.3387268100   -0.4122698900        
  C     5    6     0.0000000000   -2.2993769300    2.1653605500        
  C     6    6     0.0000000000    2.2993769300    2.1653605500        
  C     7    6     0.0000000000    0.0000000000    3.4760514900        
  H     8    1     0.0000000000   -1.6517176700   -5.3146695600        
  H     9    1     0.0000000000    1.6517176700   -5.3146695600        
  H    10    1     0.0000000000   -4.0740055200   -1.4442652500        
  H    11    1     0.0000000000    4.0740055200   -1.4442652500        
  H    12    1     0.0000000000   -4.0408991100    3.1979698300        
  H    13    1     0.0000000000    4.0408991100    3.1979698300        
  H    14    1     0.0000000000    0.0000000000    5.5021936200        
[5D]
[7F]
[GTO]
  1  0
   s    12 1.00
  0.114200D+05  0.172695D-04
  0.171200D+04  0.134411D-03
  0.389300D+03  0.694561D-03
  0.110000D+03  0.278531D-02
  0.355700D+02  0.863457D-02
  0.125400D+02  0.199805D-01
  0.464400D+01  0.262908D-01
  0.129300D+01 -0.243845D-01
  0.511800D+00 -0.924934D-01
  0.178700D+00 -0.339683D+00
  0.246240D-01  0.345111D+00
  0.112530D-01  0.752750D+00
   s    10 1.00
  0.114200D+05  0.523000D-03
  0.171200D+04  0.404500D-02
  0.389300D+03  0.207750D-01
  0.110000D+03  0.807269D-01
  0.355700D+02  0.233074D+00
  0.125400D+02  0.433501D+00
  0.464400D+01  0.347472D+00
  0.129300D+01  0.412620D-01
  0.511800D+00 -0.850799D-02
  0.178700D+00  0.238400D-02
   s    10 1.00
  0.114200D+05 -0.115000D-03
  0.171200D+04 -0.895000D-03
  0.389300D+03 -0.462400D-02
  0.110000D+03 -0.185280D-01
  0.355700D+02 -0.573390D-01
  0.125400D+02 -0.132076D+00
  0.464400D+01 -0.172510D+00
  0.129300D+01  0.151814D+00
  0.511800D+00  0.599944D+00
  0.178700D+00  0.387462D+00
   s     1 1.00
  0.129300D+01  0.100000D+01
   s     1 1.00
  0.178700D+00  0.100000D+01
   p     5 1.00
  0.266300D+02  0.146700D-01
  0.594800D+01  0.917640D-01
  0.174200D+01  0.298683D+00
  0.555000D+00  0.498487D+00
  0.172500D+00  0.337023D+00
   p     1 1.00
  0.174200D+01  0.100000D+01
   p     1 1.00
  0.555000D+00  0.100000D+01
   d     1 1.00
  0.165400D+01  0.100000D+01
   d     1 1.00
  0.469000D+00  0.100000D+01
   f     1 1.00
  0.109300D+01  0.100000D+01
  
  2  0
   s    10 1.00
  0.823600D+04  0.531000D-03
  0.123500D+04  0.410800D-02
  0.280800D+03  0.210870D-01
  0.792700D+02  0.818530D-01
  0.255900D+02  0.234817D+00
  0.899700D+01  0.434401D+00
  0.331900D+01  0.346129D+00
  0.905900D+00  0.393780D-01
  0.364300D+00 -0.898300D-02
  0.128500D+00  0.238500D-02
   s    10 1.00
  0.823600D+04 -0.113000D-03
  0.123500D+04 -0.878000D-03
  0.280800D+03 -0.454000D-02
  0.792700D+02 -0.181330D-01
  0.255900D+02 -0.557600D-01
  0.899700D+01 -0.126895D+00
  0.331900D+01 -0.170352D+00
  0.905900D+00  0.140382D+00
  0.364300D+00  0.598684D+00
  0.128500D+00  0.395389D+00
   s     1 1.00
  0.905900D+00  0.100000D+01
   s     1 1.00
  0.364300D+00  0.100000D+01
   p     5 1.00
  0.187100D+02  0.140310D-01
  0.413300D+01  0.868660D-01
  0.120000D+01  0.290216D+00
  0.382700D+00  0.501008D+00
  0.120900D+00  0.343406D+00
   p     1 1.00
  0.382700D+00  0.100000D+01
   p     1 1.00
  0.120900D+00  0.100000D+01
   d     1 1.00
  0.109700D+01  0.100000D+01
   d     1 1.00
  0.318000D+00  0.100000D+01
   f     1 1.00
  0.761000D+00  0.100000D+01
  
  3  0
   s    10 1.00
  0.823600D+04  0.531000D-03
  0.123500D+04  0.410800D-02
  0.280800D+03  0.210870D-01
  0.792700D+02  0.818530D-01
  0.255900D+02  0.234817D+00
  0.899700D+01  0.434401D+00
  0.331900D+01  0.346129D+00
  0.905900D+00  0.393780D-01
  0.364300D+00 -0.898300D-02
  0.128500D+00  0.238500D-02
   s    10 1.00
  0.823600D+04 -0.113000D-03
  0.123500D+04 -0.878000D-03
  0.280800D+03 -0.454000D-02
  0.792700D+02 -0.181330D-01
  0.255900D+02 -0.557600D-01
  0.899700D+01 -0.126895D+00
  0.331900D+01 -0.170352D+00
  0.905900D+00  0.140382D+00
  0.364300D+00  0.598684D+00
  0.128500D+00  0.395389D+00
   s     1 1.00
  0.905900D+00  0.100000D+01
   s     1 1.00
  0.364300D+00  0.100000D+01
   p     5 1.00
  0.187100D+02  0.140310D-01
  0.413300D+01  0.868660D-01
  0.120000D+01  0.290216D+00
  0.382700D+00  0.501008D+00
  0.120900D+00  0.343406D+00
   p     1 1.00
  0.382700D+00  0.100000D+01
   p     1 1.00
  0.120900D+00  0.100000D+01
   d     1 1.00
  0.109700D+01  0.100000D+01
   d     1 1.00
  0.318000D+00  0.100000D+01
   f     1 1.00
  0.761000D+00  0.100000D+01
  
  4  0
   s    10 1.00
  0.823600D+04  0.531000D-03
  0.123500D+04  0.410800D-02
  0.280800D+03  0.210870D-01
  0.792700D+02  0.818530D-01
  0.255900D+02  0.234817D+00
  0.899700D+01  0.434401D+00
  0.331900D+01  0.346129D+00
  0.905900D+00  0.393780D-01
  0.364300D+00 -0.898300D-02
  0.128500D+00  0.238500D-02
   s    10 1.00
  0.823600D+04 -0.113000D-03
  0.123500D+04 -0.878000D-03
  0.280800D+03 -0.454000D-02
  0.792700D+02 -0.181330D-01
  0.255900D+02 -0.557600D-01
  0.899700D+01 -0.126895D+00
  0.331900D+01 -0.170352D+00
  0.905900D+00  0.140382D+00
  0.364300D+00  0.598684D+00
  0.128500D+00  0.395389D+00
   s     1 1.00
  0.905900D+00  0.100000D+01
   s     1 1.00
  0.364300D+00  0.100000D+01
   p     5 1.00
  0.187100D+02  0.140310D-01
  0.413300D+01  0.868660D-01
  0.120000D+01  0.290216D+00
  0.382700D+00  0.501008D+00
  0.120900D+00  0.343406D+00
   p     1 1.00
  0.382700D+00  0.100000D+01
   p     1 1.00
  0.120900D+00  0.100000D+01
   d     1 1.00
  0.109700D+01  0.100000D+01
   d     1 1.00
  0.318000D+00  0.100000D+01
   f     1 1.00
  0.761000D+00  0.100000D+01
  
  5  0
   s    10 1.00
  0.823600D+04  0.531000D-03
  0.123500D+04  0.410800D-02
  0.280800D+03  0.210870D-01
  0.792700D+02  0.818530D-01
  0.255900D+02  0.234817D+00
  0.899700D+01  0.434401D+00
  0.331900D+01  0.346129D+00
  0.905900D+00  0.393780D-01
  0.364300D+00 -0.898300D-02
  0.128500D+00  0.238500D-02
   s    10 1.00
  0.823600D+04 -0.113000D-03
  0.123500D+04 -0.878000D-03
  0.280800D+03 -0.454000D-02
  0.792700D+02 -0.181330D-01
  0.255900D+02 -0.557600D-01
  0.899700D+01 -0.126895D+00
  0.331900D+01 -0.170352D+00
  0.905900D+00  0.140382D+00
  0.364300D+00  0.598684D+00
  0.128500D+00  0.395389D+00
   s     1 1.00
  0.905900D+00  0.100000D+01
   s     1 1.00
  0.364300D+00  0.100000D+01
   p     5 1.00
  0.187100D+02  0.140310D-01
  0.413300D+01  0.868660D-01
  0.120000D+01  0.290216D+00
  0.382700D+00  0.501008D+00
  0.120900D+00  0.343406D+00
   p     1 1.00
  0.382700D+00  0.100000D+01
   p     1 1.00
  0.120900D+00  0.100000D+01
   d     1 1.00
  0.109700D+01  0.100000D+01
   d     1 1.00
  0.318000D+00  0.100000D+01
   f     1 1.00
  0.761000D+00  0.100000D+01
  
  6  0
   s    10 1.00
  0.823600D+04  0.531000D-03
  0.123500D+04  0.410800D-02
  0.280800D+03  0.210870D-01
  0.792700D+02  0.818530D-01
  0.255900D+02  0.234817D+00
  0.899700D+01  0.434401D+00
  0.331900D+01  0.346129D+00
  0.905900D+00  0.393780D-01
  0.364300D+00 -0.898300D-02
  0.128500D+00  0.238500D-02
   s    10 1.00
  0.823600D+04 -0.113000D-03
  0.123500D+04 -0.878000D-03
  0.280800D+03 -0.454000D-02
  0.792700D+02 -0.181330D-01
  0.255900D+02 -0.557600D-01
  0.899700D+01 -0.126895D+00
  0.331900D+01 -0.170352D+00
  0.905900D+00  0.140382D+00
  0.364300D+00  0.598684D+00
  0.128500D+00  0.395389D+00
   s     1 1.00
  0.905900D+00  0.100000D+01
   s     1 1.00
  0.364300D+00  0.100000D+01
   p     5 1.00
  0.187100D+02  0.140310D-01
  0.413300D+01  0.868660D-01
  0.120000D+01  0.290216D+00
  0.382700D+00  0.501008D+00
  0.120900D+00  0.343406D+00
   p     1 1.00
  0.382700D+00  0.100000D+01
   p     1 1.00
  0.120900D+00  0.100000D+01
   d     1 1.00
  0.109700D+01  0.100000D+01
   d     1 1.00
  0.318000D+00  0.100000D+01
   f     1 1.00
  0.761000D+00  0.100000D+01
  
  7  0
   s    10 1.00
  0.823600D+04  0.531000D-03
  0.123500D+04  0.410800D-02
  0.280800D+03  0.210870D-01
  0.792700D+02  0.818530D-01
  0.255900D+02  0.234817D+00
  0.899700D+01  0.434401D+00
  0.331900D+01  0.346129D+00
  0.905900D+00  0.393780D-01
  0.364300D+00 -0.898300D-02
  0.128500D+00  0.238500D-02
   s    10 1.00
  0.823600D+04 -0.113000D-03
  0.123500D+04 -0.878000D-03
  0.280800D+03 -0.454000D-02
  0.792700D+02 -0.181330D-01
  0.255900D+02 -0.557600D-01
  0.899700D+01 -0.126895D+00
  0.331900D+01 -0.170352D+00
  0.905900D+00  0.140382D+00
  0.364300D+00  0.598684D+00
  0.128500D+00  0.395389D+00
   s     1 1.00
  0.905900D+00  0.100000D+01
   s     1 1.00
  0.364300D+00  0.100000D+01
   p     5 1.00
  0.187100D+02  0.140310D-01
  0.413300D+01  0.868660D-01
  0.120000D+01  0.290216D+00
  0.382700D+00  0.501008D+00
  0.120900D+00  0.343406D+00
   p     1 1.00
  0.382700D+00  0.100000D+01
   p     1 1.00
  0.120900D+00  0.100000D+01
   d     1 1.00
  0.109700D+01  0.100000D+01
   d     1 1.00
  0.318000D+00  0.100000D+01
   f     1 1.00
  0.761000D+00  0.100000D+01
  
  8  0
   s     4 1.00
  0.130100D+02  0.196850D-01
  0.196200D+01  0.137977D+00
  0.444600D+00  0.478148D+00
  0.122000D+00  0.501240D+00
   s     1 1.00
  0.122000D+00  0.100000D+01
   p     1 1.00
  0.727000D+00  0.100000D+01
  
  9  0
   s     4 1.00
  0.130100D+02  0.196850D-01
  0.196200D+01  0.137977D+00
  0.444600D+00  0.478148D+00
  0.122000D+00  0.501240D+00
   s     1 1.00
  0.122000D+00  0.100000D+01
   p     1 1.00
  0.727000D+00  0.100000D+01
  
 10  0
   s     4 1.00
  0.130100D+02  0.196850D-01
  0.196200D+01  0.137977D+00
  0.444600D+00  0.478148D+00
  0.122000D+00  0.501240D+00
   s     1 1.00
  0.122000D+00  0.100000D+01
   p     1 1.00
  0.727000D+00  0.100000D+01
  
 11  0
   s     4 1.00
  0.130100D+02  0.196850D-01
  0.196200D+01  0.137977D+00
  0.444600D+00  0.478148D+00
  0.122000D+00  0.501240D+00
   s     1 1.00
  0.122000D+00  0.100000D+01
   p     1 1.00
  0.727000D+00  0.100000D+01
  
 12  0
   s     4 1.00
  0.130100D+02  0.196850D-01
  0.196200D+01  0.137977D+00
  0.444600D+00  0.478148D+00
  0.122000D+00  0.501240D+00
   s     1 1.00
  0.122000D+00  0.100000D+01
   p     1 1.00
  0.727000D+00  0.100000D+01
  
 13  0
   s     4 1.00
  0.130100D+02  0.196850D-01
  0.196200D+01  0.137977D+00
  0.444600D+00  0.478148D+00
  0.122000D+00  0.501240D+00
   s     1 1.00
  0.122000D+00  0.100000D+01
   p     1 1.00
  0.727000D+00  0.100000D+01
  
 14  0
   s     4 1.00
  0.130100D+02  0.196850D-01
  0.196200D+01  0.137977D+00
  0.444600D+00  0.478148D+00
  0.122000D+00  0.501240D+00
   s     1 1.00
  0.122000D+00  0.100000D+01
   p     1 1.00
  0.727000D+00  0.100000D+01
  
[MO]
 Sym= __1_A__
 Ene=  0.000000000000000E+000
 Spin= Alpha
 Occup=    2.00000000000000     
                     1  3.954125819062890E-005
                     2  0.998113346134422     
                     3  7.842330682413565E-003
                     4  2.089370440960154E-003
                     5  1.454339786621896E-003
                     6 -1.253365671390378E-012
                     7  3.105957460739406E-010
                     8  3.499928128611437E-003
                     9 -2.483292921504830E-012
                    10  1.286999101211827E-008
                    11  6.458501544162298E-005
                    12  5.789992275829297E-012
                    13 -6.250820809017860E-008
                    14  1.465119647744416E-004
                    15  2.552023058821858E-004
                    16 -2.832574030930402E-012
                    17 -1.166990942579612E-010
                    18 -1.051575654595805E-004
                    19 -2.835634337734774E-013
                    20  5.122791065356965E-005
                    21  3.622957814365773E-012
                    22 -8.605743050310854E-009
                    23  5.498141994678262E-004
                    24 -5.454902890373687E-013
                    25 -1.645706739736647E-004
                    26 -2.226836101248210E-012
                    27 -7.404122066652697E-009
                    28  8.619747522634310E-005
                    29 -9.887032382858507E-013
                    30 -2.021653968390779E-012
                    31  5.621367070504030E-010
                    32 -3.091456097913798E-004
                    33  2.393801703376639E-003
                    34  8.461575770876718E-005
                    35 -8.782983672863737E-005
                    36 -6.040184378893559E-012
                    37  2.554887489824474E-008
                    38 -6.243741924150875E-003
                    39  7.202011803570051E-012
                    40 -1.021511041034186E-007
                    41  1.151478401861199E-004
                    42 -1.068534077442888E-012
                    43 -1.241356837943702E-007
                    44  3.857412446563676E-003
                    45  3.312226598953229E-004
                    46 -2.551520784194392E-012
                    47  6.489426994712954E-009
                    48  1.275478063788129E-004
                    49  1.416733347457209E-012
                    50  1.352542110972272E-004
                    51  5.413684854737191E-012
                    52 -1.588706534810426E-007
                    53 -4.079405804254718E-004
                    54 -2.345876211795825E-013
                    55 -1.024822676908669E-004
                    56 -5.201997999085319E-014
                    57  5.257473478926079E-009
                    58  7.944937258162785E-005
                    59  1.132067907940102E-012
                    60  1.095975317346422E-012
                    61  3.142019396710909E-009
                    62 -1.780738565578104E-004
                    63 -1.446249266011010E-003
                    64  3.998989077666116E-005
                    65  5.194480222245121E-004
                    66 -2.748439377016072E-012
                    67 -7.347470749472733E-004
                    68  8.727661675023547E-004
                    69 -3.771445470747613E-012
                    70 -2.287277543994536E-005
                    71  5.771491585299064E-004
                    72 -1.219822373907750E-012
                    73 -4.480367881674531E-004
                    74 -1.486107852067482E-004
                    75  8.126778490635574E-005
                    76 -6.869081127592944E-013
                    77 -7.240772966913991E-006
                    78  3.544248742596986E-005
                    79  1.340129969977229E-012
                    80 -2.672519500504778E-005
                    81 -4.024437883863188E-012
                    82  1.687347295843539E-004
                    83 -3.583904700162560E-005
                    84 -3.672437105298215E-012
                    85 -9.182856246279302E-005
                    86 -3.570192752519401E-012
                    87 -3.416441566559281E-005
                    88  2.076624744407944E-005
                    89 -1.651170905543771E-012
                    90 -1.730458997982516E-012
                    91  1.088609588816134E-005
                    92 -1.780597691807656E-004
                    93 -1.446178632432492E-003
                    94  4.014603595291489E-005
                    95  5.189390375734781E-004
                    96  6.791855092558128E-012
                    97  7.347806127201157E-004
                    98  8.728836942726360E-004
                    99 -7.321646717260666E-012
                   100  2.268668460924578E-005
                   101  5.764456603996529E-004
                   102 -1.966975121310894E-012
                   103  4.474933921820055E-004
                   104 -1.487614884657650E-004
                   105  8.123588098912061E-005
                   106  2.979043605379334E-013
                   107  7.254570194329562E-006
                   108  3.544560210995478E-005
                   109 -1.515037266478142E-012
                   110 -2.716807953674770E-005
                   111  3.379249817665941E-013
                   112 -1.687896958439391E-004
                   113 -3.595281761352786E-005
                   114  4.970703769233431E-012
                   115 -9.176702823057800E-005
                   116  1.222945361986175E-013
                   117  3.414801431186616E-005
                   118  2.076799693228018E-005
                   119 -9.139938503617013E-013
                   120 -8.880562596638605E-013
                   121 -1.088507771630759E-005
                   122 -1.132622876845502E-004
                   123  4.812668153431216E-005
                   124  1.042467563395300E-004
                   125  5.486075186462175E-005
                   126 -1.292100237584452E-011
                   127  3.302376724823943E-005
                   128 -6.910312209683471E-004
                   129  8.977208915091906E-012
                   130  3.356540805699130E-005
                   131  3.347953302750855E-004
                   132  3.585522816438054E-012
                   133 -1.858303311397280E-004
                   134  6.133906586573413E-004
                   135 -1.962135583201967E-005
                   136  3.279703399227509E-012
                   137 -1.170529344792937E-006
                   138  6.865528448049428E-007
                   139 -2.284879623024737E-013
                   140 -1.780450288992893E-004
                   141 -6.297683767496162E-012
                   142  1.511410710996515E-004
                   143  1.655145226441277E-005
                   144  9.819445067727413E-013
                   145 -3.954032141153466E-005
                   146  2.617461795746766E-012
                   147  5.177841838140409E-006
                   148 -8.453401133658428E-006
                   149  1.210894683035151E-012
                   150  3.018765656388392E-013
                   151 -3.236965203938416E-006
                   152 -1.136417552041930E-004
                   153  4.678137288729762E-005
                   154  1.038831052314559E-004
                   155  5.717366803071885E-005
                   156  1.007504870115012E-011
                   157 -3.306942546638720E-005
                   158 -6.909499429174605E-004
                   159 -1.172203720704108E-011
                   160 -3.351399619880556E-005
                   161  3.342295731365178E-004
                   162  1.816791560661650E-012
                   163  1.864151512314888E-004
                   164  6.132451805073983E-004
                   165 -1.957432931038617E-005
                   166 -2.017963914484663E-012
                   167  1.177596938987717E-006
                   168  6.576353696319748E-007
                   169  2.061733623994007E-013
                   170 -1.778144271130654E-004
                   171  7.891078866897801E-013
                   172 -1.512344248209417E-004
                   173  1.658514360217346E-005
                   174 -5.358155501749387E-012
                   175 -3.946532653952489E-005
                   176  2.059081177402575E-012
                   177 -5.150045623837659E-006
                   178 -8.480948507296472E-006
                   179 -4.955471700563793E-013
                   180 -1.210923573077867E-012
                   181  3.230165611253136E-006
                   182 -8.984717856440169E-005
                   183 -2.316781114711260E-004
                   184  2.618038213020098E-005
                   185  9.243786378139943E-005
                   186  1.169626703142546E-011
                   187  4.039289850390480E-009
                   188 -3.436471857080638E-005
                   189 -9.813937337892806E-012
                   190 -8.413984500217094E-008
                   191  1.565622714667928E-005
                   192 -4.080178627022319E-012
                   193  1.460160536888641E-007
                   194  4.853403019819838E-005
                   195  1.854534943813527E-005
                   196 -7.886215826983234E-013
                   197  8.192845267146368E-009
                   198  8.239783933828946E-006
                   199  9.579396380195686E-013
                   200  5.108150753197280E-005
                   201  2.871641178135249E-012
                   202  4.896615021398066E-008
                   203  4.772755821667880E-005
                   204 -4.770035430887619E-012
                   205 -9.645410701353546E-006
                   206  2.365485469985763E-012
                   207 -8.698433985502785E-009
                   208  2.149496566367362E-006
                   209  9.630268981841344E-013
                   210  6.581725686214759E-013
                   211  5.581735202661296E-009
                   212  3.488186650279714E-003
                   213 -2.220532779882041E-003
                   214 -1.732384175087595E-012
                   215  4.321680669535989E-004
                   216  3.495549627182894E-004
                   217  3.488238935536501E-003
                   218 -2.220549731666318E-003
                   219  6.377764796949966E-013
                   220 -4.321950460174046E-004
                   221  3.495660895081273E-004
                   222 -5.857511360675155E-004
                   223 -8.445909938418866E-005
                   224 -1.697891219731124E-013
                   225 -1.421517905711722E-005
                   226 -3.969481705026755E-005
                   227 -5.858235442036589E-004
                   228 -8.419364591517109E-005
                   229 -7.778692983875394E-013
                   230  1.419389291256182E-005
                   231 -3.972335317770812E-005
                   232 -1.925282873131725E-004
                   233 -3.825614574741546E-004
                   234 -4.544141601987175E-013
                   235 -1.557804613991173E-006
                   236  4.037594103981657E-006
                   237 -1.926438441297134E-004
                   238 -3.826314230756757E-004
                   239  4.723218042545222E-012
                   240  1.620224243139985E-006
                   241  4.070283707660324E-006
                   242  6.687050649418369E-005
                   243 -1.143375001161314E-004
                   244 -1.362541897457881E-012
                   245 -4.589521253598541E-009
                   246  1.113778355228903E-005
 Sym= __2_A__
 Ene=  0.000000000000000E+000
 Spin= Alpha
 Occup=    2.00000000000000     
                     1 -4.591042656618979E-005
                     2 -1.954164654804770E-004
                     3  2.421899869591188E-003
                     4  9.088752040693727E-005
                     5  1.224451201803710E-003
                     6  1.577037069185444E-012
                     7  5.712514767150410E-009
                     8  2.897213044153460E-003
                     9 -5.318684557760529E-012
                    10 -4.137097973049991E-009
                    11 -5.572453340723418E-005
                    12  6.020247835839463E-012
                    13  5.651996740752459E-009
                    14 -4.921262099941805E-004
                    15  4.705679715057570E-005
                    16  2.345484911343079E-012
                    17  3.899887305213809E-010
                    18  6.294280413291537E-005
                    19  5.745020881279366E-013
                    20 -2.988430834262192E-004
                    21  3.287930531543084E-014
                    22  1.482504863231908E-009
                    23 -3.348635072999270E-004
                    24  4.995058496083840E-012
                    25  1.967791368603721E-004
                    26  1.560363833696317E-012
                    27 -1.056248179592444E-009
                    28 -2.468882140903580E-006
                    29 -1.569116140205499E-013
                    30  3.791007531629805E-012
                    31  9.115459245259568E-010
                    32   1.00103789706712     
                    33  9.230083972013591E-003
                    34  2.695604899934024E-003
                    35 -7.732101758632597E-003
                    36 -2.036679106577145E-011
                    37 -6.327461227138941E-009
                    38 -4.448542636619778E-003
                    39  1.935540118338224E-011
                    40  3.699079063257812E-009
                    41  1.401875194491108E-003
                    42  1.061107577204955E-011
                    43 -6.489499794258130E-008
                    44  4.484137414298269E-003
                    45  4.682250740949897E-004
                    46 -8.638500368118579E-013
                    47 -3.452565138488524E-009
                    48 -4.225272827603658E-004
                    49  6.107920307764650E-013
                    50  5.258395725453594E-004
                    51  7.739847331797528E-012
                    52  1.597797837637709E-008
                    53  9.242827692737085E-004
                    54 -2.372395926668088E-012
                    55  3.734913506111592E-004
                    56 -2.733979189871583E-012
                    57 -4.856843877121835E-010
                    58 -2.171803545091668E-004
                    59  2.740582258116139E-012
                    60  2.125953358851219E-013
                    61  1.753661372428925E-009
                    62  6.741290209677677E-003
                    63 -2.045016430612780E-003
                    64 -2.671326602128605E-004
                    65  3.002886787368616E-003
                    66  4.710667870648083E-012
                    67  1.162947870317287E-004
                    68 -3.056325922494474E-005
                    69  2.826699311345860E-012
                    70  5.463653040201170E-004
                    71  4.790224887983189E-005
                    72 -9.379556889234122E-012
                    73 -2.091982437043317E-003
                    74  1.213208623520904E-004
                    75 -1.599618934338122E-005
                    76  4.009700392222261E-012
                    77  1.940590266488336E-005
                    78  3.070727727978878E-005
                    79  1.766514664082902E-012
                    80  7.855687046234154E-004
                    81  1.078698989009355E-011
                    82 -4.314168190736170E-004
                    83  2.336584111348512E-006
                    84 -6.698383538917586E-012
                    85  7.250342199268059E-005
                    86  6.094029872194979E-013
                    87  4.837799215092600E-005
                    88 -1.242289977235149E-004
                    89 -1.288608781948185E-012
                    90 -4.620776097619246E-012
                    91  5.140611661529381E-005
                    92  6.741260760205643E-003
                    93 -2.045112805311914E-003
                    94 -2.671836700335976E-004
                    95  3.003121704297532E-003
                    96 -1.277043471588562E-011
                    97 -1.162967885743997E-004
                    98 -3.059100450459642E-005
                    99  1.226883850305045E-011
                   100 -5.463577811403315E-004
                   101  4.806349226225117E-005
                   102  1.893484193623330E-012
                   103  2.092138551228471E-003
                   104  1.211638893993951E-004
                   105 -1.597935797697457E-005
                   106  5.389607930002188E-014
                   107 -1.941313320276464E-005
                   108  3.070564460443086E-005
                   109 -5.357899115075373E-012
                   110  7.856473822648361E-004
                   111  3.318908300343486E-012
                   112  4.314709505507712E-004
                   113  2.360020604973390E-006
                   114  6.547986944997435E-012
                   115  7.248714677026983E-005
                   116  2.534035476198713E-012
                   117 -4.837528236808752E-005
                   118 -1.242262188587777E-004
                   119  2.685308791437343E-012
                   120 -5.337059334176604E-013
                   121 -5.140468385343416E-005
                   122 -2.480251433937874E-004
                   123 -7.719574925516685E-004
                   124  2.274311551107377E-004
                   125 -1.342871669352087E-004
                   126  1.073014282257700E-011
                   127 -2.565887682450373E-005
                   128 -2.343612344096559E-004
                   129 -1.402669954009048E-011
                   130  5.213408378675054E-006
                   131  5.375071703932745E-004
                   132 -6.090430548107896E-012
                   133  3.527403052866839E-004
                   134  7.262359177369478E-004
                   135 -1.488832370244487E-005
                   136 -1.933356769175299E-012
                   137  5.266820802450078E-005
                   138  1.479123762796791E-005
                   139 -5.739044499261022E-012
                   140 -2.967532794207887E-004
                   141  5.163719094280012E-012
                   142 -2.437428125880051E-004
                   143 -2.163113214293204E-005
                   144  1.153187764935150E-011
                   145  3.014932471803062E-007
                   146 -5.334938724461162E-012
                   147 -3.854886851784856E-005
                   148 -3.607533780380920E-005
                   149 -4.113791786350037E-013
                   150 -2.784473300061179E-012
                   151 -5.975195202689770E-006
                   152 -2.477098272821061E-004
                   153 -7.709059408610577E-004
                   154  2.275150433879408E-004
                   155 -1.354380050614229E-004
                   156 -9.700357099850015E-013
                   157  2.564867826460769E-005
                   158 -2.343669268021939E-004
                   159  3.225611202195315E-012
                   160 -5.163574038280610E-006