[Molden Format]
[Atoms] AU
  N     1    7     0.0000000000    0.0000000000   -4.2935160100        
  C     2    6     0.0000000000    0.0000000000   -1.7754750500        
  C     3    6     0.0000000000   -2.3387268100   -0.4122698900        
  C     4    6     0.0000000000    2.3387268100   -0.4122698900        
  C     5    6     0.0000000000   -2.2993769300    2.1653605500        
  C     6    6     0.0000000000    2.2993769300    2.1653605500        
  C     7    6     0.0000000000    0.0000000000    3.4760514900        
  H     8    1     0.0000000000   -1.6517176700   -5.3146695600        
  H     9    1     0.0000000000    1.6517176700   -5.3146695600        
  H    10    1     0.0000000000   -4.0740055200   -1.4442652500        
  H    11    1     0.0000000000    4.0740055200   -1.4442652500        
  H    12    1     0.0000000000   -4.0408991100    3.1979698300        
  H    13    1     0.0000000000    4.0408991100    3.1979698300        
  H    14    1     0.0000000000    0.0000000000    5.5021936200        
[5D]
[7F]
[GTO]
  1  0
   s    12 1.00
  0.114200D+05  0.172695D-04
  0.171200D+04  0.134411D-03
  0.389300D+03  0.694561D-03
  0.110000D+03  0.278531D-02
  0.355700D+02  0.863457D-02
  0.125400D+02  0.199805D-01
  0.464400D+01  0.262908D-01
  0.129300D+01 -0.243845D-01
  0.511800D+00 -0.924934D-01
  0.178700D+00 -0.339683D+00
  0.246240D-01  0.345111D+00
  0.112530D-01  0.752750D+00
   s    10 1.00
  0.114200D+05  0.523000D-03
  0.171200D+04  0.404500D-02
  0.389300D+03  0.207750D-01
  0.110000D+03  0.807269D-01
  0.355700D+02  0.233074D+00
  0.125400D+02  0.433501D+00
  0.464400D+01  0.347472D+00
  0.129300D+01  0.412620D-01
  0.511800D+00 -0.850799D-02
  0.178700D+00  0.238400D-02
   s    10 1.00
  0.114200D+05 -0.115000D-03
  0.171200D+04 -0.895000D-03
  0.389300D+03 -0.462400D-02
  0.110000D+03 -0.185280D-01
  0.355700D+02 -0.573390D-01
  0.125400D+02 -0.132076D+00
  0.464400D+01 -0.172510D+00
  0.129300D+01  0.151814D+00
  0.511800D+00  0.599944D+00
  0.178700D+00  0.387462D+00
   s     1 1.00
  0.129300D+01  0.100000D+01
   s     1 1.00
  0.178700D+00  0.100000D+01
   p     5 1.00
  0.266300D+02  0.146700D-01
  0.594800D+01  0.917640D-01
  0.174200D+01  0.298683D+00
  0.555000D+00  0.498487D+00
  0.172500D+00  0.337023D+00
   p     1 1.00
  0.174200D+01  0.100000D+01
   p     1 1.00
  0.555000D+00  0.100000D+01
   d     1 1.00
  0.165400D+01  0.100000D+01
   d     1 1.00
  0.469000D+00  0.100000D+01
   f     1 1.00
  0.109300D+01  0.100000D+01
  
  2  0
   s    10 1.00
  0.823600D+04  0.531000D-03
  0.123500D+04  0.410800D-02
  0.280800D+03  0.210870D-01
  0.792700D+02  0.818530D-01
  0.255900D+02  0.234817D+00
  0.899700D+01  0.434401D+00
  0.331900D+01  0.346129D+00
  0.905900D+00  0.393780D-01
  0.364300D+00 -0.898300D-02
  0.128500D+00  0.238500D-02
   s    10 1.00
  0.823600D+04 -0.113000D-03
  0.123500D+04 -0.878000D-03
  0.280800D+03 -0.454000D-02
  0.792700D+02 -0.181330D-01
  0.255900D+02 -0.557600D-01
  0.899700D+01 -0.126895D+00
  0.331900D+01 -0.170352D+00
  0.905900D+00  0.140382D+00
  0.364300D+00  0.598684D+00
  0.128500D+00  0.395389D+00
   s     1 1.00
  0.905900D+00  0.100000D+01
   s     1 1.00
  0.364300D+00  0.100000D+01
   p     5 1.00
  0.187100D+02  0.140310D-01
  0.413300D+01  0.868660D-01
  0.120000D+01  0.290216D+00
  0.382700D+00  0.501008D+00
  0.120900D+00  0.343406D+00
   p     1 1.00
  0.382700D+00  0.100000D+01
   p     1 1.00
  0.120900D+00  0.100000D+01
   d     1 1.00
  0.109700D+01  0.100000D+01
   d     1 1.00
  0.318000D+00  0.100000D+01
   f     1 1.00
  0.761000D+00  0.100000D+01
  
  3  0
   s    10 1.00
  0.823600D+04  0.531000D-03
  0.123500D+04  0.410800D-02
  0.280800D+03  0.210870D-01
  0.792700D+02  0.818530D-01
  0.255900D+02  0.234817D+00
  0.899700D+01  0.434401D+00
  0.331900D+01  0.346129D+00
  0.905900D+00  0.393780D-01
  0.364300D+00 -0.898300D-02
  0.128500D+00  0.238500D-02
   s    10 1.00
  0.823600D+04 -0.113000D-03
  0.123500D+04 -0.878000D-03
  0.280800D+03 -0.454000D-02
  0.792700D+02 -0.181330D-01
  0.255900D+02 -0.557600D-01
  0.899700D+01 -0.126895D+00
  0.331900D+01 -0.170352D+00
  0.905900D+00  0.140382D+00
  0.364300D+00  0.598684D+00
  0.128500D+00  0.395389D+00
   s     1 1.00
  0.905900D+00  0.100000D+01
   s     1 1.00
  0.364300D+00  0.100000D+01
   p     5 1.00
  0.187100D+02  0.140310D-01
  0.413300D+01  0.868660D-01
  0.120000D+01  0.290216D+00
  0.382700D+00  0.501008D+00
  0.120900D+00  0.343406D+00
   p     1 1.00
  0.382700D+00  0.100000D+01
   p     1 1.00
  0.120900D+00  0.100000D+01
   d     1 1.00
  0.109700D+01  0.100000D+01
   d     1 1.00
  0.318000D+00  0.100000D+01
   f     1 1.00
  0.761000D+00  0.100000D+01
  
  4  0
   s    10 1.00
  0.823600D+04  0.531000D-03
  0.123500D+04  0.410800D-02
  0.280800D+03  0.210870D-01
  0.792700D+02  0.818530D-01
  0.255900D+02  0.234817D+00
  0.899700D+01  0.434401D+00
  0.331900D+01  0.346129D+00
  0.905900D+00  0.393780D-01
  0.364300D+00 -0.898300D-02
  0.128500D+00  0.238500D-02
   s    10 1.00
  0.823600D+04 -0.113000D-03
  0.123500D+04 -0.878000D-03
  0.280800D+03 -0.454000D-02
  0.792700D+02 -0.181330D-01
  0.255900D+02 -0.557600D-01
  0.899700D+01 -0.126895D+00
  0.331900D+01 -0.170352D+00
  0.905900D+00  0.140382D+00
  0.364300D+00  0.598684D+00
  0.128500D+00  0.395389D+00
   s     1 1.00
  0.905900D+00  0.100000D+01
   s     1 1.00
  0.364300D+00  0.100000D+01
   p     5 1.00
  0.187100D+02  0.140310D-01
  0.413300D+01  0.868660D-01
  0.120000D+01  0.290216D+00
  0.382700D+00  0.501008D+00
  0.120900D+00  0.343406D+00
   p     1 1.00
  0.382700D+00  0.100000D+01
   p     1 1.00
  0.120900D+00  0.100000D+01
   d     1 1.00
  0.109700D+01  0.100000D+01
   d     1 1.00
  0.318000D+00  0.100000D+01
   f     1 1.00
  0.761000D+00  0.100000D+01
  
  5  0
   s    10 1.00
  0.823600D+04  0.531000D-03
  0.123500D+04  0.410800D-02
  0.280800D+03  0.210870D-01
  0.792700D+02  0.818530D-01
  0.255900D+02  0.234817D+00
  0.899700D+01  0.434401D+00
  0.331900D+01  0.346129D+00
  0.905900D+00  0.393780D-01
  0.364300D+00 -0.898300D-02
  0.128500D+00  0.238500D-02
   s    10 1.00
  0.823600D+04 -0.113000D-03
  0.123500D+04 -0.878000D-03
  0.280800D+03 -0.454000D-02
  0.792700D+02 -0.181330D-01
  0.255900D+02 -0.557600D-01
  0.899700D+01 -0.126895D+00
  0.331900D+01 -0.170352D+00
  0.905900D+00  0.140382D+00
  0.364300D+00  0.598684D+00
  0.128500D+00  0.395389D+00
   s     1 1.00
  0.905900D+00  0.100000D+01
   s     1 1.00
  0.364300D+00  0.100000D+01
   p     5 1.00
  0.187100D+02  0.140310D-01
  0.413300D+01  0.868660D-01
  0.120000D+01  0.290216D+00
  0.382700D+00  0.501008D+00
  0.120900D+00  0.343406D+00
   p     1 1.00
  0.382700D+00  0.100000D+01
   p     1 1.00
  0.120900D+00  0.100000D+01
   d     1 1.00
  0.109700D+01  0.100000D+01
   d     1 1.00
  0.318000D+00  0.100000D+01
   f     1 1.00
  0.761000D+00  0.100000D+01
  
  6  0
   s    10 1.00
  0.823600D+04  0.531000D-03
  0.123500D+04  0.410800D-02
  0.280800D+03  0.210870D-01
  0.792700D+02  0.818530D-01
  0.255900D+02  0.234817D+00
  0.899700D+01  0.434401D+00
  0.331900D+01  0.346129D+00
  0.905900D+00  0.393780D-01
  0.364300D+00 -0.898300D-02
  0.128500D+00  0.238500D-02
   s    10 1.00
  0.823600D+04 -0.113000D-03
  0.123500D+04 -0.878000D-03
  0.280800D+03 -0.454000D-02
  0.792700D+02 -0.181330D-01
  0.255900D+02 -0.557600D-01
  0.899700D+01 -0.126895D+00
  0.331900D+01 -0.170352D+00
  0.905900D+00  0.140382D+00
  0.364300D+00  0.598684D+00
  0.128500D+00  0.395389D+00
   s     1 1.00
  0.905900D+00  0.100000D+01
   s     1 1.00
  0.364300D+00  0.100000D+01
   p     5 1.00
  0.187100D+02  0.140310D-01
  0.413300D+01  0.868660D-01
  0.120000D+01  0.290216D+00
  0.382700D+00  0.501008D+00
  0.120900D+00  0.343406D+00
   p     1 1.00
  0.382700D+00  0.100000D+01
   p     1 1.00
  0.120900D+00  0.100000D+01
   d     1 1.00
  0.109700D+01  0.100000D+01
   d     1 1.00
  0.318000D+00  0.100000D+01
   f     1 1.00
  0.761000D+00  0.100000D+01
  
  7  0
   s    10 1.00
  0.823600D+04  0.531000D-03
  0.123500D+04  0.410800D-02
  0.280800D+03  0.210870D-01
  0.792700D+02  0.818530D-01
  0.255900D+02  0.234817D+00
  0.899700D+01  0.434401D+00
  0.331900D+01  0.346129D+00
  0.905900D+00  0.393780D-01
  0.364300D+00 -0.898300D-02
  0.128500D+00  0.238500D-02
   s    10 1.00
  0.823600D+04 -0.113000D-03
  0.123500D+04 -0.878000D-03
  0.280800D+03 -0.454000D-02
  0.792700D+02 -0.181330D-01
  0.255900D+02 -0.557600D-01
  0.899700D+01 -0.126895D+00
  0.331900D+01 -0.170352D+00
  0.905900D+00  0.140382D+00
  0.364300D+00  0.598684D+00
  0.128500D+00  0.395389D+00
   s     1 1.00
  0.905900D+00  0.100000D+01
   s     1 1.00
  0.364300D+00  0.100000D+01
   p     5 1.00
  0.187100D+02  0.140310D-01
  0.413300D+01  0.868660D-01
  0.120000D+01  0.290216D+00
  0.382700D+00  0.501008D+00
  0.120900D+00  0.343406D+00
   p     1 1.00
  0.382700D+00  0.100000D+01
   p     1 1.00
  0.120900D+00  0.100000D+01
   d     1 1.00
  0.109700D+01  0.100000D+01
   d     1 1.00
  0.318000D+00  0.100000D+01
   f     1 1.00
  0.761000D+00  0.100000D+01
  
  8  0
   s     4 1.00
  0.130100D+02  0.196850D-01
  0.196200D+01  0.137977D+00
  0.444600D+00  0.478148D+00
  0.122000D+00  0.501240D+00
   s     1 1.00
  0.122000D+00  0.100000D+01
   p     1 1.00
  0.727000D+00  0.100000D+01
  
  9  0
   s     4 1.00
  0.130100D+02  0.196850D-01
  0.196200D+01  0.137977D+00
  0.444600D+00  0.478148D+00
  0.122000D+00  0.501240D+00
   s     1 1.00
  0.122000D+00  0.100000D+01
   p     1 1.00
  0.727000D+00  0.100000D+01
  
 10  0
   s     4 1.00
  0.130100D+02  0.196850D-01
  0.196200D+01  0.137977D+00
  0.444600D+00  0.478148D+00
  0.122000D+00  0.501240D+00
   s     1 1.00
  0.122000D+00  0.100000D+01
   p     1 1.00
  0.727000D+00  0.100000D+01
  
 11  0
   s     4 1.00
  0.130100D+02  0.196850D-01
  0.196200D+01  0.137977D+00
  0.444600D+00  0.478148D+00
  0.122000D+00  0.501240D+00
   s     1 1.00
  0.122000D+00  0.100000D+01
   p     1 1.00
  0.727000D+00  0.100000D+01
  
 12  0
   s     4 1.00
  0.130100D+02  0.196850D-01
  0.196200D+01  0.137977D+00
  0.444600D+00  0.478148D+00
  0.122000D+00  0.501240D+00
   s     1 1.00
  0.122000D+00  0.100000D+01
   p     1 1.00
  0.727000D+00  0.100000D+01
  
 13  0
   s     4 1.00
  0.130100D+02  0.196850D-01
  0.196200D+01  0.137977D+00
  0.444600D+00  0.478148D+00
  0.122000D+00  0.501240D+00
   s     1 1.00
  0.122000D+00  0.100000D+01
   p     1 1.00
  0.727000D+00  0.100000D+01
  
 14  0
   s     4 1.00
  0.130100D+02  0.196850D-01
  0.196200D+01  0.137977D+00
  0.444600D+00  0.478148D+00
  0.122000D+00  0.501240D+00
   s     1 1.00
  0.122000D+00  0.100000D+01
   p     1 1.00
  0.727000D+00  0.100000D+01
  
[MO]
 Sym= __1_A__
 Ene=   1.00000000000000     
 Spin= Alpha
 Occup=    1.00000000000000     
                     1  3.954125791728964E-005
                     2  0.998113346132377     
                     3  7.842330729298179E-003
                     4  2.089370439477224E-003
                     5  1.454339708936658E-003
                     6 -1.253365527686607E-012
                     7  3.106010987704156E-010
                     8  3.499928140239253E-003
                     9 -2.483292956678537E-012
                    10  1.286999035434231E-008
                    11  6.458502450027103E-005
                    12  5.789992204219484E-012
                    13 -6.250820722745001E-008
                    14  1.465119674202413E-004
                    15  2.552023069283564E-004
                    16 -2.832574022022702E-012
                    17 -1.166966312143631E-010
                    18 -1.051575661406238E-004
                    19 -2.835634437061474E-013
                    20  5.122791811371184E-005
                    21  3.622957672865414E-012
                    22 -8.605734023675692E-009
                    23  5.498142092370524E-004
                    24 -5.454903366169239E-013
                    25 -1.645706738405908E-004
                    26 -2.226836113815357E-012
                    27 -7.404119853745543E-009
                    28  8.619747367348494E-005
                    29 -9.887032391782162E-013
                    30 -2.021653986396167E-012
                    31  5.621368031024725E-010
                    32 -3.091461980094503E-004
                    33  2.393802709929915E-003
                    34  8.461574147009565E-005
                    35 -8.782982899760581E-005
                    36 -6.040184647946644E-012
                    37  2.554915331719546E-008
                    38 -6.243741432506461E-003
                    39  7.202011864273051E-012
                    40 -1.021511203984794E-007
                    41  1.151478126546107E-004
                    42 -1.068534194207522E-012
                    43 -1.241357524812584E-007
                    44  3.857412377169308E-003
                    45  3.312226635866585E-004
                    46 -2.551520802688201E-012
                    47  6.489433996200060E-009
                    48  1.275477888006957E-004
                    49  1.416733346777899E-012
                    50  1.352542128565653E-004
                    51  5.413684757839868E-012
                    52 -1.588706376500410E-007
                    53 -4.079406110281160E-004
                    54 -2.345876256762642E-013
                    55 -1.024822557532648E-004
                    56 -5.201993242332047E-014
                    57  5.257473336038686E-009
                    58  7.944935803070256E-005
                    59  1.132067916049561E-012
                    60  1.095975323112014E-012
                    61  3.142016846479469E-009
                    62 -1.780738732880210E-004
                    63 -1.446249022567273E-003
                    64  3.998988768636633E-005
                    65  5.194480391430118E-004
                    66 -2.748439443272952E-012
                    67 -7.347464103713374E-004
                    68  8.727662914024632E-004
                    69 -3.771445345323379E-012
                    70 -2.287283249104017E-005
                    71  5.771491669707675E-004
                    72 -1.219822285641052E-012
                    73 -4.480370123310066E-004
                    74 -1.486107628399214E-004
                    75  8.126778630171824E-005
                    76 -6.869081147210377E-013
                    77 -7.240790882455551E-006
                    78  3.544247975604400E-005
                    79  1.340129919195242E-012
                    80 -2.672519526862061E-005
                    81 -4.024437764866229E-012
                    82  1.687347382472345E-004
                    83 -3.583906904432206E-005
                    84 -3.672437091960973E-012
                    85 -9.182857027447089E-005
                    86 -3.570192760444206E-012
                    87 -3.416441654694210E-005
                    88  2.076625178341306E-005
                    89 -1.651170882577708E-012
                    90 -1.730459027280951E-012
                    91  1.088609033948984E-005
                    92 -1.780597859186492E-004
                    93 -1.446178388726663E-003
                    94  4.014603285647155E-005
                    95  5.189390544780683E-004
                    96  6.791855048152500E-012
                    97  7.347799478945894E-004
                    98  8.728838179460272E-004
                    99 -7.321646819797976E-012
                   100  2.268674167848468E-005
                   101  5.764456688644563E-004
                   102 -1.966974983290853E-012
                   103  4.474936163818536E-004
                   104 -1.487614660477610E-004
                   105  8.123588238320965E-005
                   106  2.979043765986425E-013
                   107  7.254588119228798E-006
                   108  3.544559443413718E-005
                   109 -1.515037254410250E-012
                   110 -2.716807978827478E-005
                   111  3.379249403113099E-013
                   112 -1.687897044900776E-004
                   113 -3.595283965862656E-005
                   114  4.970703730969604E-012
                   115 -9.176703604497225E-005
                   116  1.222944953053188E-013
                   117  3.414801519127993E-005
                   118  2.076800127614210E-005
                   119 -9.139938373612698E-013
                   120 -8.880562708172051E-013
                   121 -1.088507216522748E-005
                   122 -1.132622998657299E-004
                   123  4.812667215410337E-005
                   124  1.042467610659357E-004
                   125  5.486078193728385E-005
                   126 -1.292100218332664E-011
                   127  3.302382493410501E-005
                   128 -6.910314397258956E-004
                   129  8.977208761638743E-012
                   130  3.356540623139563E-005
                   131  3.347953600588934E-004
                   132  3.585522621990536E-012
                   133 -1.858303677699707E-004
                   134  6.133907832708437E-004
                   135 -1.962134900702112E-005
                   136  3.279703369422138E-012
                   137 -1.170538032518266E-006
                   138  6.865546451425546E-007
                   139 -2.284879714275771E-013
                   140 -1.780450269498696E-004
                   141 -6.297683665001984E-012
                   142  1.511410613054845E-004
                   143  1.655145226713596E-005
                   144  9.819444986976442E-013
                   145 -3.954031945928276E-005
                   146  2.617461805026911E-012
                   147  5.177846028443643E-006
                   148 -8.453401856562709E-006
                   149  1.210894673824633E-012
                   150  3.018765731129427E-013
                   151 -3.236965048782122E-006
                   152 -1.136417673946490E-004
                   153  4.678136338791507E-005
                   154  1.038831099633539E-004
                   155  5.717369809053556E-005
                   156  1.007504870684310E-011
                   157 -3.306948315759923E-005
                   158 -6.909501616480694E-004
                   159 -1.172203712866747E-011
                   160 -3.351399437218677E-005
                   161  3.342296029298684E-004
                   162  1.816791516937109E-012
                   163  1.864151878701737E-004
                   164  6.132453051274512E-004
                   165 -1.957432248768293E-005
                   166 -2.017963907390730E-012
                   167  1.177605630310389E-006
                   168  6.576371712858836E-007
                   169  2.061733604730708E-013
                   170 -1.778144251687274E-004
                   171  7.891078158224976E-013
                   172 -1.512344150155323E-004
                   173  1.658514360579855E-005
                   174 -5.358155475559490E-012
                   175 -3.946532458956921E-005
                   176  2.059081191731699E-012
                   177 -5.150049815701020E-006
                   178 -8.480949229028862E-006
                   179 -4.955472020216261E-013
                   180 -1.210923557938587E-012
                   181  3.230165455533327E-006
                   182 -8.984720326546447E-005
                   183 -2.316782893967096E-004
                   184  2.618038760171289E-005
                   185  9.243790704712217E-005
                   186  1.169626705771863E-011
                   187  4.039257969077746E-009
                   188 -3.436468657752480E-005
                   189 -9.813937356060978E-012
                   190 -8.413983946562438E-008
                   191  1.565621817115222E-005
                   192 -4.080178497299028E-012
                   193  1.460160594467658E-007
                   194  4.853407823346877E-005
                   195  1.854535552526337E-005
                   196 -7.886215749051402E-013
                   197  8.192846136116742E-009
                   198  8.239787768299246E-006
                   199  9.579396598240649E-013
                   200  5.108152453264810E-005
                   201  2.871641219284026E-012
                   202  4.896615114784823E-008
                   203  4.772756946676494E-005
                   204 -4.770035454736468E-012
                   205 -9.645409409903250E-006
                   206  2.365485490367298E-012
                   207 -8.698433795837555E-009
                   208  2.149496162727704E-006
                   209  9.630268898220697E-013
                   210  6.581725633400609E-013
                   211  5.581735458785738E-009
                   212  3.488186658863283E-003
                   213 -2.220532764515603E-003
                   214 -1.732384186160394E-012
                   215  4.321680696943472E-004
                   216  3.495549633810382E-004
                   217  3.488238944083759E-003
                   218 -2.220549716312067E-003
                   219  6.377765535882780E-013
                   220 -4.321950487583417E-004
                   221  3.495660901718155E-004
                   222 -5.857516173939667E-004
                   223 -8.445902856439873E-005
                   224 -1.697891200517031E-013
                   225 -1.421520124514247E-005
                   226 -3.969483166633713E-005
                   227 -5.858240255388036E-004
                   228 -8.419357512025872E-005
                   229 -7.778692188971153E-013
                   230  1.419391509633351E-005
                   231 -3.972336779605456E-005
                   232 -1.925283695845341E-004
                   233 -3.825614802260665E-004
                   234 -4.544141350394049E-013
                   235 -1.557811713761236E-006
                   236  4.037597151371762E-006
                   237 -1.926439264228238E-004
                   238 -3.826314458036902E-004
                   239  4.723218039351861E-012
                   240  1.620231344824814E-006
                   241  4.070286757178039E-006
                   242  6.687052673394543E-005
                   243 -1.143375360995073E-004
                   244 -1.362541930853221E-012
                   245 -4.589521684338686E-009
                   246  1.113778572210145E-005
 Sym= __2_A__
 Ene=   2.00000000000000     
 Spin= Alpha
 Occup=    1.00000000000000     
                     1 -4.591042871869685E-005
                     2 -1.954159073833431E-004
                     3  2.421899862587671E-003
                     4  9.088752288536275E-005
                     5  1.224451223807796E-003
                     6  1.577037140735241E-012
                     7  5.712515799086280E-009
                     8  2.897213049951085E-003
                     9 -5.318684607994080E-012
                    10 -4.137098094186575E-009
                    11 -5.572453371161226E-005
                    12  6.020247820209289E-012
                    13  5.651996842873675E-009
                    14 -4.921262069519819E-004
                    15  4.705679659228404E-005
                    16  2.345484904774504E-012
                    17  3.899892294217611E-010
                    18  6.294280464297301E-005
                    19  5.745020782360698E-013
                    20 -2.988430883554171E-004
                    21  3.287923691880803E-014
                    22  1.482506530458931E-009
                    23 -3.348635051131618E-004
                    24  4.995058509423535E-012
                    25  1.967791377422045E-004
                    26  1.560363843551096E-012
                    27 -1.056248270583133E-009
                    28 -2.468881466018154E-006
                    29 -1.569116119277562E-013
                    30  3.791007525752950E-012
                    31  9.115459703301760E-010
                    32   1.00103789702745     
                    33  9.230083621125087E-003
                    34  2.695604900045368E-003
                    35 -7.732101709787290E-003
                    36 -2.036679112608501E-011
                    37 -6.327405736278775E-009
                    38 -4.448542729352863E-003
                    39  1.935540115306045E-011
                    40  3.699076200303269E-009
                    41  1.401875195679089E-003
                    42  1.061107562837053E-011
                    43 -6.489501242029959E-008
                    44  4.484137381855201E-003
                    45  4.682250829999583E-004
                    46 -8.638500222777778E-013
                    47 -3.452563753832103E-009
                    48 -4.225272724946346E-004
                    49  6.107920452896066E-013
                    50  5.258395673807919E-004
                    51  7.739847235678795E-012
                    52  1.597798195818943E-008
                    53  9.242827763580368E-004
                    54 -2.372395916147505E-012
                    55  3.734913466171403E-004
                    56 -2.733979172048423E-012
                    57 -4.856840137551045E-010
                    58 -2.171803501823100E-004
                    59  2.740582263692849E-012
                    60  2.125953423695288E-013
                    61  1.753660910858961E-009
                    62  6.741293058156983E-003
                    63 -2.045016476556702E-003
                    64 -2.671326504042247E-004
                    65  3.002886763585489E-003
                    66  4.710667701275717E-012
                    67  1.162948146296889E-004
                    68 -3.056285990058206E-005
                    69  2.826699408787923E-012
                    70  5.463652893064117E-004
                    71  4.790220936494049E-005
                    72 -9.379556868321910E-012
                    73 -2.091982405365776E-003
                    74  1.213207802703951E-004
                    75 -1.599617852785511E-005
                    76  4.009700367239012E-012
                    77  1.940590326040802E-005
                    78  3.070728353244236E-005
                    79  1.766514634216400E-012
                    80  7.855686985802309E-004
                    81  1.078698983830564E-011
                    82 -4.314167968688736E-004
                    83  2.336582597751920E-006
                    84 -6.698383513736681E-012
                    85  7.250341977245728E-005
                    86  6.094029891615246E-013
                    87  4.837799163263033E-005
                    88 -1.242289996886099E-004
                    89 -1.288608780367829E-012
                    90 -4.620776104749675E-012
                    91  5.140611731888979E-005
                    92  6.741263608327983E-003
                    93 -2.045112851206315E-003
                    94 -2.671836602281735E-004
                    95  3.003121680517944E-003
                    96 -1.277043488358673E-011
                    97 -1.162968162276712E-004
                    98 -3.059060521894848E-005
                    99  1.226883857757075E-011
                   100 -5.463577664217185E-004
                   101  4.806345275448849E-005
                   102  1.893484323265785E-012
                   103  2.092138519561741E-003
                   104  1.211638073250392E-004
                   105 -1.597934716134928E-005
                   106  5.389609448285666E-014
                   107 -1.941313379645892E-005
                   108  3.070565085609946E-005
                   109 -5.357899088273262E-012
                   110  7.856473762261369E-004
                   111  3.318908366405223E-012
                   112  4.314709283500877E-004
                   113  2.360019091373678E-006
                   114  6.547986886692559E-012
                   115  7.248714454911013E-005
                   116  2.534035474568371E-012
                   117 -4.837528185040942E-005
                   118 -1.242262208229588E-004
                   119  2.685308791066265E-012
                   120 -5.337059266789044E-013
                   121 -5.140468455661168E-005
                   122 -2.480251914892426E-004
                   123 -7.719573597277632E-004
                   124  2.274311492900947E-004
                   125 -1.342871545644551E-004
                   126  1.073014281465688E-011
                   127 -2.565883856173522E-005
                   128 -2.343615350544462E-004
                   129 -1.402669954515024E-011
                   130  5.213399069147441E-006
                   131  5.375071836436485E-004
                   132 -6.090430571926286E-012
                   133  3.527402896761674E-004
                   134  7.262359504054730E-004
                   135 -1.488831446171578E-005
                   136 -1.933356752431044E-012
                   137  5.266820890713260E-005
                   138  1.479123976714324E-005
                   139 -5.739044482643081E-012
                   140 -2.967532658494082E-004
                   141  5.163719038321248E-012
                   142 -2.437428102339394E-004
                   143 -2.163113182840054E-005
                   144  1.153187763614645E-011
                   145  3.014970017046444E-007
                   146 -5.334938724949787E-012
                   147 -3.854886871350770E-005
                   148 -3.607533797345128E-005
                   149 -4.113791723247760E-013
                   150 -2.784473304221373E-012
                   151 -5.975195585170891E-006
                   152 -2.477098755745678E-004
                   153 -7.709058080589398E-004
                   154  2.275150375704261E-004
                   155 -1.354379927078015E-004
                   156 -9.700357008921231E-013
                   157  2.564863999504338E-005
                   158 -2.343672274522141E-004
                   159  3.225611201681203E-012
                   160 -5.163564725256637E-006