[Molden Format]
[Atoms] AU
  N     1    7     0.0000000000    0.0000000000   -4.2907334100        
  C     2    6     0.0000000000    0.0000000000   -1.7772236300        
  C     3    6     0.0000000000   -2.3389203600   -0.4111016300        
  C     4    6     0.0000000000    2.3389203600   -0.4111016300        
  C     5    6     0.0000000000   -2.2998668500    2.1639215300        
  C     6    6     0.0000000000    2.2998668500    2.1639215300        
  C     7    6     0.0000000000    0.0000000000    3.4755251800        
  H     8    1     0.0000000000   -1.6528040300   -5.3103747800        
  H     9    1     0.0000000000    1.6528040300   -5.3103747800        
  H    10    1     0.0000000000   -4.0745407300   -1.4447408500        
  H    11    1     0.0000000000    4.0745407300   -1.4447408500        
  H    12    1     0.0000000000   -4.0420632100    3.1963889500        
  H    13    1     0.0000000000    4.0420632100    3.1963889500        
  H    14    1     0.0000000000    0.0000000000    5.5020335600        
[5D]
[7F]
[GTO]
  1  0
   s    12 1.00
  0.114200D+05  0.172695D-04
  0.171200D+04  0.134411D-03
  0.389300D+03  0.694561D-03
  0.110000D+03  0.278531D-02
  0.355700D+02  0.863457D-02
  0.125400D+02  0.199805D-01
  0.464400D+01  0.262908D-01
  0.129300D+01 -0.243845D-01
  0.511800D+00 -0.924934D-01
  0.178700D+00 -0.339683D+00
  0.246240D-01  0.345111D+00
  0.112530D-01  0.752750D+00
   s    10 1.00
  0.114200D+05  0.523000D-03
  0.171200D+04  0.404500D-02
  0.389300D+03  0.207750D-01
  0.110000D+03  0.807269D-01
  0.355700D+02  0.233074D+00
  0.125400D+02  0.433501D+00
  0.464400D+01  0.347472D+00
  0.129300D+01  0.412620D-01
  0.511800D+00 -0.850799D-02
  0.178700D+00  0.238400D-02
   s    10 1.00
  0.114200D+05 -0.115000D-03
  0.171200D+04 -0.895000D-03
  0.389300D+03 -0.462400D-02
  0.110000D+03 -0.185280D-01
  0.355700D+02 -0.573390D-01
  0.125400D+02 -0.132076D+00
  0.464400D+01 -0.172510D+00
  0.129300D+01  0.151814D+00
  0.511800D+00  0.599944D+00
  0.178700D+00  0.387462D+00
   s     1 1.00
  0.129300D+01  0.100000D+01
   s     1 1.00
  0.178700D+00  0.100000D+01
   p     5 1.00
  0.266300D+02  0.146700D-01
  0.594800D+01  0.917640D-01
  0.174200D+01  0.298683D+00
  0.555000D+00  0.498487D+00
  0.172500D+00  0.337023D+00
   p     1 1.00
  0.174200D+01  0.100000D+01
   p     1 1.00
  0.555000D+00  0.100000D+01
   d     1 1.00
  0.165400D+01  0.100000D+01
   d     1 1.00
  0.469000D+00  0.100000D+01
   f     1 1.00
  0.109300D+01  0.100000D+01
  
  2  0
   s    10 1.00
  0.823600D+04  0.531000D-03
  0.123500D+04  0.410800D-02
  0.280800D+03  0.210870D-01
  0.792700D+02  0.818530D-01
  0.255900D+02  0.234817D+00
  0.899700D+01  0.434401D+00
  0.331900D+01  0.346129D+00
  0.905900D+00  0.393780D-01
  0.364300D+00 -0.898300D-02
  0.128500D+00  0.238500D-02
   s    10 1.00
  0.823600D+04 -0.113000D-03
  0.123500D+04 -0.878000D-03
  0.280800D+03 -0.454000D-02
  0.792700D+02 -0.181330D-01
  0.255900D+02 -0.557600D-01
  0.899700D+01 -0.126895D+00
  0.331900D+01 -0.170352D+00
  0.905900D+00  0.140382D+00
  0.364300D+00  0.598684D+00
  0.128500D+00  0.395389D+00
   s     1 1.00
  0.905900D+00  0.100000D+01
   s     1 1.00
  0.364300D+00  0.100000D+01
   p     5 1.00
  0.187100D+02  0.140310D-01
  0.413300D+01  0.868660D-01
  0.120000D+01  0.290216D+00
  0.382700D+00  0.501008D+00
  0.120900D+00  0.343406D+00
   p     1 1.00
  0.382700D+00  0.100000D+01
   p     1 1.00
  0.120900D+00  0.100000D+01
   d     1 1.00
  0.109700D+01  0.100000D+01
   d     1 1.00
  0.318000D+00  0.100000D+01
   f     1 1.00
  0.761000D+00  0.100000D+01
  
  3  0
   s    10 1.00
  0.823600D+04  0.531000D-03
  0.123500D+04  0.410800D-02
  0.280800D+03  0.210870D-01
  0.792700D+02  0.818530D-01
  0.255900D+02  0.234817D+00
  0.899700D+01  0.434401D+00
  0.331900D+01  0.346129D+00
  0.905900D+00  0.393780D-01
  0.364300D+00 -0.898300D-02
  0.128500D+00  0.238500D-02
   s    10 1.00
  0.823600D+04 -0.113000D-03
  0.123500D+04 -0.878000D-03
  0.280800D+03 -0.454000D-02
  0.792700D+02 -0.181330D-01
  0.255900D+02 -0.557600D-01
  0.899700D+01 -0.126895D+00
  0.331900D+01 -0.170352D+00
  0.905900D+00  0.140382D+00
  0.364300D+00  0.598684D+00
  0.128500D+00  0.395389D+00
   s     1 1.00
  0.905900D+00  0.100000D+01
   s     1 1.00
  0.364300D+00  0.100000D+01
   p     5 1.00
  0.187100D+02  0.140310D-01
  0.413300D+01  0.868660D-01
  0.120000D+01  0.290216D+00
  0.382700D+00  0.501008D+00
  0.120900D+00  0.343406D+00
   p     1 1.00
  0.382700D+00  0.100000D+01
   p     1 1.00
  0.120900D+00  0.100000D+01
   d     1 1.00
  0.109700D+01  0.100000D+01
   d     1 1.00
  0.318000D+00  0.100000D+01
   f     1 1.00
  0.761000D+00  0.100000D+01
  
  4  0
   s    10 1.00
  0.823600D+04  0.531000D-03
  0.123500D+04  0.410800D-02
  0.280800D+03  0.210870D-01
  0.792700D+02  0.818530D-01
  0.255900D+02  0.234817D+00
  0.899700D+01  0.434401D+00
  0.331900D+01  0.346129D+00
  0.905900D+00  0.393780D-01
  0.364300D+00 -0.898300D-02
  0.128500D+00  0.238500D-02
   s    10 1.00
  0.823600D+04 -0.113000D-03
  0.123500D+04 -0.878000D-03
  0.280800D+03 -0.454000D-02
  0.792700D+02 -0.181330D-01
  0.255900D+02 -0.557600D-01
  0.899700D+01 -0.126895D+00
  0.331900D+01 -0.170352D+00
  0.905900D+00  0.140382D+00
  0.364300D+00  0.598684D+00
  0.128500D+00  0.395389D+00
   s     1 1.00
  0.905900D+00  0.100000D+01
   s     1 1.00
  0.364300D+00  0.100000D+01
   p     5 1.00
  0.187100D+02  0.140310D-01
  0.413300D+01  0.868660D-01
  0.120000D+01  0.290216D+00
  0.382700D+00  0.501008D+00
  0.120900D+00  0.343406D+00
   p     1 1.00
  0.382700D+00  0.100000D+01
   p     1 1.00
  0.120900D+00  0.100000D+01
   d     1 1.00
  0.109700D+01  0.100000D+01
   d     1 1.00
  0.318000D+00  0.100000D+01
   f     1 1.00
  0.761000D+00  0.100000D+01
  
  5  0
   s    10 1.00
  0.823600D+04  0.531000D-03
  0.123500D+04  0.410800D-02
  0.280800D+03  0.210870D-01
  0.792700D+02  0.818530D-01
  0.255900D+02  0.234817D+00
  0.899700D+01  0.434401D+00
  0.331900D+01  0.346129D+00
  0.905900D+00  0.393780D-01
  0.364300D+00 -0.898300D-02
  0.128500D+00  0.238500D-02
   s    10 1.00
  0.823600D+04 -0.113000D-03
  0.123500D+04 -0.878000D-03
  0.280800D+03 -0.454000D-02
  0.792700D+02 -0.181330D-01
  0.255900D+02 -0.557600D-01
  0.899700D+01 -0.126895D+00
  0.331900D+01 -0.170352D+00
  0.905900D+00  0.140382D+00
  0.364300D+00  0.598684D+00
  0.128500D+00  0.395389D+00
   s     1 1.00
  0.905900D+00  0.100000D+01
   s     1 1.00
  0.364300D+00  0.100000D+01
   p     5 1.00
  0.187100D+02  0.140310D-01
  0.413300D+01  0.868660D-01
  0.120000D+01  0.290216D+00
  0.382700D+00  0.501008D+00
  0.120900D+00  0.343406D+00
   p     1 1.00
  0.382700D+00  0.100000D+01
   p     1 1.00
  0.120900D+00  0.100000D+01
   d     1 1.00
  0.109700D+01  0.100000D+01
   d     1 1.00
  0.318000D+00  0.100000D+01
   f     1 1.00
  0.761000D+00  0.100000D+01
  
  6  0
   s    10 1.00
  0.823600D+04  0.531000D-03
  0.123500D+04  0.410800D-02
  0.280800D+03  0.210870D-01
  0.792700D+02  0.818530D-01
  0.255900D+02  0.234817D+00
  0.899700D+01  0.434401D+00
  0.331900D+01  0.346129D+00
  0.905900D+00  0.393780D-01
  0.364300D+00 -0.898300D-02
  0.128500D+00  0.238500D-02
   s    10 1.00
  0.823600D+04 -0.113000D-03
  0.123500D+04 -0.878000D-03
  0.280800D+03 -0.454000D-02
  0.792700D+02 -0.181330D-01
  0.255900D+02 -0.557600D-01
  0.899700D+01 -0.126895D+00
  0.331900D+01 -0.170352D+00
  0.905900D+00  0.140382D+00
  0.364300D+00  0.598684D+00
  0.128500D+00  0.395389D+00
   s     1 1.00
  0.905900D+00  0.100000D+01
   s     1 1.00
  0.364300D+00  0.100000D+01
   p     5 1.00
  0.187100D+02  0.140310D-01
  0.413300D+01  0.868660D-01
  0.120000D+01  0.290216D+00
  0.382700D+00  0.501008D+00
  0.120900D+00  0.343406D+00
   p     1 1.00
  0.382700D+00  0.100000D+01
   p     1 1.00
  0.120900D+00  0.100000D+01
   d     1 1.00
  0.109700D+01  0.100000D+01
   d     1 1.00
  0.318000D+00  0.100000D+01
   f     1 1.00
  0.761000D+00  0.100000D+01
  
  7  0
   s    10 1.00
  0.823600D+04  0.531000D-03
  0.123500D+04  0.410800D-02
  0.280800D+03  0.210870D-01
  0.792700D+02  0.818530D-01
  0.255900D+02  0.234817D+00
  0.899700D+01  0.434401D+00
  0.331900D+01  0.346129D+00
  0.905900D+00  0.393780D-01
  0.364300D+00 -0.898300D-02
  0.128500D+00  0.238500D-02
   s    10 1.00
  0.823600D+04 -0.113000D-03
  0.123500D+04 -0.878000D-03
  0.280800D+03 -0.454000D-02
  0.792700D+02 -0.181330D-01
  0.255900D+02 -0.557600D-01
  0.899700D+01 -0.126895D+00
  0.331900D+01 -0.170352D+00
  0.905900D+00  0.140382D+00
  0.364300D+00  0.598684D+00
  0.128500D+00  0.395389D+00
   s     1 1.00
  0.905900D+00  0.100000D+01
   s     1 1.00
  0.364300D+00  0.100000D+01
   p     5 1.00
  0.187100D+02  0.140310D-01
  0.413300D+01  0.868660D-01
  0.120000D+01  0.290216D+00
  0.382700D+00  0.501008D+00
  0.120900D+00  0.343406D+00
   p     1 1.00
  0.382700D+00  0.100000D+01
   p     1 1.00
  0.120900D+00  0.100000D+01
   d     1 1.00
  0.109700D+01  0.100000D+01
   d     1 1.00
  0.318000D+00  0.100000D+01
   f     1 1.00
  0.761000D+00  0.100000D+01
  
  8  0
   s     4 1.00
  0.130100D+02  0.196850D-01
  0.196200D+01  0.137977D+00
  0.444600D+00  0.478148D+00
  0.122000D+00  0.501240D+00
   s     1 1.00
  0.122000D+00  0.100000D+01
   p     1 1.00
  0.727000D+00  0.100000D+01
  
  9  0
   s     4 1.00
  0.130100D+02  0.196850D-01
  0.196200D+01  0.137977D+00
  0.444600D+00  0.478148D+00
  0.122000D+00  0.501240D+00
   s     1 1.00
  0.122000D+00  0.100000D+01
   p     1 1.00
  0.727000D+00  0.100000D+01
  
 10  0
   s     4 1.00
  0.130100D+02  0.196850D-01
  0.196200D+01  0.137977D+00
  0.444600D+00  0.478148D+00
  0.122000D+00  0.501240D+00
   s     1 1.00
  0.122000D+00  0.100000D+01
   p     1 1.00
  0.727000D+00  0.100000D+01
  
 11  0
   s     4 1.00
  0.130100D+02  0.196850D-01
  0.196200D+01  0.137977D+00
  0.444600D+00  0.478148D+00
  0.122000D+00  0.501240D+00
   s     1 1.00
  0.122000D+00  0.100000D+01
   p     1 1.00
  0.727000D+00  0.100000D+01
  
 12  0
   s     4 1.00
  0.130100D+02  0.196850D-01
  0.196200D+01  0.137977D+00
  0.444600D+00  0.478148D+00
  0.122000D+00  0.501240D+00
   s     1 1.00
  0.122000D+00  0.100000D+01
   p     1 1.00
  0.727000D+00  0.100000D+01
  
 13  0
   s     4 1.00
  0.130100D+02  0.196850D-01
  0.196200D+01  0.137977D+00
  0.444600D+00  0.478148D+00
  0.122000D+00  0.501240D+00
   s     1 1.00
  0.122000D+00  0.100000D+01
   p     1 1.00
  0.727000D+00  0.100000D+01
  
 14  0
   s     4 1.00
  0.130100D+02  0.196850D-01
  0.196200D+01  0.137977D+00
  0.444600D+00  0.478148D+00
  0.122000D+00  0.501240D+00
   s     1 1.00
  0.122000D+00  0.100000D+01
   p     1 1.00
  0.727000D+00  0.100000D+01
  
[MO]
 Sym= __1_A__
 Ene=  0.000000000000000E+000
 Spin= Alpha
 Occup=    2.00000000000000     
                     1  4.178884232247886E-005
                     2  0.998070789438192     
                     3  9.271367488876369E-003
                     4  2.061406880656155E-003
                     5  1.526243447415948E-003
                     6 -1.257456508829143E-011
                     7  5.810287653040578E-010
                     8  4.485098551201240E-003
                     9  6.758547965030828E-012
                    10  1.320660836790218E-008
                    11 -1.185993357050857E-004
                    12  2.777182516029895E-012
                    13 -6.500889637469940E-008
                    14 -7.813425941527716E-005
                    15  2.694145447565017E-004
                    16  2.322098800095309E-013
                    17 -1.003812958715913E-010
                    18 -1.181463202114755E-004
                    19 -6.918564095584274E-013
                    20  1.644127011878697E-004
                    21 -1.551235417340413E-012
                    22 -1.116137732553863E-008
                    23  5.836993525133184E-004
                    24  1.528517104789904E-012
                    25 -1.898054115610587E-004
                    26 -6.787885390675402E-013
                    27 -4.686978133631417E-009
                    28  9.191641240321262E-005
                    29  1.391010798224692E-012
                    30  3.429620949559584E-012
                    31  2.340193255508605E-010
                    32 -3.712507602241974E-004
                    33  2.713594391281839E-003
                    34  1.460055092021149E-004
                    35 -2.435590140530924E-004
                    36 -1.172440311794268E-012
                    37  2.863959045924564E-008
                    38 -7.114263011615521E-003
                    39  3.796953166913851E-012
                    40 -1.113613201851457E-007
                    41  3.886244102772245E-004
                    42  2.037624537663542E-013
                    43 -1.227867255782778E-007
                    44  4.409457448644171E-003
                    45  3.493436260858887E-004
                    46  2.635649991322307E-012
                    47  7.959043801290520E-009
                    48  1.387027098276296E-004
                    49  6.240816215211096E-013
                    50  4.415902447179773E-005
                    51 -4.430789234709866E-012
                    52 -1.763562668456112E-007
                    53 -4.613366963527290E-004
                    54 -4.837869561816726E-012
                    55 -1.115855306953354E-004
                    56  5.094456499282022E-013
                    57  3.316726411626708E-009
                    58  7.825672013439400E-005
                    59 -4.153695205766723E-013
                    60  1.957934432146851E-012
                    61  2.714042528597753E-009
                    62 -2.113677547745321E-004
                    63 -1.681881308273479E-003
                    64  6.058073377906892E-005
                    65  5.537430250737974E-004
                    66  9.932605554127353E-012
                    67 -8.410089340010305E-004
                    68  1.015333464609336E-003
                    69 -9.322799564144193E-012
                    70 -3.614379812686227E-005
                    71  6.248770598767882E-004
                    72 -1.836044994089666E-012
                    73 -5.631978199907387E-004
                    74 -1.309444584473149E-004
                    75  9.260031631924810E-005
                    76  2.047475614069262E-012
                    77 -8.431233133716723E-006
                    78  4.208188558401896E-005
                    79  1.586472815529785E-012
                    80 -2.533184456759010E-005
                    81  3.627265909162869E-012
                    82  2.128990982246763E-004
                    83 -3.122630971262234E-005
                    84 -2.811551283552022E-012
                    85 -9.341353009172141E-005
                    86  2.978386633191408E-012
                    87 -2.993838067614530E-005
                    88  1.997454944899456E-005
                    89  1.293194199986314E-012
                    90 -2.199288331179343E-012
                    91  1.278688537240556E-005
                    92 -2.113494063272318E-004
                    93 -1.681793491597578E-003
                    94  6.075806993366363E-005
                    95  5.531603281204299E-004
                    96 -6.797509073409399E-012
                    97  8.410456405596669E-004
                    98  1.015465146314289E-003
                    99  4.294288207771396E-012
                   100  3.593738591004188E-005
                   101  6.240879203449157E-004
                   102  7.132481227522268E-012
                   103  5.625823101581425E-004
                   104 -1.310836187862219E-004
                   105  9.256354118355676E-005
                   106  1.401020737232500E-012
                   107  8.447000407237977E-006
                   108  4.208506991714786E-005
                   109 -4.079839656985134E-013
                   110 -2.583181566113568E-005
                   111  7.436032207308410E-013
                   112 -2.129661324615634E-004
                   113 -3.135241160089732E-005
                   114 -8.056610661131614E-013
                   115 -9.334330043208039E-005
                   116  1.932144507597472E-012
                   117  2.992264390413528E-005
                   118  1.997573170538372E-005
                   119  1.198562287431358E-012
                   120  1.553428666474989E-012
                   121 -1.278523119988131E-005
                   122 -1.476800941574382E-004
                   123  7.369737316501525E-006
                   124  1.108566210976472E-004
                   125  1.283286605815236E-004
                   126  3.258151178367253E-012
                   127  4.132218296262158E-005
                   128 -8.000079156561328E-004
                   129 -5.556288380113317E-012
                   130  2.019208966781516E-005
                   131  3.515026433772687E-004
                   132 -4.377875614054918E-012
                   133 -1.723652383346594E-004
                   134  7.086276412995179E-004
                   135 -1.739170052095752E-005
                   136 -1.450687202876942E-012
                   137  1.813151465474753E-006
                   138  1.505348737031827E-006
                   139  1.090794026632471E-012
                   140 -1.890319667561734E-004
                   141  3.506948895653522E-012
                   142  1.700554055811104E-004
                   143  1.256200055405372E-005
                   144 -1.925809124720515E-012
                   145 -3.929467861067325E-005
                   146 -1.817339148480288E-012
                   147  1.410960981994265E-006
                   148 -9.710131328672109E-006
                   149 -3.431045532844245E-012
                   150 -1.136011328185487E-012
                   151 -3.654767149342814E-006
                   152 -1.481145056156234E-004
                   153  5.829734611020279E-006
                   154  1.104327861740865E-004
                   155  1.310100161866328E-004
                   156 -1.033755257978397E-011
                   157 -4.136220535420918E-005
                   158 -7.999222984004141E-004
                   159  8.197718470563348E-012
                   160 -2.017937629914813E-005
                   161  3.508845292442498E-004
                   162 -4.305862560489815E-012
                   163  1.730209800480168E-004
                   164  7.084982171579155E-004
                   165 -1.733755259384058E-005
                   166 -6.805970461747547E-013
                   167 -1.806829365070488E-006
                   168  1.470219892310169E-006
                   169 -2.797928136429538E-012
                   170 -1.887811463412599E-004
                   171  4.293713028642372E-013
                   172 -1.701788694413062E-004
                   173  1.259186223199331E-005
                   174  5.450271875402312E-012
                   175 -3.920857131627647E-005
                   176  8.514761161880469E-013
                   177 -1.382063880595395E-006
                   178 -9.743907935169649E-006
                   179  1.316517865487567E-012
                   180  1.037113614498916E-012
                   181  3.648886189396463E-006
                   182 -1.216633715946021E-004
                   183 -3.262811117586761E-004
                   184  3.235970140092341E-005
                   185  1.466182522498731E-004
                   186 -6.257041437240940E-012
                   187  1.392483240874053E-008
                   188 -4.068333159996012E-005
                   189  7.209287071635305E-012
                   190 -1.334198217858827E-007
                   191  1.812712791699860E-005
                   192  5.289468152167364E-012
                   193  1.431371238400814E-007
                   194  5.440356002164860E-005
                   195  1.921482441953466E-005
                   196  4.180235762168872E-013
                   197  1.094723947826934E-008
                   198  9.155881026350112E-006
                   199 -6.886889393129213E-013
                   200  5.925262857148641E-005
                   201 -3.269935018596008E-012
                   202  7.307273599681646E-008
                   203  5.013868520633628E-005
                   204  1.414795844649573E-012
                   205 -1.162931999508105E-005
                   206  2.493986256732651E-013
                   207 -9.717904469643404E-009
                   208  3.151710323579436E-006
                   209  1.499159422924615E-012
                   210  3.016553153892255E-012
                   211  8.791096402498938E-009
                   212  3.855731749662697E-003
                   213 -2.325777855113780E-003
                   214  9.791840343842867E-013
                   215  4.677852479330862E-004
                   216  3.805892491078829E-004
                   217  3.855779477735599E-003
                   218 -2.325792903331603E-003
                   219 -8.174024579061414E-013
                   220 -4.678105487113586E-004
                   221  3.806010392283584E-004
                   222 -6.698668293429808E-004
                   223 -1.197916132489352E-004
                   224  4.029889366747977E-013
                   225 -1.696893045054960E-005
                   226 -4.527505825286766E-005
                   227 -6.699474963918982E-004
                   228 -1.194827880174646E-004
                   229 -1.865016296315291E-012
                   230  1.694529054263706E-005
                   231 -4.530669315469306E-005
                   232 -2.338896782335752E-004
                   233 -4.095131208647756E-004
                   234  9.160440633991268E-014
                   235 -5.665283004388211E-006
                   236  5.929766395079516E-006
                   237 -2.340107827664153E-004
                   238 -4.096029426413794E-004
                   239 -8.599653557683828E-013
                   240  5.733831541632618E-006
                   241  5.968080789800152E-006
                   242  6.905401378308200E-005
                   243 -1.307583795701943E-004
                   244 -9.906509525033353E-013
                   245 -6.987293366715356E-009
                   246  1.437620974948199E-005
 Sym= __2_A__
 Ene=  0.000000000000000E+000
 Spin= Alpha
 Occup=    2.00000000000000     
                     1 -4.667499059093269E-005
                     2 -2.158585857323843E-004
                     3  2.293797221541926E-003
                     4  1.018625678893677E-004
                     5  1.263778080768865E-003
                     6  1.943970734922991E-011
                     7  5.315865465362022E-009
                     8  3.012033153786692E-003
                     9 -3.123444369746594E-012
                    10 -3.662528110910275E-009
                    11 -4.986892475693085E-005
                    12 -1.955434080955434E-011
                    13  4.488488091054600E-009
                    14 -5.489398429258021E-004
                    15  4.269282095062562E-005
                    16 -2.323966582183777E-012
                    17  4.199049189149275E-010
                    18  6.537515947169170E-005
                    19 -1.487732903527517E-013
                    20 -2.856595986580622E-004
                    21 -1.398615037461530E-013
                    22  1.987692823146713E-010
                    23 -3.371009215758468E-004
                    24  1.457890698765533E-012
                    25  1.801054270349155E-004
                    26  1.848192768506340E-012
                    27 -7.575237695837159E-010
                    28 -5.846413099481856E-007
                    29 -2.418977664358743E-012
                    30 -6.575382108981257E-012
                    31  7.858602637802325E-010
                    32   1.00106048569963     
                    33  9.290486532866104E-003
                    34  2.631927881904853E-003
                    35 -7.762662697271642E-003
                    36 -7.880712753223232E-013
                    37 -5.161960684153986E-009
                    38 -4.151433299370462E-003
                    39 -5.833788837900721E-012
                    40  1.597713533551011E-009
                    41  1.004248029709147E-003
                    42  5.914553769140287E-012
                    43 -6.025828369052040E-008
                    44  4.449275061292611E-003
                    45  4.767335747250800E-004
                    46 -9.522238105314611E-013
                    47 -2.917804196977912E-009
                    48 -4.313122857227072E-004
                    49  4.302651140036891E-012
                    50  5.827162330551194E-004
                    51  3.550955522807506E-012
                    52  9.757056757850773E-009
                    53  9.397974112416086E-004
                    54  3.769531209215968E-012
                    55  3.869397362760137E-004
                    56  1.812039557615090E-012
                    57 -6.797139897565389E-010
                    58 -2.063127916927230E-004
                    59  5.938431101106923E-012
                    60 -8.917239961840453E-013
                    61  1.511284120863200E-009
                    62  7.187595005178606E-003
                    63 -2.058804716754751E-003
                    64 -2.763567096237657E-004
                    65  3.040472800618227E-003
                    66  3.376112302657268E-012
                    67  9.397962340923968E-005
                    68 -7.578307916923186E-006
                    69 -1.053781522612979E-011
                    70  6.013038911749601E-004
                    71  1.685114325389366E-005
                    72  1.252301007322652E-011
                    73 -2.098423319658929E-003
                    74  9.605227346090592E-005
                    75 -1.502052625730319E-005
                    76 -2.848715340904061E-012
                    77  1.367821531380447E-005
                    78  2.896764800610240E-005
                    79 -1.287242938993087E-014
                    80  7.635685333725285E-004
                    81  1.046991824050668E-012
                    82 -4.229271199140929E-004
                    83 -1.131272147109723E-005
                    84 -1.274017743548407E-012
                    85  7.338094820209007E-005
                    86 -3.922876449372301E-012
                    87  4.622581022994213E-005
                    88 -1.272075371300491E-004
                    89 -4.549315700674068E-012
                    90  3.762694542358263E-012
                    91  5.017362033668117E-005
                    92  7.187569422267062E-003
                    93 -2.058890397679597E-003
                    94 -2.763988282918382E-004
                    95  3.040674996348895E-003
                    96  8.549999625244700E-012
                    97 -9.398089955414727E-005
                    98 -7.600580687852869E-006
                    99 -8.654720053505444E-012
                   100 -6.013019482627760E-004
                   101  1.698060165864080E-005
                   102 -1.043805144533986E-011
                   103  2.098548952821311E-003
                   104  9.590902296556168E-005
                   105 -1.500580944472880E-005
                   106  1.484395585445893E-012
                   107 -1.368440919272854E-005
                   108  2.896617675706696E-005
                   109 -2.220426301330670E-012
                   110  7.636263464031106E-004
                   111 -4.391456609112325E-012
                   112  4.229743338082686E-004
                   113 -1.129387117577700E-005
                   114  4.040066201262848E-012
                   115  7.336807939111385E-005
                   116  8.103109635516270E-013
                   117 -4.622305354336118E-005
                   118 -1.272050915702587E-004
                   119 -3.202421317507542E-012
                   120  4.271277405377883E-012
                   121 -5.017219034127818E-005
                   122 -2.333629821513809E-004
                   123 -7.541314948204808E-004
                   124  2.243955352474365E-004
                   125 -1.094893639198408E-004
                   126 -9.885786692751043E-012
                   127 -1.799467041504290E-005
                   128 -2.559276469644088E-004
                   129  2.155716030594084E-011
                   130 -9.655129059652950E-006
                   131  5.352290099165708E-004
                   132 -1.782647977669233E-011
                   133  3.288336541062603E-004
                   134  7.514460292733255E-004
                   135 -1.389031302673177E-005
                   136  5.405416023875850E-013
                   137  5.166686128853329E-005
                   138  1.390497807981263E-005
                   139  1.932657446855806E-012
                   140 -2.891550382902168E-004
                   141 -5.397400780044585E-013
                   142 -2.182507567586329E-004
                   143 -1.299600694754780E-005
                   144  3.667956697032807E-012
                   145  1.311569489073263E-006
                   146  4.058563242838265E-012
                   147 -4.127776680004478E-005
                   148 -3.985129131083874E-005
                   149  3.548097331385620E-012
                   150  3.433935546480956E-012
                   151 -5.518458489894469E-006
                   152 -2.330837629650421E-004
                   153 -7.532039555827006E-004
                   154  2.244560131289514E-004
                   155 -1.104594939872340E-004
                   156 -1.489890081148081E-011
                   157  1.798723507425917E-005
                   158 -2.559319455055922E-004
                   159  1.072224528323291E-011
                   160  9.688408240621471E-006