[Molden Format]
[Atoms] AU
  N     1    7    -0.0680752200   -4.3177001500    0.0000000200        
  C     2    6     0.0516738100   -1.7890355100   -0.0000000100        
  C     3    6    -2.2787857800   -0.4036778400   -0.0000000300        
  C     4    6     2.3483184800   -0.3539282100   -0.0000000400        
  C     5    6    -2.2737444000    2.1797828900   -0.0000000200        
  C     6    6     2.3023460300    2.2305558900    0.0000000000        
  C     7    6     0.0020048500    3.5264997000    0.0000000200        
  H     8    1    -3.4814848600   -6.6910076800    0.0000000700        
  H     9    1     1.7326414200   -5.0493423800    0.0000000100        
  H    10    1    -4.0092655700   -1.4535372800   -0.0000000500        
  H    11    1     4.1167849400   -1.3499661000   -0.0000000500        
  H    12    1    -4.0314986500    3.1940093200   -0.0000000300        
  H    13    1     4.0412971700    3.2764629500    0.0000000200        
  H    14    1    -0.0194444200    5.5542088100    0.0000000600        
[5D]
[7F]
[GTO]
  1  0
   s    12 1.00
  0.114200D+05  0.172695D-04
  0.171200D+04  0.134411D-03
  0.389300D+03  0.694561D-03
  0.110000D+03  0.278531D-02
  0.355700D+02  0.863457D-02
  0.125400D+02  0.199805D-01
  0.464400D+01  0.262908D-01
  0.129300D+01 -0.243845D-01
  0.511800D+00 -0.924934D-01
  0.178700D+00 -0.339683D+00
  0.246240D-01  0.345111D+00
  0.112530D-01  0.752750D+00
   s    10 1.00
  0.114200D+05  0.523000D-03
  0.171200D+04  0.404500D-02
  0.389300D+03  0.207750D-01
  0.110000D+03  0.807269D-01
  0.355700D+02  0.233074D+00
  0.125400D+02  0.433501D+00
  0.464400D+01  0.347472D+00
  0.129300D+01  0.412620D-01
  0.511800D+00 -0.850799D-02
  0.178700D+00  0.238400D-02
   s    10 1.00
  0.114200D+05 -0.115000D-03
  0.171200D+04 -0.895000D-03
  0.389300D+03 -0.462400D-02
  0.110000D+03 -0.185280D-01
  0.355700D+02 -0.573390D-01
  0.125400D+02 -0.132076D+00
  0.464400D+01 -0.172510D+00
  0.129300D+01  0.151814D+00
  0.511800D+00  0.599944D+00
  0.178700D+00  0.387462D+00
   s     1 1.00
  0.129300D+01  0.100000D+01
   s     1 1.00
  0.178700D+00  0.100000D+01
   p     5 1.00
  0.266300D+02  0.146700D-01
  0.594800D+01  0.917640D-01
  0.174200D+01  0.298683D+00
  0.555000D+00  0.498487D+00
  0.172500D+00  0.337023D+00
   p     1 1.00
  0.174200D+01  0.100000D+01
   p     1 1.00
  0.555000D+00  0.100000D+01
   d     1 1.00
  0.165400D+01  0.100000D+01
   d     1 1.00
  0.469000D+00  0.100000D+01
   f     1 1.00
  0.109300D+01  0.100000D+01
  
  2  0
   s    10 1.00
  0.823600D+04  0.531000D-03
  0.123500D+04  0.410800D-02
  0.280800D+03  0.210870D-01
  0.792700D+02  0.818530D-01
  0.255900D+02  0.234817D+00
  0.899700D+01  0.434401D+00
  0.331900D+01  0.346129D+00
  0.905900D+00  0.393780D-01
  0.364300D+00 -0.898300D-02
  0.128500D+00  0.238500D-02
   s    10 1.00
  0.823600D+04 -0.113000D-03
  0.123500D+04 -0.878000D-03
  0.280800D+03 -0.454000D-02
  0.792700D+02 -0.181330D-01
  0.255900D+02 -0.557600D-01
  0.899700D+01 -0.126895D+00
  0.331900D+01 -0.170352D+00
  0.905900D+00  0.140382D+00
  0.364300D+00  0.598684D+00
  0.128500D+00  0.395389D+00
   s     1 1.00
  0.905900D+00  0.100000D+01
   s     1 1.00
  0.364300D+00  0.100000D+01
   p     5 1.00
  0.187100D+02  0.140310D-01
  0.413300D+01  0.868660D-01
  0.120000D+01  0.290216D+00
  0.382700D+00  0.501008D+00
  0.120900D+00  0.343406D+00
   p     1 1.00
  0.382700D+00  0.100000D+01
   p     1 1.00
  0.120900D+00  0.100000D+01
   d     1 1.00
  0.109700D+01  0.100000D+01
   d     1 1.00
  0.318000D+00  0.100000D+01
   f     1 1.00
  0.761000D+00  0.100000D+01
  
  3  0
   s    10 1.00
  0.823600D+04  0.531000D-03
  0.123500D+04  0.410800D-02
  0.280800D+03  0.210870D-01
  0.792700D+02  0.818530D-01
  0.255900D+02  0.234817D+00
  0.899700D+01  0.434401D+00
  0.331900D+01  0.346129D+00
  0.905900D+00  0.393780D-01
  0.364300D+00 -0.898300D-02
  0.128500D+00  0.238500D-02
   s    10 1.00
  0.823600D+04 -0.113000D-03
  0.123500D+04 -0.878000D-03
  0.280800D+03 -0.454000D-02
  0.792700D+02 -0.181330D-01
  0.255900D+02 -0.557600D-01
  0.899700D+01 -0.126895D+00
  0.331900D+01 -0.170352D+00
  0.905900D+00  0.140382D+00
  0.364300D+00  0.598684D+00
  0.128500D+00  0.395389D+00
   s     1 1.00
  0.905900D+00  0.100000D+01
   s     1 1.00
  0.364300D+00  0.100000D+01
   p     5 1.00
  0.187100D+02  0.140310D-01
  0.413300D+01  0.868660D-01
  0.120000D+01  0.290216D+00
  0.382700D+00  0.501008D+00
  0.120900D+00  0.343406D+00
   p     1 1.00
  0.382700D+00  0.100000D+01
   p     1 1.00
  0.120900D+00  0.100000D+01
   d     1 1.00
  0.109700D+01  0.100000D+01
   d     1 1.00
  0.318000D+00  0.100000D+01
   f     1 1.00
  0.761000D+00  0.100000D+01
  
  4  0
   s    10 1.00
  0.823600D+04  0.531000D-03
  0.123500D+04  0.410800D-02
  0.280800D+03  0.210870D-01
  0.792700D+02  0.818530D-01
  0.255900D+02  0.234817D+00
  0.899700D+01  0.434401D+00
  0.331900D+01  0.346129D+00
  0.905900D+00  0.393780D-01
  0.364300D+00 -0.898300D-02
  0.128500D+00  0.238500D-02
   s    10 1.00
  0.823600D+04 -0.113000D-03
  0.123500D+04 -0.878000D-03
  0.280800D+03 -0.454000D-02
  0.792700D+02 -0.181330D-01
  0.255900D+02 -0.557600D-01
  0.899700D+01 -0.126895D+00
  0.331900D+01 -0.170352D+00
  0.905900D+00  0.140382D+00
  0.364300D+00  0.598684D+00
  0.128500D+00  0.395389D+00
   s     1 1.00
  0.905900D+00  0.100000D+01
   s     1 1.00
  0.364300D+00  0.100000D+01
   p     5 1.00
  0.187100D+02  0.140310D-01
  0.413300D+01  0.868660D-01
  0.120000D+01  0.290216D+00
  0.382700D+00  0.501008D+00
  0.120900D+00  0.343406D+00
   p     1 1.00
  0.382700D+00  0.100000D+01
   p     1 1.00
  0.120900D+00  0.100000D+01
   d     1 1.00
  0.109700D+01  0.100000D+01
   d     1 1.00
  0.318000D+00  0.100000D+01
   f     1 1.00
  0.761000D+00  0.100000D+01
  
  5  0
   s    10 1.00
  0.823600D+04  0.531000D-03
  0.123500D+04  0.410800D-02
  0.280800D+03  0.210870D-01
  0.792700D+02  0.818530D-01
  0.255900D+02  0.234817D+00
  0.899700D+01  0.434401D+00
  0.331900D+01  0.346129D+00
  0.905900D+00  0.393780D-01
  0.364300D+00 -0.898300D-02
  0.128500D+00  0.238500D-02
   s    10 1.00
  0.823600D+04 -0.113000D-03
  0.123500D+04 -0.878000D-03
  0.280800D+03 -0.454000D-02
  0.792700D+02 -0.181330D-01
  0.255900D+02 -0.557600D-01
  0.899700D+01 -0.126895D+00
  0.331900D+01 -0.170352D+00
  0.905900D+00  0.140382D+00
  0.364300D+00  0.598684D+00
  0.128500D+00  0.395389D+00
   s     1 1.00
  0.905900D+00  0.100000D+01
   s     1 1.00
  0.364300D+00  0.100000D+01
   p     5 1.00
  0.187100D+02  0.140310D-01
  0.413300D+01  0.868660D-01
  0.120000D+01  0.290216D+00
  0.382700D+00  0.501008D+00
  0.120900D+00  0.343406D+00
   p     1 1.00
  0.382700D+00  0.100000D+01
   p     1 1.00
  0.120900D+00  0.100000D+01
   d     1 1.00
  0.109700D+01  0.100000D+01
   d     1 1.00
  0.318000D+00  0.100000D+01
   f     1 1.00
  0.761000D+00  0.100000D+01
  
  6  0
   s    10 1.00
  0.823600D+04  0.531000D-03
  0.123500D+04  0.410800D-02
  0.280800D+03  0.210870D-01
  0.792700D+02  0.818530D-01
  0.255900D+02  0.234817D+00
  0.899700D+01  0.434401D+00
  0.331900D+01  0.346129D+00
  0.905900D+00  0.393780D-01
  0.364300D+00 -0.898300D-02
  0.128500D+00  0.238500D-02
   s    10 1.00
  0.823600D+04 -0.113000D-03
  0.123500D+04 -0.878000D-03
  0.280800D+03 -0.454000D-02
  0.792700D+02 -0.181330D-01
  0.255900D+02 -0.557600D-01
  0.899700D+01 -0.126895D+00
  0.331900D+01 -0.170352D+00
  0.905900D+00  0.140382D+00
  0.364300D+00  0.598684D+00
  0.128500D+00  0.395389D+00
   s     1 1.00
  0.905900D+00  0.100000D+01
   s     1 1.00
  0.364300D+00  0.100000D+01
   p     5 1.00
  0.187100D+02  0.140310D-01
  0.413300D+01  0.868660D-01
  0.120000D+01  0.290216D+00
  0.382700D+00  0.501008D+00
  0.120900D+00  0.343406D+00
   p     1 1.00
  0.382700D+00  0.100000D+01
   p     1 1.00
  0.120900D+00  0.100000D+01
   d     1 1.00
  0.109700D+01  0.100000D+01
   d     1 1.00
  0.318000D+00  0.100000D+01
   f     1 1.00
  0.761000D+00  0.100000D+01
  
  7  0
   s    10 1.00
  0.823600D+04  0.531000D-03
  0.123500D+04  0.410800D-02
  0.280800D+03  0.210870D-01
  0.792700D+02  0.818530D-01
  0.255900D+02  0.234817D+00
  0.899700D+01  0.434401D+00
  0.331900D+01  0.346129D+00
  0.905900D+00  0.393780D-01
  0.364300D+00 -0.898300D-02
  0.128500D+00  0.238500D-02
   s    10 1.00
  0.823600D+04 -0.113000D-03
  0.123500D+04 -0.878000D-03
  0.280800D+03 -0.454000D-02
  0.792700D+02 -0.181330D-01
  0.255900D+02 -0.557600D-01
  0.899700D+01 -0.126895D+00
  0.331900D+01 -0.170352D+00
  0.905900D+00  0.140382D+00
  0.364300D+00  0.598684D+00
  0.128500D+00  0.395389D+00
   s     1 1.00
  0.905900D+00  0.100000D+01
   s     1 1.00
  0.364300D+00  0.100000D+01
   p     5 1.00
  0.187100D+02  0.140310D-01
  0.413300D+01  0.868660D-01
  0.120000D+01  0.290216D+00
  0.382700D+00  0.501008D+00
  0.120900D+00  0.343406D+00
   p     1 1.00
  0.382700D+00  0.100000D+01
   p     1 1.00
  0.120900D+00  0.100000D+01
   d     1 1.00
  0.109700D+01  0.100000D+01
   d     1 1.00
  0.318000D+00  0.100000D+01
   f     1 1.00
  0.761000D+00  0.100000D+01
  
  8  0
   s     4 1.00
  0.130100D+02  0.196850D-01
  0.196200D+01  0.137977D+00
  0.444600D+00  0.478148D+00
  0.122000D+00  0.501240D+00
   s     1 1.00
  0.122000D+00  0.100000D+01
   p     1 1.00
  0.727000D+00  0.100000D+01
  
  9  0
   s     4 1.00
  0.130100D+02  0.196850D-01
  0.196200D+01  0.137977D+00
  0.444600D+00  0.478148D+00
  0.122000D+00  0.501240D+00
   s     1 1.00
  0.122000D+00  0.100000D+01
   p     1 1.00
  0.727000D+00  0.100000D+01
  
 10  0
   s     4 1.00
  0.130100D+02  0.196850D-01
  0.196200D+01  0.137977D+00
  0.444600D+00  0.478148D+00
  0.122000D+00  0.501240D+00
   s     1 1.00
  0.122000D+00  0.100000D+01
   p     1 1.00
  0.727000D+00  0.100000D+01
  
 11  0
   s     4 1.00
  0.130100D+02  0.196850D-01
  0.196200D+01  0.137977D+00
  0.444600D+00  0.478148D+00
  0.122000D+00  0.501240D+00
   s     1 1.00
  0.122000D+00  0.100000D+01
   p     1 1.00
  0.727000D+00  0.100000D+01
  
 12  0
   s     4 1.00
  0.130100D+02  0.196850D-01
  0.196200D+01  0.137977D+00
  0.444600D+00  0.478148D+00
  0.122000D+00  0.501240D+00
   s     1 1.00
  0.122000D+00  0.100000D+01
   p     1 1.00
  0.727000D+00  0.100000D+01
  
 13  0
   s     4 1.00
  0.130100D+02  0.196850D-01
  0.196200D+01  0.137977D+00
  0.444600D+00  0.478148D+00
  0.122000D+00  0.501240D+00
   s     1 1.00
  0.122000D+00  0.100000D+01
   p     1 1.00
  0.727000D+00  0.100000D+01
  
 14  0
   s     4 1.00
  0.130100D+02  0.196850D-01
  0.196200D+01  0.137977D+00
  0.444600D+00  0.478148D+00
  0.122000D+00  0.501240D+00
   s     1 1.00
  0.122000D+00  0.100000D+01
   p     1 1.00
  0.727000D+00  0.100000D+01
  
[MO]
 Sym= __1_A__
 Ene=  0.000000000000000E+000
 Spin= Alpha
 Occup=    2.00000000000000     
                     1  8.421547917155086E-005
                     2  0.998381638128548     
                     3 -3.992407898580620E-003
                     4  1.856103840952797E-003
                     5  6.402934876717113E-003
                     6  2.722915786060300E-003
                     7  5.502510783230983E-003
                     8 -1.655604470571688E-010
                     9 -7.241740149836727E-004
                    10 -7.091819803123987E-004
                    11  2.198544132352457E-010
                    12 -2.430879033596374E-003
                    13 -1.954769229786180E-003
                    14 -2.425763560135743E-010
                    15 -3.034419113667718E-005
                    16  5.700195614996185E-011
                    17  1.350880372208970E-011
                    18 -1.485625064075545E-004
                    19 -5.871068172745425E-005
                    20  1.191098878985980E-004
                    21 -6.436233218393935E-011
                    22 -3.235864817279287E-010
                    23 -1.604882774879267E-004
                    24  4.657915196321957E-004
                    25 -3.286382225038645E-010
                    26 -2.941448245147922E-006
                    27 -4.175260235356096E-005
                    28  1.985963038317591E-010
                    29 -2.573814648060546E-010
                    30  3.351481204114660E-005
                    31 -9.879408942525833E-005
                    32 -2.751760694379026E-004
                    33  7.032467484330363E-005
                    34  3.051509103501794E-004
                    35 -1.122816995749487E-004
                    36 -1.012791459886761E-004
                    37 -1.864864837264132E-003
                    38 -1.100546304018764E-010
                    39  3.433461720908950E-004
                    40  6.458868249467151E-005
                    41  3.085730583732908E-010
                    42 -1.938993834401509E-003
                    43  4.730244417143979E-003
                    44 -1.189732495327291E-010
                    45  1.337114913012337E-005
                    46 -1.177534484435625E-011
                    47 -3.848062951663654E-011
                    48 -9.586442623330764E-005
                    49  1.053964198884529E-005
                    50 -1.921131192708275E-004
                    51  5.042561566839137E-011
                    52 -3.684642614849016E-010
                    53 -1.183383413634564E-005
                    54  7.458882343427645E-004
                    55  9.838565235092771E-011
                    56 -5.714290848510797E-006
                    57 -7.909531175711242E-005
                    58 -1.997209613724200E-010
                    59 -2.638532571857033E-011
                    60  2.025172441383036E-005
                    61 -1.344974756958517E-004
                    62 -5.133460102064272E-004
                    63 -1.904133267724244E-003
                    64 -9.786911875800126E-005
                    65  2.146873353692357E-003
                    66 -2.936514490505655E-004
                    67 -4.393447369941669E-005
                    68 -6.111858592594914E-011
                    69  3.698266067716548E-004
                    70  8.494832115898825E-004
                    71  6.568855879201712E-011
                    72 -1.784197693902788E-003
                    73  6.358620189385732E-004
                    74  1.906963868079342E-011
                    75 -4.768571724104020E-005
                    76 -4.631611760086148E-012
                    77  1.567563394357319E-011
                    78 -4.574151251065422E-005
                    79 -2.447218286847193E-005
                    80 -1.323559463380636E-004
                    81  7.809045698625001E-011
                    82 -3.163701365302956E-011
                    83  1.400042459034507E-005
                    84 -2.453094289062662E-005
                    85  5.319143907864465E-011
                    86  9.442404015751764E-006
                    87 -4.579924638718140E-005
                    88 -7.796505546274240E-011
                    89 -1.458741273470805E-011
                    90 -2.810714938599431E-005
                    91 -1.561860112896369E-004
                    92 -1.760349752732377E-004
                    93 -5.357738621081255E-004
                    94  1.476784576860783E-004
                    95 -4.142408954688194E-005
                    96  6.599568867434487E-005
                    97 -9.695576248466119E-005
                    98 -5.413956755904227E-011
                    99  3.375037067877518E-004
                   100  3.600685088862793E-004
                   101  2.502958261673488E-011
                   102  5.953166769193859E-004
                   103 -1.636744505013628E-003
                   104 -2.786214907227392E-011
                   105 -1.438750189778654E-005
                   106 -2.742614493717258E-013
                   107  1.295595058521543E-011
                   108 -3.526829988218312E-005
                   109 -1.145099154216301E-005
                   110  7.230066347150787E-005
                   111 -4.406825984171434E-011
                   112 -3.158618039075082E-011
                   113 -1.484271882629614E-004
                   114  1.134547722300539E-004
                   115  5.466931970155096E-011
                   116 -1.775147739510953E-005
                   117 -2.179954960466547E-005
                   118 -7.836791686663882E-011
                   119  3.858800067580984E-012
                   120 -7.561184913907790E-006
                   121 -4.513776457453275E-005
                   122 -2.408676258583229E-004
                   123 -6.706263008704882E-004
                   124  1.712755772411828E-004
                   125  2.822905025900269E-004
                   126 -3.966592769412519E-005
                   127 -2.068520029274375E-004
                   128 -1.264777430731379E-011
                   129  2.335190312952667E-004
                   130  6.311666338107205E-004
                   131 -7.028711172479135E-012
                   132  4.432647098420240E-004
                   133  1.850462170809862E-003
                   134  7.545490376870873E-011
                   135  1.541778329758945E-005
                   136  1.016886957738906E-011
                   137  3.699680902647249E-010
                   138  4.872819709243118E-005
                   139 -5.313892943315485E-006
                   140  1.997097123330467E-004
                   141  2.326867636756841E-011
                   142 -2.166449140393899E-010
                   143  3.868088448045932E-004
                   144  1.944761125442791E-004
                   145 -5.862618266631930E-013
                   146 -1.236758998904112E-005
                   147 -6.211356500567612E-005
                   148  2.477610910248592E-011
                   149  1.204100889330828E-011
                   150 -8.953250472371041E-006
                   151 -5.529010495056849E-005
                   152 -1.351955222941356E-004
                   153 -4.203596060981964E-004
                   154  5.628310278629083E-005
                   155  2.064975289941130E-004
                   156  7.695949581481572E-006
                   157 -1.541136192566150E-005
                   158 -1.824959226779311E-011
                   159 -1.351904122966180E-005
                   160  4.787502945788470E-005
                   161 -5.725956831184670E-012
                   162  7.200574691639476E-004
                   163 -3.295793087698444E-004
                   164  7.950677282454572E-011
                   165  1.834020232154786E-006
                   166 -1.078892424243759E-011
                   167  4.004632081264041E-010
                   168  5.205290858517218E-006
                   169  1.299432258303631E-005
                   170  1.075334954249853E-004
                   171 -2.963967377115822E-011
                   172 -2.535617755800642E-010
                   173  4.790672539988762E-005
                   174  3.800144143293681E-005
                   175  7.689702983516205E-013
                   176  4.413543613225923E-006
                   177 -1.420009811025016E-005
                   178  2.700644005840112E-011
                   179 -1.558978042465988E-011
                   180 -2.501021931948307E-005
                   181 -3.076797534014751E-005
                   182 -1.370341489654293E-004
                   183 -4.092056133595837E-004
                   184  3.108989437253360E-005
                   185  2.181614808266928E-004
                   186 -4.335627806874848E-005
                   187 -5.343543578031403E-005
                   188  3.488091648764119E-011
                   189  2.468204875029787E-004
                   190  1.113060692674622E-004
                   191 -2.024876892354475E-011
                   192  1.239517727807617E-003
                   193 -3.012110213900051E-004
                   194 -1.860914691341357E-011
                   195  5.561033444893274E-007
                   196  6.373179704942255E-014
                   197  2.936611919341819E-011
                   198 -2.756740839384966E-006
                   199  3.829358589412157E-006
                   200 -6.595364379778644E-006
                   201 -8.716981539066739E-012
                   202  8.954618199027831E-011
                   203 -6.554301258547715E-005
                   204 -1.874311292043354E-004
                   205 -4.790545628918395E-011
                   206 -8.867674497330701E-006
                   207 -3.755961237444503E-006
                   208 -3.358134518443188E-011
                   209  4.903795217509783E-012
                   210  7.677155148847467E-006
                   211 -3.769397602478393E-006
                   212 -2.663815566914733E-005
                   213  1.275767325981350E-004
                   214  9.431109794300215E-006
                   215  2.746247107741320E-005
                   216 -1.973052352638115E-012
                   217 -1.191730203418768E-003
                   218 -4.108999815892602E-004
                   219 -2.037124970319239E-004
                   220  3.901971700074764E-005
                   221 -1.906809563467792E-011
                   222 -1.580098520125869E-004
                   223 -6.636267937230874E-004
                   224  2.002957904435485E-005
                   225 -5.882090526052185E-005
                   226  1.534968334501230E-011
                   227  7.596044090772487E-005
                   228 -6.089973057784034E-004
                   229 -4.171346522920051E-005
                   230 -1.635898786493585E-005
                   231  1.274388059985922E-011
                   232  5.025035393207831E-005
                   233 -4.371397458984879E-004
                   234  1.420964034606494E-005
                   235 -4.003267841893752E-006
                   236  1.165484081634784E-011
                   237  3.599356991481158E-005
                   238 -3.587164769175746E-004
                   239 -1.015980704683411E-005
                   240 -3.764882881320982E-006
                   241  1.608453292568663E-011
                   242 -6.557371341245183E-005
                   243  7.975215303785429E-005
                   244  7.162249046091688E-008
                   245  2.828366992966054E-005
                   246 -3.889472954886087E-011
 Sym= __2_A__
 Ene=  0.000000000000000E+000
 Spin= Alpha
 Occup=    2.00000000000000     
                     1  4.915239403866816E-005
                     2  3.350889328447552E-004
                     3 -2.720229310272483E-003
                     4 -1.247821434139559E-004
                     5 -1.316432815753443E-003
                     6  2.532361739655368E-004
                     7 -2.654226436320383E-003
                     8  1.145445607975486E-010
                     9  3.847114429627684E-005
                    10  1.119019948860214E-004
                    11 -6.416092293132125E-011
                    12  5.897779227933282E-005
                    13  3.234439283013648E-004
                    14  1.062277356427312E-010
                    15 -2.877073925359184E-005
                    16 -1.525269731014696E-012
                    17 -1.459454747408684E-011
                    18  3.837721760174992E-005
                    19 -1.962005824966454E-005
                    20  1.082008490853250E-004
                    21  5.523127773222941E-012
                    22  2.163244283168401E-010
                    23 -1.315979825053340E-004
                    24  1.528434660520330E-004
                    25  1.723919681756222E-010
                    26  1.789400516868522E-005
                    27 -9.602048816957355E-005
                    28 -1.742530064207488E-010
                    29  1.677591191266109E-010
                    30  6.683658538702368E-005
                    31 -1.481930521607671E-004
                    32  -1.00090316018006     
                    33 -9.082616828468554E-003
                    34 -2.764407522307497E-003
                    35  8.057754648945079E-003
                    36  1.819674533733047E-004
                    37  3.043637247966345E-003
                    38 -1.006701890348196E-010
                    39  7.853172675904087E-005
                    40 -1.720271776615594E-004
                    41 -7.146932679630500E-011
                    42  1.345293967097203E-004
                    43 -3.956491219967507E-003
                    44  4.827685687374373E-010
                    45  5.308717792374625E-004
                    46 -4.297972412221712E-011
                    47  4.328857298126007E-011
                    48  1.950566509472327E-004
                    49 -3.387556531570567E-005
                    50 -5.489494030883712E-004
                    51 -4.269101259596939E-011
                    52  3.927911669629650E-010
                    53  6.618045660521410E-004
                    54  3.758005424938398E-004
                    55 -4.894242669415830E-011
                    56 -1.058424031556058E-005
                    57 -9.974310135534263E-005
                    58  1.131536903671216E-010
                    59  1.501498300934766E-011
                    60  2.741607703342267E-005
                    61 -3.836471307556810E-004
                    62 -1.223395846438660E-002
                    63  1.999398096978485E-003
                    64  2.419828552916080E-004
                    65 -2.710327530132967E-003
                    66 -5.187667055023115E-005
                    67 -6.949937761792394E-005
                    68  1.102256245093452E-010
                    69 -5.426718511732551E-004
                    70 -1.439855691259799E-004
                    71 -2.450549594519304E-010
                    72  2.091229301666634E-003
                    73 -2.775443423862337E-004
                    74 -4.891212463493777E-010
                    75 -3.305435791933622E-005
                    76  2.401229465117723E-011
                    77  6.968478418878476E-012
                    78  1.804617099989258E-006
                    79 -2.550614935278367E-006
                    80  4.296634487989395E-004
                    81 -2.507945817870069E-010
                    82 -1.554117120252918E-010
                    83  6.482567467232454E-004
                    84  2.597347271526995E-004
                    85 -3.239437933303270E-011
                    86 -2.769312624263341E-005
                    87  5.850341310898668E-005
                    88  3.633261126561520E-011
                    89 -2.661111153834938E-011
                    90 -4.062538588878705E-005
                    91 -1.491939342394368E-004
                    92 -1.503876718704809E-002
                    93  2.056177916917436E-003
                    94  2.985520315503019E-004
                    95 -3.161967349804476E-003
                    96 -1.137950553190350E-004
                    97 -1.042775878150631E-004
                    98  1.028188322726589E-010
                    99  9.097701275632141E-004
                   100 -3.276865042440677E-005
                   101 -2.721125766053488E-010
                   102 -1.708217350863862E-003
                   103 -8.135690420879438E-006
                   104 -4.812159028505715E-010
                   105 -2.410029379866158E-005
                   106 -1.599440746690465E-011
                   107  1.468771462550813E-011
                   108  4.951951932101072E-006
                   109 -4.963987332416089E-006
                   110  4.218610579239055E-004
                   111  2.311064492248769E-010
                   112 -2.237079939729438E-010
                   113  3.949295884629082E-004
                   114 -2.432364939446164E-004
                   115 -3.312802348537385E-011
                   116  3.073204328382603E-005
                   117  7.247536710579970E-005
                   118  4.329662580668980E-011
                   119  3.667366650452458E-011
                   120  3.633078986114047E-006
                   121 -1.328829937594068E-004
                   122  9.218579387720157E-005
                   123  6.851940018949068E-004
                   124 -2.299911825528841E-004
                   125  1.281768768979326E-004
                   126 -2.148752124203391E-006
                   127  3.592584762525853E-004
                   128 -2.461604101717718E-010
                   129  8.078597069248111E-005
                   130 -6.128758718148378E-004
                   131  6.294504866210028E-010
                   132 -3.759321752769414E-004
                   133 -8.971055586805453E-004
                   134  8.593334544470445E-010
                   135 -1.849759727336809E-005
                   136 -6.134526344869263E-011
                   137  3.659828037697110E-011
                   138 -4.387998481103774E-006
                   139 -4.279783711761827E-005
                   140 -1.299394060566296E-004
                   141  7.881481629236280E-010
                   142 -1.045898384274347E-010
                   143 -2.511850033477286E-004
                   144  1.102272154161064E-004
                   145  1.283562818830620E-010
                   146 -9.144826487459017E-006
                   147  3.710372481712911E-005
                   148  9.971116132993241E-011
                   149  8.930873816151015E-011
                   150  4.382945598034599E-005
                   151 -3.665323586531535E-005
                   152 -6.462850208519463E-005
                   153  6.608022008960494E-004
                   154 -2.310649486434629E-004
                   155  5.042016793524724E-005
                   156  3.356353298533398E-005
                   157  3.841844734198034E-004
                   158 -2.381156853132553E-010
                   159 -1.302976841225208E-004
                   160 -5.527802050738579E-004