[Molden Format]
[Atoms] AU
  N     1    7    -0.0680752200   -4.3177001500    0.0000000200        
  C     2    6     0.0516738100   -1.7890355100   -0.0000000100        
  C     3    6    -2.2787857800   -0.4036778400   -0.0000000300        
  C     4    6     2.3483184800   -0.3539282100   -0.0000000400        
  C     5    6    -2.2737444000    2.1797828900   -0.0000000200        
  C     6    6     2.3023460300    2.2305558900    0.0000000000        
  C     7    6     0.0020048500    3.5264997000    0.0000000200        
  H     8    1    -3.4814848600   -6.6910076800    0.0000000700        
  H     9    1     1.7326414200   -5.0493423800    0.0000000100        
  H    10    1    -4.0092655700   -1.4535372800   -0.0000000500        
  H    11    1     4.1167849400   -1.3499661000   -0.0000000500        
  H    12    1    -4.0314986500    3.1940093200   -0.0000000300        
  H    13    1     4.0412971700    3.2764629500    0.0000000200        
  H    14    1    -0.0194444200    5.5542088100    0.0000000600        
[5D]
[7F]
[GTO]
  1  0
   s    12 1.00
  0.114200D+05  0.172695D-04
  0.171200D+04  0.134411D-03
  0.389300D+03  0.694561D-03
  0.110000D+03  0.278531D-02
  0.355700D+02  0.863457D-02
  0.125400D+02  0.199805D-01
  0.464400D+01  0.262908D-01
  0.129300D+01 -0.243845D-01
  0.511800D+00 -0.924934D-01
  0.178700D+00 -0.339683D+00
  0.246240D-01  0.345111D+00
  0.112530D-01  0.752750D+00
   s    10 1.00
  0.114200D+05  0.523000D-03
  0.171200D+04  0.404500D-02
  0.389300D+03  0.207750D-01
  0.110000D+03  0.807269D-01
  0.355700D+02  0.233074D+00
  0.125400D+02  0.433501D+00
  0.464400D+01  0.347472D+00
  0.129300D+01  0.412620D-01
  0.511800D+00 -0.850799D-02
  0.178700D+00  0.238400D-02
   s    10 1.00
  0.114200D+05 -0.115000D-03
  0.171200D+04 -0.895000D-03
  0.389300D+03 -0.462400D-02
  0.110000D+03 -0.185280D-01
  0.355700D+02 -0.573390D-01
  0.125400D+02 -0.132076D+00
  0.464400D+01 -0.172510D+00
  0.129300D+01  0.151814D+00
  0.511800D+00  0.599944D+00
  0.178700D+00  0.387462D+00
   s     1 1.00
  0.129300D+01  0.100000D+01
   s     1 1.00
  0.178700D+00  0.100000D+01
   p     5 1.00
  0.266300D+02  0.146700D-01
  0.594800D+01  0.917640D-01
  0.174200D+01  0.298683D+00
  0.555000D+00  0.498487D+00
  0.172500D+00  0.337023D+00
   p     1 1.00
  0.174200D+01  0.100000D+01
   p     1 1.00
  0.555000D+00  0.100000D+01
   d     1 1.00
  0.165400D+01  0.100000D+01
   d     1 1.00
  0.469000D+00  0.100000D+01
   f     1 1.00
  0.109300D+01  0.100000D+01
  
  2  0
   s    10 1.00
  0.823600D+04  0.531000D-03
  0.123500D+04  0.410800D-02
  0.280800D+03  0.210870D-01
  0.792700D+02  0.818530D-01
  0.255900D+02  0.234817D+00
  0.899700D+01  0.434401D+00
  0.331900D+01  0.346129D+00
  0.905900D+00  0.393780D-01
  0.364300D+00 -0.898300D-02
  0.128500D+00  0.238500D-02
   s    10 1.00
  0.823600D+04 -0.113000D-03
  0.123500D+04 -0.878000D-03
  0.280800D+03 -0.454000D-02
  0.792700D+02 -0.181330D-01
  0.255900D+02 -0.557600D-01
  0.899700D+01 -0.126895D+00
  0.331900D+01 -0.170352D+00
  0.905900D+00  0.140382D+00
  0.364300D+00  0.598684D+00
  0.128500D+00  0.395389D+00
   s     1 1.00
  0.905900D+00  0.100000D+01
   s     1 1.00
  0.364300D+00  0.100000D+01
   p     5 1.00
  0.187100D+02  0.140310D-01
  0.413300D+01  0.868660D-01
  0.120000D+01  0.290216D+00
  0.382700D+00  0.501008D+00
  0.120900D+00  0.343406D+00
   p     1 1.00
  0.382700D+00  0.100000D+01
   p     1 1.00
  0.120900D+00  0.100000D+01
   d     1 1.00
  0.109700D+01  0.100000D+01
   d     1 1.00
  0.318000D+00  0.100000D+01
   f     1 1.00
  0.761000D+00  0.100000D+01
  
  3  0
   s    10 1.00
  0.823600D+04  0.531000D-03
  0.123500D+04  0.410800D-02
  0.280800D+03  0.210870D-01
  0.792700D+02  0.818530D-01
  0.255900D+02  0.234817D+00
  0.899700D+01  0.434401D+00
  0.331900D+01  0.346129D+00
  0.905900D+00  0.393780D-01
  0.364300D+00 -0.898300D-02
  0.128500D+00  0.238500D-02
   s    10 1.00
  0.823600D+04 -0.113000D-03
  0.123500D+04 -0.878000D-03
  0.280800D+03 -0.454000D-02
  0.792700D+02 -0.181330D-01
  0.255900D+02 -0.557600D-01
  0.899700D+01 -0.126895D+00
  0.331900D+01 -0.170352D+00
  0.905900D+00  0.140382D+00
  0.364300D+00  0.598684D+00
  0.128500D+00  0.395389D+00
   s     1 1.00
  0.905900D+00  0.100000D+01
   s     1 1.00
  0.364300D+00  0.100000D+01
   p     5 1.00
  0.187100D+02  0.140310D-01
  0.413300D+01  0.868660D-01
  0.120000D+01  0.290216D+00
  0.382700D+00  0.501008D+00
  0.120900D+00  0.343406D+00
   p     1 1.00
  0.382700D+00  0.100000D+01
   p     1 1.00
  0.120900D+00  0.100000D+01
   d     1 1.00
  0.109700D+01  0.100000D+01
   d     1 1.00
  0.318000D+00  0.100000D+01
   f     1 1.00
  0.761000D+00  0.100000D+01
  
  4  0
   s    10 1.00
  0.823600D+04  0.531000D-03
  0.123500D+04  0.410800D-02
  0.280800D+03  0.210870D-01
  0.792700D+02  0.818530D-01
  0.255900D+02  0.234817D+00
  0.899700D+01  0.434401D+00
  0.331900D+01  0.346129D+00
  0.905900D+00  0.393780D-01
  0.364300D+00 -0.898300D-02
  0.128500D+00  0.238500D-02
   s    10 1.00
  0.823600D+04 -0.113000D-03
  0.123500D+04 -0.878000D-03
  0.280800D+03 -0.454000D-02
  0.792700D+02 -0.181330D-01
  0.255900D+02 -0.557600D-01
  0.899700D+01 -0.126895D+00
  0.331900D+01 -0.170352D+00
  0.905900D+00  0.140382D+00
  0.364300D+00  0.598684D+00
  0.128500D+00  0.395389D+00
   s     1 1.00
  0.905900D+00  0.100000D+01
   s     1 1.00
  0.364300D+00  0.100000D+01
   p     5 1.00
  0.187100D+02  0.140310D-01
  0.413300D+01  0.868660D-01
  0.120000D+01  0.290216D+00
  0.382700D+00  0.501008D+00
  0.120900D+00  0.343406D+00
   p     1 1.00
  0.382700D+00  0.100000D+01
   p     1 1.00
  0.120900D+00  0.100000D+01
   d     1 1.00
  0.109700D+01  0.100000D+01
   d     1 1.00
  0.318000D+00  0.100000D+01
   f     1 1.00
  0.761000D+00  0.100000D+01
  
  5  0
   s    10 1.00
  0.823600D+04  0.531000D-03
  0.123500D+04  0.410800D-02
  0.280800D+03  0.210870D-01
  0.792700D+02  0.818530D-01
  0.255900D+02  0.234817D+00
  0.899700D+01  0.434401D+00
  0.331900D+01  0.346129D+00
  0.905900D+00  0.393780D-01
  0.364300D+00 -0.898300D-02
  0.128500D+00  0.238500D-02
   s    10 1.00
  0.823600D+04 -0.113000D-03
  0.123500D+04 -0.878000D-03
  0.280800D+03 -0.454000D-02
  0.792700D+02 -0.181330D-01
  0.255900D+02 -0.557600D-01
  0.899700D+01 -0.126895D+00
  0.331900D+01 -0.170352D+00
  0.905900D+00  0.140382D+00
  0.364300D+00  0.598684D+00
  0.128500D+00  0.395389D+00
   s     1 1.00
  0.905900D+00  0.100000D+01
   s     1 1.00
  0.364300D+00  0.100000D+01
   p     5 1.00
  0.187100D+02  0.140310D-01
  0.413300D+01  0.868660D-01
  0.120000D+01  0.290216D+00
  0.382700D+00  0.501008D+00
  0.120900D+00  0.343406D+00
   p     1 1.00
  0.382700D+00  0.100000D+01
   p     1 1.00
  0.120900D+00  0.100000D+01
   d     1 1.00
  0.109700D+01  0.100000D+01
   d     1 1.00
  0.318000D+00  0.100000D+01
   f     1 1.00
  0.761000D+00  0.100000D+01
  
  6  0
   s    10 1.00
  0.823600D+04  0.531000D-03
  0.123500D+04  0.410800D-02
  0.280800D+03  0.210870D-01
  0.792700D+02  0.818530D-01
  0.255900D+02  0.234817D+00
  0.899700D+01  0.434401D+00
  0.331900D+01  0.346129D+00
  0.905900D+00  0.393780D-01
  0.364300D+00 -0.898300D-02
  0.128500D+00  0.238500D-02
   s    10 1.00
  0.823600D+04 -0.113000D-03
  0.123500D+04 -0.878000D-03
  0.280800D+03 -0.454000D-02
  0.792700D+02 -0.181330D-01
  0.255900D+02 -0.557600D-01
  0.899700D+01 -0.126895D+00
  0.331900D+01 -0.170352D+00
  0.905900D+00  0.140382D+00
  0.364300D+00  0.598684D+00
  0.128500D+00  0.395389D+00
   s     1 1.00
  0.905900D+00  0.100000D+01
   s     1 1.00
  0.364300D+00  0.100000D+01
   p     5 1.00
  0.187100D+02  0.140310D-01
  0.413300D+01  0.868660D-01
  0.120000D+01  0.290216D+00
  0.382700D+00  0.501008D+00
  0.120900D+00  0.343406D+00
   p     1 1.00
  0.382700D+00  0.100000D+01
   p     1 1.00
  0.120900D+00  0.100000D+01
   d     1 1.00
  0.109700D+01  0.100000D+01
   d     1 1.00
  0.318000D+00  0.100000D+01
   f     1 1.00
  0.761000D+00  0.100000D+01
  
  7  0
   s    10 1.00
  0.823600D+04  0.531000D-03
  0.123500D+04  0.410800D-02
  0.280800D+03  0.210870D-01
  0.792700D+02  0.818530D-01
  0.255900D+02  0.234817D+00
  0.899700D+01  0.434401D+00
  0.331900D+01  0.346129D+00
  0.905900D+00  0.393780D-01
  0.364300D+00 -0.898300D-02
  0.128500D+00  0.238500D-02
   s    10 1.00
  0.823600D+04 -0.113000D-03
  0.123500D+04 -0.878000D-03
  0.280800D+03 -0.454000D-02
  0.792700D+02 -0.181330D-01
  0.255900D+02 -0.557600D-01
  0.899700D+01 -0.126895D+00
  0.331900D+01 -0.170352D+00
  0.905900D+00  0.140382D+00
  0.364300D+00  0.598684D+00
  0.128500D+00  0.395389D+00
   s     1 1.00
  0.905900D+00  0.100000D+01
   s     1 1.00
  0.364300D+00  0.100000D+01
   p     5 1.00
  0.187100D+02  0.140310D-01
  0.413300D+01  0.868660D-01
  0.120000D+01  0.290216D+00
  0.382700D+00  0.501008D+00
  0.120900D+00  0.343406D+00
   p     1 1.00
  0.382700D+00  0.100000D+01
   p     1 1.00
  0.120900D+00  0.100000D+01
   d     1 1.00
  0.109700D+01  0.100000D+01
   d     1 1.00
  0.318000D+00  0.100000D+01
   f     1 1.00
  0.761000D+00  0.100000D+01
  
  8  0
   s     4 1.00
  0.130100D+02  0.196850D-01
  0.196200D+01  0.137977D+00
  0.444600D+00  0.478148D+00
  0.122000D+00  0.501240D+00
   s     1 1.00
  0.122000D+00  0.100000D+01
   p     1 1.00
  0.727000D+00  0.100000D+01
  
  9  0
   s     4 1.00
  0.130100D+02  0.196850D-01
  0.196200D+01  0.137977D+00
  0.444600D+00  0.478148D+00
  0.122000D+00  0.501240D+00
   s     1 1.00
  0.122000D+00  0.100000D+01
   p     1 1.00
  0.727000D+00  0.100000D+01
  
 10  0
   s     4 1.00
  0.130100D+02  0.196850D-01
  0.196200D+01  0.137977D+00
  0.444600D+00  0.478148D+00
  0.122000D+00  0.501240D+00
   s     1 1.00
  0.122000D+00  0.100000D+01
   p     1 1.00
  0.727000D+00  0.100000D+01
  
 11  0
   s     4 1.00
  0.130100D+02  0.196850D-01
  0.196200D+01  0.137977D+00
  0.444600D+00  0.478148D+00
  0.122000D+00  0.501240D+00
   s     1 1.00
  0.122000D+00  0.100000D+01
   p     1 1.00
  0.727000D+00  0.100000D+01
  
 12  0
   s     4 1.00
  0.130100D+02  0.196850D-01
  0.196200D+01  0.137977D+00
  0.444600D+00  0.478148D+00
  0.122000D+00  0.501240D+00
   s     1 1.00
  0.122000D+00  0.100000D+01
   p     1 1.00
  0.727000D+00  0.100000D+01
  
 13  0
   s     4 1.00
  0.130100D+02  0.196850D-01
  0.196200D+01  0.137977D+00
  0.444600D+00  0.478148D+00
  0.122000D+00  0.501240D+00
   s     1 1.00
  0.122000D+00  0.100000D+01
   p     1 1.00
  0.727000D+00  0.100000D+01
  
 14  0
   s     4 1.00
  0.130100D+02  0.196850D-01
  0.196200D+01  0.137977D+00
  0.444600D+00  0.478148D+00
  0.122000D+00  0.501240D+00
   s     1 1.00
  0.122000D+00  0.100000D+01
   p     1 1.00
  0.727000D+00  0.100000D+01
  
[MO]
 Sym= __1_A__
 Ene=   1.00000000000000     
 Spin= Alpha
 Occup=    1.00000000000000     
                     1  8.421547917184662E-005
                     2  0.998381638128546     
                     3 -3.992407898570776E-003
                     4  1.856103840952467E-003
                     5  6.402934876713861E-003
                     6  2.722915786084718E-003
                     7  5.502510783245919E-003
                     8 -1.655604470470439E-010
                     9 -7.241740149831525E-004
                    10 -7.091819803119360E-004
                    11  2.198544132295228E-010
                    12 -2.430879033596876E-003
                    13 -1.954769229785227E-003
                    14 -2.425763560078384E-010
                    15 -3.034419113705037E-005
                    16  5.700195614993250E-011
                    17  1.350880372105474E-011
                    18 -1.485625064076660E-004
                    19 -5.871068172642263E-005
                    20  1.191098878975173E-004
                    21 -6.436233218320728E-011
                    22 -3.235864817135686E-010
                    23 -1.604882774895301E-004
                    24  4.657915196370365E-004
                    25 -3.286382224915358E-010
                    26 -2.941448245479474E-006
                    27 -4.175260235398391E-005
                    28  1.985963038189578E-010
                    29 -2.573814648000860E-010
                    30  3.351481204197400E-005
                    31 -9.879408942539583E-005
                    32 -2.751760695145036E-004
                    33  7.032467492687601E-005
                    34  3.051509103496521E-004
                    35 -1.122816995811234E-004
                    36 -1.012791458389539E-004
                    37 -1.864864837256777E-003
                    38 -1.100546303951848E-010
                    39  3.433461720841091E-004
                    40  6.458868249788652E-005
                    41  3.085730583569700E-010
                    42 -1.938993834444980E-003
                    43  4.730244417149761E-003
                    44 -1.189732495298021E-010
                    45  1.337114912897796E-005
                    46 -1.177534484408567E-011
                    47 -3.848062951480906E-011
                    48 -9.586442623211396E-005
                    49  1.053964199258232E-005
                    50 -1.921131192739836E-004
                    51  5.042561566640688E-011
                    52 -3.684642614701610E-010
                    53 -1.183383413608872E-005
                    54  7.458882343503862E-004
                    55  9.838565234471025E-011
                    56 -5.714290849944572E-006
                    57 -7.909531175730514E-005
                    58 -1.997209613645583E-010
                    59 -2.638532571921918E-011
                    60  2.025172441385505E-005
                    61 -1.344974756945992E-004
                    62 -5.133460102050843E-004
                    63 -1.904133267742236E-003
                    64 -9.786911875714593E-005
                    65  2.146873353696180E-003
                    66 -2.936514491164000E-004
                    67 -4.393447367093295E-005
                    68 -6.111858592667409E-011
                    69  3.698266067775260E-004
                    70  8.494832115920983E-004
                    71  6.568855878931081E-011
                    72 -1.784197693909452E-003
                    73  6.358620189381442E-004
                    74  1.906963867600789E-011
                    75 -4.768571724086827E-005
                    76 -4.631611759916404E-012
                    77  1.567563394381060E-011
                    78 -4.574151251080588E-005
                    79 -2.447218286587774E-005
                    80 -1.323559463376161E-004
                    81  7.809045698366791E-011
                    82 -3.163701365462757E-011
                    83  1.400042458931084E-005
                    84 -2.453094289013526E-005
                    85  5.319143907860413E-011
                    86  9.442404016226416E-006
                    87 -4.579924638762070E-005
                    88 -7.796505546221524E-011
                    89 -1.458741273456555E-011
                    90 -2.810714938628064E-005
                    91 -1.561860112894909E-004
                    92 -1.760349752741777E-004
                    93 -5.357738620215037E-004
                    94  1.476784576851862E-004
                    95 -4.142408955219018E-005
                    96  6.599568859927556E-005
                    97 -9.695576260392290E-005
                    98 -5.413956755821245E-011
                    99  3.375037067920854E-004
                   100  3.600685088985951E-004
                   101  2.502958261514379E-011
                   102  5.953166769357304E-004
                   103 -1.636744504991736E-003
                   104 -2.786214907729495E-011
                   105 -1.438750189919243E-005
                   106 -2.742614496211587E-013
                   107  1.295595058559666E-011
                   108 -3.526829987967208E-005
                   109 -1.145099153905893E-005
                   110  7.230066346941632E-005
                   111 -4.406825984093048E-011
                   112 -3.158618039629775E-011
                   113 -1.484271882658649E-004
                   114  1.134547722360773E-004
                   115  5.466931970176051E-011
                   116 -1.775147739428661E-005
                   117 -2.179954960370592E-005
                   118 -7.836791686561950E-011
                   119  3.858800067974628E-012
                   120 -7.561184914599207E-006
                   121 -4.513776457582331E-005
                   122 -2.408676258583852E-004
                   123 -6.706263008644092E-004
                   124  1.712755772416167E-004
                   125  2.822905025904079E-004
                   126 -3.966592767822273E-005
                   127 -2.068520029421954E-004
                   128 -1.264777430770933E-011
                   129  2.335190312946217E-004
                   130  6.311666338139438E-004
                   131 -7.028711171324936E-012
                   132  4.432647098478741E-004
                   133  1.850462170822866E-003
                   134  7.545490377194224E-011
                   135  1.541778329748745E-005
                   136  1.016886957739702E-011
                   137  3.699680902647721E-010
                   138  4.872819709199868E-005
                   139 -5.313892941930451E-006
                   140  1.997097123327437E-004
                   141  2.326867636813106E-011
                   142 -2.166449140410271E-010
                   143  3.868088448068024E-004
                   144  1.944761125448891E-004
                   145 -5.862618264882617E-013
                   146 -1.236758998908163E-005
                   147 -6.211356500568162E-005
                   148  2.477610910215116E-011
                   149  1.204100889335305E-011
                   150 -8.953250472728652E-006
                   151 -5.529010495032556E-005
                   152 -1.351955222948097E-004
                   153 -4.203596061351621E-004
                   154  5.628310278795093E-005
                   155  2.064975289929457E-004
                   156  7.695949586709136E-006
                   157 -1.541136187167311E-005
                   158 -1.824959226745387E-011
                   159 -1.351904123162402E-005
                   160  4.787502945670388E-005
                   161 -5.725956828421237E-012
                   162  7.200574691689462E-004
                   163 -3.295793087760577E-004
                   164  7.950677282867754E-011
                   165  1.834020232821639E-006
                   166 -1.078892424247867E-011
                   167  4.004632081263693E-010
                   168  5.205290860341510E-006
                   169  1.299432258432395E-005
                   170  1.075334954260189E-004
                   171 -2.963967377119437E-011
                   172 -2.535617755835644E-010
                   173  4.790672540220638E-005
                   174  3.800144143528431E-005
                   175  7.689702987552541E-013
                   176  4.413543613221973E-006
                   177 -1.420009811065224E-005
                   178  2.700644005776874E-011
                   179 -1.558978042479498E-011
                   180 -2.501021931983475E-005
                   181 -3.076797534091485E-005
                   182 -1.370341489660534E-004
                   183 -4.092056133579240E-004
                   184  3.108989437265242E-005
                   185  2.181614808285119E-004
                   186 -4.335627807462268E-005
                   187 -5.343543579115154E-005
                   188  3.488091648745883E-011
                   189  2.468204875038500E-004
                   190  1.113060692694858E-004
                   191 -2.024876892296647E-011
                   192  1.239517727813352E-003
                   193 -3.012110213903514E-004
                   194 -1.860914691560892E-011
                   195  5.561033444614188E-007
                   196  6.373179706083784E-014
                   197  2.936611919321633E-011
                   198 -2.756740838711134E-006
                   199  3.829358589942400E-006
                   200 -6.595364380490136E-006
                   201 -8.716981538835231E-012
                   202  8.954618199131755E-011
                   203 -6.554301258501652E-005
                   204 -1.874311292038289E-004
                   205 -4.790545628919621E-011
                   206 -8.867674497386129E-006
                   207 -3.755961237426767E-006
                   208 -3.358134518441948E-011
                   209  4.903795217561236E-012
                   210  7.677155148660869E-006
                   211 -3.769397602790798E-006
                   212 -2.663815566852865E-005
                   213  1.275767326010741E-004
                   214  9.431109794508031E-006
                   215  2.746247107768002E-005
                   216 -1.973052352664445E-012
                   217 -1.191730203406485E-003
                   218 -4.108999816000433E-004
                   219 -2.037124970331600E-004
                   220  3.901971700229915E-005
                   221 -1.906809563322319E-011
                   222 -1.580098519680397E-004
                   223 -6.636267937398832E-004
                   224  2.002957904565054E-005
                   225 -5.882090525868490E-005
                   226  1.534968334452759E-011
                   227  7.596044093253790E-005
                   228 -6.089973057992513E-004
                   229 -4.171346523227597E-005
                   230 -1.635898786537681E-005
                   231  1.274388059916789E-011
                   232  5.025035390861014E-005
                   233 -4.371397458962319E-004
                   234  1.420964034498022E-005
                   235 -4.003267841549602E-006
                   236  1.165484081650616E-011
                   237  3.599356993974085E-005
                   238 -3.587164769229229E-004
                   239 -1.015980704796570E-005
                   240 -3.764882881095467E-006
                   241  1.608453292585134E-011
                   242 -6.557371342413157E-005
                   243  7.975215303835741E-005
                   244  7.162249047320300E-008
                   245  2.828366993043970E-005
                   246 -3.889472954909306E-011
 Sym= __2_A__
 Ene=   2.00000000000000     
 Spin= Alpha
 Occup=    1.00000000000000     
                     1  4.915239403787093E-005
                     2  3.350889327694239E-004
                     3 -2.720229310235881E-003
                     4 -1.247821434148668E-004
                     5 -1.316432815769242E-003
                     6  2.532361739978011E-004
                     7 -2.654226436289789E-003
                     8  1.145445607323629E-010
                     9  3.847114429685249E-005
                    10  1.119019948872410E-004
                    11 -6.416092289185120E-011
                    12  5.897779228061070E-005
                    13  3.234439283038935E-004
                    14  1.062277356231203E-010
                    15 -2.877073925460914E-005
                    16 -1.525269729608061E-012
                    17 -1.459454746822843E-011
                    18  3.837721760124908E-005
                    19 -1.962005824855663E-005
                    20  1.082008490845615E-004
                    21  5.523127763801171E-012
                    22  2.163244282522555E-010
                    23 -1.315979825111364E-004
                    24  1.528434660601244E-004
                    25  1.723919681032876E-010
                    26  1.789400516836263E-005
                    27 -9.602048816990280E-005
                    28 -1.742530063793809E-010
                    29  1.677591190898402E-010
                    30  6.683658538838002E-005
                    31 -1.481930521617431E-004
                    32  -1.00090316018037     
                    33 -9.082616828213881E-003
                    34 -2.764407522320788E-003
                    35  8.057754648993883E-003
                    36  1.819674535324320E-004
                    37  3.043637248033629E-003
                    38 -1.006701890600027E-010
                    39  7.853172674927052E-005
                    40 -1.720271776440110E-004
                    41 -7.146932672802258E-011
                    42  1.345293966641599E-004
                    43 -3.956491219962929E-003
                    44  4.827685687307715E-010
                    45  5.308717792339693E-004
                    46 -4.297972412430835E-011
                    47  4.328857296727717E-011
                    48  1.950566509506600E-004
                    49 -3.387556531231347E-005
                    50 -5.489494031078621E-004
                    51 -4.269101258587488E-011
                    52  3.927911668965156E-010
                    53  6.618045660786408E-004
                    54  3.758005425052452E-004
                    55 -4.894242666485561E-011
                    56 -1.058424031726474E-005
                    57 -9.974310135583462E-005
                    58  1.131536903291466E-010
                    59  1.501498300549707E-011
                    60  2.741607703306627E-005
                    61 -3.836471307534620E-004
                    62 -1.223395845175745E-002
                    63  1.999398097041113E-003
                    64  2.419828553348739E-004
                    65 -2.710327530239628E-003
                    66 -5.187667052855670E-005
                    67 -6.949937767423490E-005
                    68  1.102256245076813E-010
                    69 -5.426718511875758E-004
                    70 -1.439855691110461E-004
                    71 -2.450549594420744E-010
                    72  2.091229301637723E-003
                    73 -2.775443423512364E-004
                    74 -4.891212463284734E-010
                    75 -3.305435792411526E-005
                    76  2.401229464911099E-011
                    77  6.968478418121776E-012
                    78  1.804617100984665E-006
                    79 -2.550614936247380E-006
                    80  4.296634488064781E-004
                    81 -2.507945817732539E-010
                    82 -1.554117120182083E-010
                    83  6.482567467356660E-004
                    84  2.597347271708674E-004
                    85 -3.239437933393263E-011
                    86 -2.769312624122808E-005
                    87  5.850341310931646E-005
                    88  3.633261126154228E-011
                    89 -2.661111154001371E-011
                    90 -4.062538588944838E-005
                    91 -1.491939342428012E-004
                    92 -1.503876717878202E-002
                    93  2.056177917054946E-003
                    94  2.985520315787325E-004
                    95 -3.161967349886744E-003
                    96 -1.137950554738838E-004
                    97 -1.042775880532112E-004
                    98  1.028188322728770E-010
                    99  9.097701275867139E-004
                   100 -3.276865039167834E-005
                   101 -2.721125765995781E-010
                   102 -1.708217350823881E-003
                   103 -8.135690358682190E-006
                   104 -4.812159028324475E-010
                   105 -2.410029380308190E-005
                   106 -1.599440746575684E-011
                   107  1.468771462323489E-011
                   108  4.951951936922672E-006
                   109 -4.963987325945301E-006
                   110  4.218610579270817E-004
                   111  2.311064492157087E-010
                   112 -2.237079939580429E-010
                   113  3.949295884695670E-004
                   114 -2.432364939514478E-004
                   115 -3.312802348651761E-011
                   116  3.073204328416917E-005
                   117  7.247536710753957E-005
                   118  4.329662580337008E-011
                   119  3.667366650503258E-011
                   120  3.633078985522722E-006
                   121 -1.328829937629818E-004
                   122  9.218579423827234E-005
                   123  6.851940018475638E-004
                   124 -2.299911825553973E-004
                   125  1.281768769472545E-004
                   126 -2.148752134202323E-006
                   127  3.592584763132236E-004
                   128 -2.461604101655353E-010
                   129  8.078597069608249E-005
                   130 -6.128758718237857E-004
                   131  6.294504866032175E-010
                   132 -3.759321752786429E-004
                   133 -8.971055586497320E-004
                   134  8.593334544251647E-010
                   135 -1.849759727253392E-005
                   136 -6.134526344755450E-011
                   137  3.659828037648900E-011
                   138 -4.387998479077938E-006
                   139 -4.279783711862903E-005
                   140 -1.299394060605569E-004
                   141  7.881481629065321E-010
                   142 -1.045898384230242E-010
                   143 -2.511850033456996E-004
                   144  1.102272154294040E-004
                   145  1.283562818802406E-010
                   146 -9.144826487775870E-006
                   147  3.710372481509773E-005
                   148  9.971116132882850E-011
                   149  8.930873815879004E-011
                   150  4.382945598069097E-005
                   151 -3.665323586669313E-005
                   152 -6.462850160741629E-005
                   153  6.608022007914974E-004
                   154 -2.310649486424116E-004
                   155  5.042016797121548E-005
                   156  3.356353301515703E-005
                   157  3.841844735685731E-004
                   158 -2.381156853022510E-010
                   159 -1.302976841277259E-004
                   160 -5.527802050841505E-004