[Molden Format]
[Atoms] AU
  N     1    7     0.0000000000   -4.2907334100    0.0000000000        
  C     2    6     0.0000000000   -1.7772236300    0.0000000000        
  C     3    6    -2.3389203600   -0.4111016300    0.0000000000        
  C     4    6     2.3389203600   -0.4111016300    0.0000000000        
  C     5    6    -2.2998668500    2.1639215300    0.0000000000        
  C     6    6     2.2998668500    2.1639215300    0.0000000000        
  C     7    6     0.0000000000    3.4755251800    0.0000000000        
  H     8    1    -2.7341110200   -5.9774504400    0.0000000000        
  H     9    1     2.0907907800   -5.5805758500    0.0000000000        
  H    10    1    -4.0745407300   -1.4447408500    0.0000000000        
  H    11    1     4.0745407300   -1.4447408500    0.0000000000        
  H    12    1    -4.0420632100    3.1963889500    0.0000000000        
  H    13    1     4.0420632100    3.1963889500    0.0000000000        
  H    14    1     0.0000000000    5.5020335600    0.0000000000        
[5D]
[7F]
[GTO]
  1  0
   s    12 1.00
  0.114200D+05  0.172695D-04
  0.171200D+04  0.134411D-03
  0.389300D+03  0.694561D-03
  0.110000D+03  0.278531D-02
  0.355700D+02  0.863457D-02
  0.125400D+02  0.199805D-01
  0.464400D+01  0.262908D-01
  0.129300D+01 -0.243845D-01
  0.511800D+00 -0.924934D-01
  0.178700D+00 -0.339683D+00
  0.246240D-01  0.345111D+00
  0.112530D-01  0.752750D+00
   s    10 1.00
  0.114200D+05  0.523000D-03
  0.171200D+04  0.404500D-02
  0.389300D+03  0.207750D-01
  0.110000D+03  0.807269D-01
  0.355700D+02  0.233074D+00
  0.125400D+02  0.433501D+00
  0.464400D+01  0.347472D+00
  0.129300D+01  0.412620D-01
  0.511800D+00 -0.850799D-02
  0.178700D+00  0.238400D-02
   s    10 1.00
  0.114200D+05 -0.115000D-03
  0.171200D+04 -0.895000D-03
  0.389300D+03 -0.462400D-02
  0.110000D+03 -0.185280D-01
  0.355700D+02 -0.573390D-01
  0.125400D+02 -0.132076D+00
  0.464400D+01 -0.172510D+00
  0.129300D+01  0.151814D+00
  0.511800D+00  0.599944D+00
  0.178700D+00  0.387462D+00
   s     1 1.00
  0.129300D+01  0.100000D+01
   s     1 1.00
  0.178700D+00  0.100000D+01
   p     5 1.00
  0.266300D+02  0.146700D-01
  0.594800D+01  0.917640D-01
  0.174200D+01  0.298683D+00
  0.555000D+00  0.498487D+00
  0.172500D+00  0.337023D+00
   p     1 1.00
  0.174200D+01  0.100000D+01
   p     1 1.00
  0.555000D+00  0.100000D+01
   d     1 1.00
  0.165400D+01  0.100000D+01
   d     1 1.00
  0.469000D+00  0.100000D+01
   f     1 1.00
  0.109300D+01  0.100000D+01
  
  2  0
   s    10 1.00
  0.823600D+04  0.531000D-03
  0.123500D+04  0.410800D-02
  0.280800D+03  0.210870D-01
  0.792700D+02  0.818530D-01
  0.255900D+02  0.234817D+00
  0.899700D+01  0.434401D+00
  0.331900D+01  0.346129D+00
  0.905900D+00  0.393780D-01
  0.364300D+00 -0.898300D-02
  0.128500D+00  0.238500D-02
   s    10 1.00
  0.823600D+04 -0.113000D-03
  0.123500D+04 -0.878000D-03
  0.280800D+03 -0.454000D-02
  0.792700D+02 -0.181330D-01
  0.255900D+02 -0.557600D-01
  0.899700D+01 -0.126895D+00
  0.331900D+01 -0.170352D+00
  0.905900D+00  0.140382D+00
  0.364300D+00  0.598684D+00
  0.128500D+00  0.395389D+00
   s     1 1.00
  0.905900D+00  0.100000D+01
   s     1 1.00
  0.364300D+00  0.100000D+01
   p     5 1.00
  0.187100D+02  0.140310D-01
  0.413300D+01  0.868660D-01
  0.120000D+01  0.290216D+00
  0.382700D+00  0.501008D+00
  0.120900D+00  0.343406D+00
   p     1 1.00
  0.382700D+00  0.100000D+01
   p     1 1.00
  0.120900D+00  0.100000D+01
   d     1 1.00
  0.109700D+01  0.100000D+01
   d     1 1.00
  0.318000D+00  0.100000D+01
   f     1 1.00
  0.761000D+00  0.100000D+01
  
  3  0
   s    10 1.00
  0.823600D+04  0.531000D-03
  0.123500D+04  0.410800D-02
  0.280800D+03  0.210870D-01
  0.792700D+02  0.818530D-01
  0.255900D+02  0.234817D+00
  0.899700D+01  0.434401D+00
  0.331900D+01  0.346129D+00
  0.905900D+00  0.393780D-01
  0.364300D+00 -0.898300D-02
  0.128500D+00  0.238500D-02
   s    10 1.00
  0.823600D+04 -0.113000D-03
  0.123500D+04 -0.878000D-03
  0.280800D+03 -0.454000D-02
  0.792700D+02 -0.181330D-01
  0.255900D+02 -0.557600D-01
  0.899700D+01 -0.126895D+00
  0.331900D+01 -0.170352D+00
  0.905900D+00  0.140382D+00
  0.364300D+00  0.598684D+00
  0.128500D+00  0.395389D+00
   s     1 1.00
  0.905900D+00  0.100000D+01
   s     1 1.00
  0.364300D+00  0.100000D+01
   p     5 1.00
  0.187100D+02  0.140310D-01
  0.413300D+01  0.868660D-01
  0.120000D+01  0.290216D+00
  0.382700D+00  0.501008D+00
  0.120900D+00  0.343406D+00
   p     1 1.00
  0.382700D+00  0.100000D+01
   p     1 1.00
  0.120900D+00  0.100000D+01
   d     1 1.00
  0.109700D+01  0.100000D+01
   d     1 1.00
  0.318000D+00  0.100000D+01
   f     1 1.00
  0.761000D+00  0.100000D+01
  
  4  0
   s    10 1.00
  0.823600D+04  0.531000D-03
  0.123500D+04  0.410800D-02
  0.280800D+03  0.210870D-01
  0.792700D+02  0.818530D-01
  0.255900D+02  0.234817D+00
  0.899700D+01  0.434401D+00
  0.331900D+01  0.346129D+00
  0.905900D+00  0.393780D-01
  0.364300D+00 -0.898300D-02
  0.128500D+00  0.238500D-02
   s    10 1.00
  0.823600D+04 -0.113000D-03
  0.123500D+04 -0.878000D-03
  0.280800D+03 -0.454000D-02
  0.792700D+02 -0.181330D-01
  0.255900D+02 -0.557600D-01
  0.899700D+01 -0.126895D+00
  0.331900D+01 -0.170352D+00
  0.905900D+00  0.140382D+00
  0.364300D+00  0.598684D+00
  0.128500D+00  0.395389D+00
   s     1 1.00
  0.905900D+00  0.100000D+01
   s     1 1.00
  0.364300D+00  0.100000D+01
   p     5 1.00
  0.187100D+02  0.140310D-01
  0.413300D+01  0.868660D-01
  0.120000D+01  0.290216D+00
  0.382700D+00  0.501008D+00
  0.120900D+00  0.343406D+00
   p     1 1.00
  0.382700D+00  0.100000D+01
   p     1 1.00
  0.120900D+00  0.100000D+01
   d     1 1.00
  0.109700D+01  0.100000D+01
   d     1 1.00
  0.318000D+00  0.100000D+01
   f     1 1.00
  0.761000D+00  0.100000D+01
  
  5  0
   s    10 1.00
  0.823600D+04  0.531000D-03
  0.123500D+04  0.410800D-02
  0.280800D+03  0.210870D-01
  0.792700D+02  0.818530D-01
  0.255900D+02  0.234817D+00
  0.899700D+01  0.434401D+00
  0.331900D+01  0.346129D+00
  0.905900D+00  0.393780D-01
  0.364300D+00 -0.898300D-02
  0.128500D+00  0.238500D-02
   s    10 1.00
  0.823600D+04 -0.113000D-03
  0.123500D+04 -0.878000D-03
  0.280800D+03 -0.454000D-02
  0.792700D+02 -0.181330D-01
  0.255900D+02 -0.557600D-01
  0.899700D+01 -0.126895D+00
  0.331900D+01 -0.170352D+00
  0.905900D+00  0.140382D+00
  0.364300D+00  0.598684D+00
  0.128500D+00  0.395389D+00
   s     1 1.00
  0.905900D+00  0.100000D+01
   s     1 1.00
  0.364300D+00  0.100000D+01
   p     5 1.00
  0.187100D+02  0.140310D-01
  0.413300D+01  0.868660D-01
  0.120000D+01  0.290216D+00
  0.382700D+00  0.501008D+00
  0.120900D+00  0.343406D+00
   p     1 1.00
  0.382700D+00  0.100000D+01
   p     1 1.00
  0.120900D+00  0.100000D+01
   d     1 1.00
  0.109700D+01  0.100000D+01
   d     1 1.00
  0.318000D+00  0.100000D+01
   f     1 1.00
  0.761000D+00  0.100000D+01
  
  6  0
   s    10 1.00
  0.823600D+04  0.531000D-03
  0.123500D+04  0.410800D-02
  0.280800D+03  0.210870D-01
  0.792700D+02  0.818530D-01
  0.255900D+02  0.234817D+00
  0.899700D+01  0.434401D+00
  0.331900D+01  0.346129D+00
  0.905900D+00  0.393780D-01
  0.364300D+00 -0.898300D-02
  0.128500D+00  0.238500D-02
   s    10 1.00
  0.823600D+04 -0.113000D-03
  0.123500D+04 -0.878000D-03
  0.280800D+03 -0.454000D-02
  0.792700D+02 -0.181330D-01
  0.255900D+02 -0.557600D-01
  0.899700D+01 -0.126895D+00
  0.331900D+01 -0.170352D+00
  0.905900D+00  0.140382D+00
  0.364300D+00  0.598684D+00
  0.128500D+00  0.395389D+00
   s     1 1.00
  0.905900D+00  0.100000D+01
   s     1 1.00
  0.364300D+00  0.100000D+01
   p     5 1.00
  0.187100D+02  0.140310D-01
  0.413300D+01  0.868660D-01
  0.120000D+01  0.290216D+00
  0.382700D+00  0.501008D+00
  0.120900D+00  0.343406D+00
   p     1 1.00
  0.382700D+00  0.100000D+01
   p     1 1.00
  0.120900D+00  0.100000D+01
   d     1 1.00
  0.109700D+01  0.100000D+01
   d     1 1.00
  0.318000D+00  0.100000D+01
   f     1 1.00
  0.761000D+00  0.100000D+01
  
  7  0
   s    10 1.00
  0.823600D+04  0.531000D-03
  0.123500D+04  0.410800D-02
  0.280800D+03  0.210870D-01
  0.792700D+02  0.818530D-01
  0.255900D+02  0.234817D+00
  0.899700D+01  0.434401D+00
  0.331900D+01  0.346129D+00
  0.905900D+00  0.393780D-01
  0.364300D+00 -0.898300D-02
  0.128500D+00  0.238500D-02
   s    10 1.00
  0.823600D+04 -0.113000D-03
  0.123500D+04 -0.878000D-03
  0.280800D+03 -0.454000D-02
  0.792700D+02 -0.181330D-01
  0.255900D+02 -0.557600D-01
  0.899700D+01 -0.126895D+00
  0.331900D+01 -0.170352D+00
  0.905900D+00  0.140382D+00
  0.364300D+00  0.598684D+00
  0.128500D+00  0.395389D+00
   s     1 1.00
  0.905900D+00  0.100000D+01
   s     1 1.00
  0.364300D+00  0.100000D+01
   p     5 1.00
  0.187100D+02  0.140310D-01
  0.413300D+01  0.868660D-01
  0.120000D+01  0.290216D+00
  0.382700D+00  0.501008D+00
  0.120900D+00  0.343406D+00
   p     1 1.00
  0.382700D+00  0.100000D+01
   p     1 1.00
  0.120900D+00  0.100000D+01
   d     1 1.00
  0.109700D+01  0.100000D+01
   d     1 1.00
  0.318000D+00  0.100000D+01
   f     1 1.00
  0.761000D+00  0.100000D+01
  
  8  0
   s     4 1.00
  0.130100D+02  0.196850D-01
  0.196200D+01  0.137977D+00
  0.444600D+00  0.478148D+00
  0.122000D+00  0.501240D+00
   s     1 1.00
  0.122000D+00  0.100000D+01
   p     1 1.00
  0.727000D+00  0.100000D+01
  
  9  0
   s     4 1.00
  0.130100D+02  0.196850D-01
  0.196200D+01  0.137977D+00
  0.444600D+00  0.478148D+00
  0.122000D+00  0.501240D+00
   s     1 1.00
  0.122000D+00  0.100000D+01
   p     1 1.00
  0.727000D+00  0.100000D+01
  
 10  0
   s     4 1.00
  0.130100D+02  0.196850D-01
  0.196200D+01  0.137977D+00
  0.444600D+00  0.478148D+00
  0.122000D+00  0.501240D+00
   s     1 1.00
  0.122000D+00  0.100000D+01
   p     1 1.00
  0.727000D+00  0.100000D+01
  
 11  0
   s     4 1.00
  0.130100D+02  0.196850D-01
  0.196200D+01  0.137977D+00
  0.444600D+00  0.478148D+00
  0.122000D+00  0.501240D+00
   s     1 1.00
  0.122000D+00  0.100000D+01
   p     1 1.00
  0.727000D+00  0.100000D+01
  
 12  0
   s     4 1.00
  0.130100D+02  0.196850D-01
  0.196200D+01  0.137977D+00
  0.444600D+00  0.478148D+00
  0.122000D+00  0.501240D+00
   s     1 1.00
  0.122000D+00  0.100000D+01
   p     1 1.00
  0.727000D+00  0.100000D+01
  
 13  0
   s     4 1.00
  0.130100D+02  0.196850D-01
  0.196200D+01  0.137977D+00
  0.444600D+00  0.478148D+00
  0.122000D+00  0.501240D+00
   s     1 1.00
  0.122000D+00  0.100000D+01
   p     1 1.00
  0.727000D+00  0.100000D+01
  
 14  0
   s     4 1.00
  0.130100D+02  0.196850D-01
  0.196200D+01  0.137977D+00
  0.444600D+00  0.478148D+00
  0.122000D+00  0.501240D+00
   s     1 1.00
  0.122000D+00  0.100000D+01
   p     1 1.00
  0.727000D+00  0.100000D+01
  
[MO]
 Sym= __1_a__
 Ene=  0.000000000000000E+000
 Spin= Alpha
 Occup=    2.00000000000000     
                     1  4.747139121293790E-005
                     2  0.998680722804988     
                     3  1.388046817769120E-003
                     4  1.348118672646350E-003
                     5  4.843168293672900E-003
                     6  3.452424075184320E-003
                     7  6.105813380081320E-003
                     8  0.000000000000000E+000
                     9 -8.095700596941150E-004
                    10 -4.823111962069060E-004
                    11  0.000000000000000E+000
                    12 -2.393049883821610E-003
                    13 -1.873589548512470E-003
                    14  0.000000000000000E+000
                    15 -5.563646024806561E-005
                    16  0.000000000000000E+000
                    17  0.000000000000000E+000
                    18 -2.443434267152820E-004
                    19 -3.117652454615350E-005
                    20  1.576517787894238E-004
                    21  0.000000000000000E+000
                    22  0.000000000000000E+000
                    23 -1.875953340728744E-004
                    24  4.884242483443700E-004
                    25  0.000000000000000E+000
                    26  8.919088265650212E-007
                    27 -4.788399881339405E-005
                    28  0.000000000000000E+000
                    29  0.000000000000000E+000
                    30  3.043109253547217E-005
                    31 -1.077584951398704E-004
                    32 -2.949933285616390E-004
                    33  1.197146718978320E-003
                    34  2.484486664357270E-004
                    35 -2.502039906302150E-004
                    36 -1.720752738971440E-004
                    37 -4.249863105233880E-003
                    38  0.000000000000000E+000
                    39  5.849912934727580E-004
                    40  4.847602508679600E-005
                    41  0.000000000000000E+000
                    42 -2.510202185698590E-003
                    43  5.329398242761140E-003
                    44  0.000000000000000E+000
                    45 -2.547612956557581E-005
                    46  0.000000000000000E+000
                    47  0.000000000000000E+000
                    48 -2.239836163714820E-004
                    49 -4.179031625590480E-006
                    50 -2.577922856993204E-004
                    51  0.000000000000000E+000
                    52  0.000000000000000E+000
                    53 -9.141467428053500E-005
                    54  7.995554623261800E-004
                    55  0.000000000000000E+000
                    56 -1.533697807892162E-005
                    57 -4.159372516975560E-005
                    58  0.000000000000000E+000
                    59  0.000000000000000E+000
                    60 -1.136475020819023E-005
                    61 -1.077782051191658E-004
                    62 -5.338177276294600E-004
                    63 -2.327403115562040E-003
                    64 -1.061260052966940E-004
                    65  2.267962134507830E-003
                    66 -6.365115260185110E-004
                    67  4.249785198291270E-004
                    68  0.000000000000000E+000
                    69  4.922671294790870E-004
                    70  7.593474900232980E-004
                    71  0.000000000000000E+000
                    72 -1.805371961333940E-003
                    73  8.202185217481861E-004
                    74  0.000000000000000E+000
                    75 -4.395362250315269E-005
                    76  0.000000000000000E+000
                    77  0.000000000000000E+000
                    78 -7.978734143083620E-005
                    79 -3.142784536779820E-005
                    80 -1.647438994773429E-004
                    81  0.000000000000000E+000
                    82  0.000000000000000E+000
                    83  7.361856947275460E-005
                    84  3.805603392013740E-005
                    85  0.000000000000000E+000
                    86  5.491978578604740E-006
                    87 -4.433921266580797E-005
                    88  0.000000000000000E+000
                    89  0.000000000000000E+000
                    90 -1.048167660069603E-005
                    91 -1.585488165911374E-004
                    92 -1.049128936889580E-004
                    93 -8.185601352444480E-004
                    94  2.104053703143600E-004
                    95 -3.754065455941700E-004
                    96  4.764033395176240E-004
                    97  5.545743872906650E-004
                    98  0.000000000000000E+000
                    99  4.284739368465730E-004
                   100  2.144708828820530E-004
                   101  0.000000000000000E+000
                   102  4.943918673943840E-004
                   103 -1.539703952407640E-003
                   104  0.000000000000000E+000
                   105 -5.819986432884506E-006
                   106  0.000000000000000E+000
                   107  0.000000000000000E+000
                   108 -5.361641000374740E-005
                   109 -1.959245722772120E-005
                   110  1.579748164770982E-004
                   111  0.000000000000000E+000
                   112  0.000000000000000E+000
                   113 -1.464616551147114E-004
                   114 -7.749718462905810E-006
                   115  0.000000000000000E+000
                   116 -2.636193211071136E-005
                   117 -3.171998391194434E-005
                   118  0.000000000000000E+000
                   119  0.000000000000000E+000
                   120  1.682531898495045E-005
                   121 -1.964909009234330E-005
                   122 -2.825155027611800E-004
                   123 -6.213413534007350E-004
                   124  1.739102193052870E-004
                   125  4.330509302179840E-004
                   126 -1.987436208750130E-005
                   127 -4.990498632810790E-004
                   128  0.000000000000000E+000
                   129  2.308168813479010E-004
                   130  6.146097299510440E-004
                   131  0.000000000000000E+000
                   132  3.863430124749970E-004
                   133  2.124277422422260E-003
                   134  0.000000000000000E+000
                   135  9.770250466863517E-006
                   136  0.000000000000000E+000
                   137  0.000000000000000E+000
                   138  4.544136284557900E-005
                   139 -1.750713344984470E-007
                   140  2.153144567631242E-004
                   141  0.000000000000000E+000
                   142  0.000000000000000E+000
                   143  3.651884870654460E-004
                   144  2.514194206851690E-004
                   145  0.000000000000000E+000
                   146 -9.008946383711441E-006
                   147 -6.223969486122243E-005
                   148  0.000000000000000E+000
                   149  0.000000000000000E+000
                   150 -2.192567666026221E-005
                   151 -4.935807735721958E-005
                   152 -1.818681595273490E-004
                   153 -3.288098621373820E-004
                   154  2.624800714589200E-005
                   155  4.294374522475720E-004
                   156 -2.695977020676640E-005
                   157 -4.007015571368040E-004
                   158  0.000000000000000E+000
                   159  1.676253656953450E-005
                   160  4.203365982625000E-006
                   161  0.000000000000000E+000
                   162  7.382749321596340E-004
                   163 -3.987785274409490E-004
                   164  0.000000000000000E+000
                   165 -4.254631934741736E-006
                   166  0.000000000000000E+000
                   167  0.000000000000000E+000
                   168 -9.105846870721600E-006
                   169  6.932565269090540E-006
                   170  4.675347712184045E-005
                   171  0.000000000000000E+000
                   172  0.000000000000000E+000
                   173 -1.438131949736154E-005
                   174 -7.605681685232140E-006
                   175  0.000000000000000E+000
                   176  4.944959245405019E-006
                   177 -4.818290260627544E-006
                   178  0.000000000000000E+000
                   179  0.000000000000000E+000
                   180 -2.732788584472766E-005
                   181 -4.612021875030339E-006
                   182 -1.706477824940300E-004
                   183 -4.904202610172110E-004
                   184  5.304451780966070E-005
                   185  2.502071040308560E-004
                   186 -4.154051185344600E-005
                   187 -5.252709148337860E-005
                   188  0.000000000000000E+000
                   189  2.180314287178500E-004
                   190  6.487378046019049E-005
                   191  0.000000000000000E+000
                   192  1.413205148736220E-003
                   193 -1.688122801136280E-004
                   194  0.000000000000000E+000
                   195 -1.465842631390714E-006
                   196  0.000000000000000E+000
                   197  0.000000000000000E+000
                   198 -1.334999200043070E-005
                   199  7.750608803431720E-006
                   200  2.642809794285914E-005
                   201  0.000000000000000E+000
                   202  0.000000000000000E+000
                   203 -8.394879134589479E-005
                   204 -1.990497993003660E-004
                   205  0.000000000000000E+000
                   206 -6.231277545653167E-006
                   207 -6.480780963839010E-006
                   208  0.000000000000000E+000
                   209  0.000000000000000E+000
                   210  1.227850537055350E-005
                   211 -1.374155790741379E-006
                   212  1.293726852824580E-005
                   213  1.016027619314340E-004
                   214  1.060520478283390E-004
                   215  1.111638669033860E-004
                   216  0.000000000000000E+000
                   217 -2.657996963669740E-004
                   218 -5.560056768049110E-004
                   219 -2.965101361141320E-004
                   220  1.415935232670940E-004
                   221  0.000000000000000E+000
                   222 -3.989913489892780E-004
                   223 -6.557095667008160E-004
                   224  5.425840958082100E-006
                   225 -7.110993971436301E-005
                   226  0.000000000000000E+000
                   227 -1.708788587165740E-004
                   228 -5.332408696924230E-004
                   229 -5.683576099956020E-006
                   230 -1.154469445246880E-005
                   231  0.000000000000000E+000
                   232 -4.094482942665490E-005
                   233 -5.843633504262600E-004
                   234  8.003564736645159E-006
                   235 -6.305691575990980E-006
                   236  0.000000000000000E+000
                   237 -1.457816387543140E-004
                   238 -3.631845722892950E-004
                   239  8.431567383533969E-006
                   240  3.371271762530060E-006
                   241  0.000000000000000E+000
                   242  1.346609113356820E-005
                   243 -2.919463633577060E-005
                   244  3.666332809032890E-008
                   245  2.118761301971580E-005
                   246  0.000000000000000E+000
 Sym= __2_a__
 Ene=  0.000000000000000E+000
 Spin= Alpha
 Occup=    2.00000000000000     
                     1 -5.422265343383690E-005
                     2 -3.488440291017780E-004
                     3  3.020830189127610E-003
                     4  1.660145624062180E-004
                     5  1.335973775752530E-003
                     6 -1.685103009103110E-004
                     7  2.876192787100330E-003
                     8  0.000000000000000E+000
                     9 -3.859227143357290E-005
                    10 -1.263531693521340E-004
                    11  0.000000000000000E+000
                    12  3.265011893482660E-005
                    13 -3.732673223022520E-004
                    14  0.000000000000000E+000
                    15  3.228415432571919E-005
                    16  0.000000000000000E+000
                    17  0.000000000000000E+000
                    18 -4.666262436522680E-005
                    19  1.244540870249100E-005
                    20 -1.114755006024538E-004
                    21  0.000000000000000E+000
                    22  0.000000000000000E+000
                    23  1.104072921871638E-004
                    24 -1.181585127342400E-005
                    25  0.000000000000000E+000
                    26 -1.013044043532731E-005
                    27  8.722296641132817E-005
                    28  0.000000000000000E+000
                    29  0.000000000000000E+000
                    30 -7.170801825832161E-006
                    31  1.525334767439588E-004
                    32   1.00102212144050     
                    33  9.275097635374509E-003
                    34  2.732942027888340E-003
                    35 -8.143110368977810E-003
                    36 -1.155083908723350E-004
                    37 -3.615268100793170E-003
                    38  0.000000000000000E+000
                    39  1.574574649475790E-004
                    40  5.192360278517190E-004
                    41  0.000000000000000E+000
                    42  2.152961158908870E-005
                    43  4.221700995107680E-003
                    44  0.000000000000000E+000
                    45 -5.689999864704192E-004
                    46  0.000000000000000E+000
                    47  0.000000000000000E+000
                    48 -2.000239884699820E-004
                    49  3.794304112282200E-007
                    50  5.506892217246877E-004
                    51  0.000000000000000E+000
                    52  0.000000000000000E+000
                    53 -8.568411249606540E-004
                    54  4.442361895334080E-005
                    55  0.000000000000000E+000
                    56 -6.419092507021017E-006
                    57  9.266495838252771E-005
                    58  0.000000000000000E+000
                    59  0.000000000000000E+000
                    60  6.291484179509387E-006
                    61  3.961661256030563E-004
                    62  9.181694221060681E-003
                    63 -2.090027472689700E-003
                    64 -2.976804882673180E-004
                    65  3.064200033940510E-003
                    66 -2.758725865882370E-005
                    67  1.215461442027310E-004
                    68  0.000000000000000E+000
                    69  7.312838794623050E-004
                    70  6.732515750954100E-006
                    71  0.000000000000000E+000
                    72 -2.050434592105820E-003
                    73  7.978166061295341E-005
                    74  0.000000000000000E+000
                    75  2.688504796901331E-005
                    76  0.000000000000000E+000
                    77  0.000000000000000E+000
                    78 -2.247325857962120E-006
                    79  2.334605805959620E-006
                    80 -4.153830401209333E-004
                    81  0.000000000000000E+000
                    82  0.000000000000000E+000
                    83 -5.855230673815440E-004
                    84 -3.721175209577680E-004
                    85  0.000000000000000E+000
                    86  3.197569795135597E-005
                    87 -5.886842481493335E-005
                    88  0.000000000000000E+000
                    89  0.000000000000000E+000
                    90  5.030187130934076E-005
                    91  1.397671455267508E-004
                    92  9.645909335200939E-003
                    93 -2.054323050395620E-003
                    94 -2.764815757218390E-004
                    95  2.991436197009380E-003
                    96  3.060315000290310E-006
                    97  8.139861731494709E-005
                    98  0.000000000000000E+000
                    99 -6.522509484245010E-004
                   100  6.762079544794509E-005
                   101  0.000000000000000E+000
                   102  2.029619771373740E-003
                   103  6.224522102572220E-005
                   104  0.000000000000000E+000
                   105  3.141225711281046E-005
                   106  0.000000000000000E+000
                   107  0.000000000000000E+000
                   108 -5.720724296664660E-006
                   109 -7.498354641448080E-006
                   110 -4.088327948863305E-004
                   111  0.000000000000000E+000
                   112  0.000000000000000E+000
                   113 -6.080170940506740E-004
                   114  3.510063259991670E-004
                   115  0.000000000000000E+000
                   116 -3.291942579711246E-005
                   117 -6.011893534703180E-005
                   118  0.000000000000000E+000
                   119  0.000000000000000E+000
                   120 -4.920047924740420E-005
                   121  1.375188334411823E-004
                   122 -1.527756394736320E-004
                   123 -6.694530802535680E-004
                   124  2.272431499860140E-004
                   125 -1.162284958562410E-004
                   126 -8.442232578667610E-007
                   127 -3.459027844976520E-004
                   128  0.000000000000000E+000
                   129 -6.302454983960960E-005
                   130  5.430895526735830E-004
                   131  0.000000000000000E+000
                   132  3.269793112656100E-004
                   133  7.592731481802180E-004
                   134  0.000000000000000E+000
                   135  1.925445922078546E-005
                   136  0.000000000000000E+000
                   137  0.000000000000000E+000
                   138  3.785063718323900E-006
                   139  5.306157654312110E-005
                   140  1.367892994610799E-004
                   141  0.000000000000000E+000
                   142  0.000000000000000E+000
                   143  2.441785809631720E-004
                   144 -1.837100896861080E-004
                   145  0.000000000000000E+000
                   146  7.123415850258880E-006
                   147 -3.356537120449419E-005
                   148  0.000000000000000E+000
                   149  0.000000000000000E+000
                   150 -4.735362930722708E-005
                   151  2.821405071962997E-005
                   152 -1.434661084528350E-004
                   153 -6.779931683541670E-004
                   154  2.302469140386510E-004
                   155 -1.378757261324790E-004
                   156  1.454608474699410E-006
                   157 -3.355269668738390E-004
                   158  0.000000000000000E+000
                   159  5.288010959276800E-005
                   160  5.635673177410640E-004