[Molden Format]
[Atoms] AU
  N     1    7    -0.0549152700   -4.2735198100    0.0000000000        
  C     2    6     0.0285601200   -1.8174976400    0.0000000000        
  C     3    6    -2.3131921400   -0.4324575600    0.0000000000        
  C     4    6     2.3522761600   -0.4028048800    0.0000000000        
  C     5    6    -2.2938027600    2.1470365800    0.0000000000        
  C     6    6     2.3041986000    2.1755488800    0.0000000000        
  C     7    6    -0.0049720700    3.4825826200    0.0000000000        
  H     8    1    -2.1769651400   -5.5418543200    0.0000000000        
  H     9    1     1.5806400400   -5.2571445400    0.0000000000        
  H    10    1    -4.0388598200   -1.4897553600    0.0000000000        
  H    11    1     4.1080261500   -1.4188426600    0.0000000000        
  H    12    1    -4.0494181600    3.1676862300    0.0000000000        
  H    13    1     4.0453705100    3.2198404700    0.0000000000        
  H    14    1    -0.0153123300    5.5120621100    0.0000000000        
[5D]
[7F]
[GTO]
  1  0
   s    12 1.00
  0.114200D+05  0.172695D-04
  0.171200D+04  0.134411D-03
  0.389300D+03  0.694561D-03
  0.110000D+03  0.278531D-02
  0.355700D+02  0.863457D-02
  0.125400D+02  0.199805D-01
  0.464400D+01  0.262908D-01
  0.129300D+01 -0.243845D-01
  0.511800D+00 -0.924934D-01
  0.178700D+00 -0.339683D+00
  0.246240D-01  0.345111D+00
  0.112530D-01  0.752750D+00
   s    10 1.00
  0.114200D+05  0.523000D-03
  0.171200D+04  0.404500D-02
  0.389300D+03  0.207750D-01
  0.110000D+03  0.807269D-01
  0.355700D+02  0.233074D+00
  0.125400D+02  0.433501D+00
  0.464400D+01  0.347472D+00
  0.129300D+01  0.412620D-01
  0.511800D+00 -0.850799D-02
  0.178700D+00  0.238400D-02
   s    10 1.00
  0.114200D+05 -0.115000D-03
  0.171200D+04 -0.895000D-03
  0.389300D+03 -0.462400D-02
  0.110000D+03 -0.185280D-01
  0.355700D+02 -0.573390D-01
  0.125400D+02 -0.132076D+00
  0.464400D+01 -0.172510D+00
  0.129300D+01  0.151814D+00
  0.511800D+00  0.599944D+00
  0.178700D+00  0.387462D+00
   s     1 1.00
  0.129300D+01  0.100000D+01
   s     1 1.00
  0.178700D+00  0.100000D+01
   p     5 1.00
  0.266300D+02  0.146700D-01
  0.594800D+01  0.917640D-01
  0.174200D+01  0.298683D+00
  0.555000D+00  0.498487D+00
  0.172500D+00  0.337023D+00
   p     1 1.00
  0.174200D+01  0.100000D+01
   p     1 1.00
  0.555000D+00  0.100000D+01
   d     1 1.00
  0.165400D+01  0.100000D+01
   d     1 1.00
  0.469000D+00  0.100000D+01
   f     1 1.00
  0.109300D+01  0.100000D+01
  
  2  0
   s    10 1.00
  0.823600D+04  0.531000D-03
  0.123500D+04  0.410800D-02
  0.280800D+03  0.210870D-01
  0.792700D+02  0.818530D-01
  0.255900D+02  0.234817D+00
  0.899700D+01  0.434401D+00
  0.331900D+01  0.346129D+00
  0.905900D+00  0.393780D-01
  0.364300D+00 -0.898300D-02
  0.128500D+00  0.238500D-02
   s    10 1.00
  0.823600D+04 -0.113000D-03
  0.123500D+04 -0.878000D-03
  0.280800D+03 -0.454000D-02
  0.792700D+02 -0.181330D-01
  0.255900D+02 -0.557600D-01
  0.899700D+01 -0.126895D+00
  0.331900D+01 -0.170352D+00
  0.905900D+00  0.140382D+00
  0.364300D+00  0.598684D+00
  0.128500D+00  0.395389D+00
   s     1 1.00
  0.905900D+00  0.100000D+01
   s     1 1.00
  0.364300D+00  0.100000D+01
   p     5 1.00
  0.187100D+02  0.140310D-01
  0.413300D+01  0.868660D-01
  0.120000D+01  0.290216D+00
  0.382700D+00  0.501008D+00
  0.120900D+00  0.343406D+00
   p     1 1.00
  0.382700D+00  0.100000D+01
   p     1 1.00
  0.120900D+00  0.100000D+01
   d     1 1.00
  0.109700D+01  0.100000D+01
   d     1 1.00
  0.318000D+00  0.100000D+01
   f     1 1.00
  0.761000D+00  0.100000D+01
  
  3  0
   s    10 1.00
  0.823600D+04  0.531000D-03
  0.123500D+04  0.410800D-02
  0.280800D+03  0.210870D-01
  0.792700D+02  0.818530D-01
  0.255900D+02  0.234817D+00
  0.899700D+01  0.434401D+00
  0.331900D+01  0.346129D+00
  0.905900D+00  0.393780D-01
  0.364300D+00 -0.898300D-02
  0.128500D+00  0.238500D-02
   s    10 1.00
  0.823600D+04 -0.113000D-03
  0.123500D+04 -0.878000D-03
  0.280800D+03 -0.454000D-02
  0.792700D+02 -0.181330D-01
  0.255900D+02 -0.557600D-01
  0.899700D+01 -0.126895D+00
  0.331900D+01 -0.170352D+00
  0.905900D+00  0.140382D+00
  0.364300D+00  0.598684D+00
  0.128500D+00  0.395389D+00
   s     1 1.00
  0.905900D+00  0.100000D+01
   s     1 1.00
  0.364300D+00  0.100000D+01
   p     5 1.00
  0.187100D+02  0.140310D-01
  0.413300D+01  0.868660D-01
  0.120000D+01  0.290216D+00
  0.382700D+00  0.501008D+00
  0.120900D+00  0.343406D+00
   p     1 1.00
  0.382700D+00  0.100000D+01
   p     1 1.00
  0.120900D+00  0.100000D+01
   d     1 1.00
  0.109700D+01  0.100000D+01
   d     1 1.00
  0.318000D+00  0.100000D+01
   f     1 1.00
  0.761000D+00  0.100000D+01
  
  4  0
   s    10 1.00
  0.823600D+04  0.531000D-03
  0.123500D+04  0.410800D-02
  0.280800D+03  0.210870D-01
  0.792700D+02  0.818530D-01
  0.255900D+02  0.234817D+00
  0.899700D+01  0.434401D+00
  0.331900D+01  0.346129D+00
  0.905900D+00  0.393780D-01
  0.364300D+00 -0.898300D-02
  0.128500D+00  0.238500D-02
   s    10 1.00
  0.823600D+04 -0.113000D-03
  0.123500D+04 -0.878000D-03
  0.280800D+03 -0.454000D-02
  0.792700D+02 -0.181330D-01
  0.255900D+02 -0.557600D-01
  0.899700D+01 -0.126895D+00
  0.331900D+01 -0.170352D+00
  0.905900D+00  0.140382D+00
  0.364300D+00  0.598684D+00
  0.128500D+00  0.395389D+00
   s     1 1.00
  0.905900D+00  0.100000D+01
   s     1 1.00
  0.364300D+00  0.100000D+01
   p     5 1.00
  0.187100D+02  0.140310D-01
  0.413300D+01  0.868660D-01
  0.120000D+01  0.290216D+00
  0.382700D+00  0.501008D+00
  0.120900D+00  0.343406D+00
   p     1 1.00
  0.382700D+00  0.100000D+01
   p     1 1.00
  0.120900D+00  0.100000D+01
   d     1 1.00
  0.109700D+01  0.100000D+01
   d     1 1.00
  0.318000D+00  0.100000D+01
   f     1 1.00
  0.761000D+00  0.100000D+01
  
  5  0
   s    10 1.00
  0.823600D+04  0.531000D-03
  0.123500D+04  0.410800D-02
  0.280800D+03  0.210870D-01
  0.792700D+02  0.818530D-01
  0.255900D+02  0.234817D+00
  0.899700D+01  0.434401D+00
  0.331900D+01  0.346129D+00
  0.905900D+00  0.393780D-01
  0.364300D+00 -0.898300D-02
  0.128500D+00  0.238500D-02
   s    10 1.00
  0.823600D+04 -0.113000D-03
  0.123500D+04 -0.878000D-03
  0.280800D+03 -0.454000D-02
  0.792700D+02 -0.181330D-01
  0.255900D+02 -0.557600D-01
  0.899700D+01 -0.126895D+00
  0.331900D+01 -0.170352D+00
  0.905900D+00  0.140382D+00
  0.364300D+00  0.598684D+00
  0.128500D+00  0.395389D+00
   s     1 1.00
  0.905900D+00  0.100000D+01
   s     1 1.00
  0.364300D+00  0.100000D+01
   p     5 1.00
  0.187100D+02  0.140310D-01
  0.413300D+01  0.868660D-01
  0.120000D+01  0.290216D+00
  0.382700D+00  0.501008D+00
  0.120900D+00  0.343406D+00
   p     1 1.00
  0.382700D+00  0.100000D+01
   p     1 1.00
  0.120900D+00  0.100000D+01
   d     1 1.00
  0.109700D+01  0.100000D+01
   d     1 1.00
  0.318000D+00  0.100000D+01
   f     1 1.00
  0.761000D+00  0.100000D+01
  
  6  0
   s    10 1.00
  0.823600D+04  0.531000D-03
  0.123500D+04  0.410800D-02
  0.280800D+03  0.210870D-01
  0.792700D+02  0.818530D-01
  0.255900D+02  0.234817D+00
  0.899700D+01  0.434401D+00
  0.331900D+01  0.346129D+00
  0.905900D+00  0.393780D-01
  0.364300D+00 -0.898300D-02
  0.128500D+00  0.238500D-02
   s    10 1.00
  0.823600D+04 -0.113000D-03
  0.123500D+04 -0.878000D-03
  0.280800D+03 -0.454000D-02
  0.792700D+02 -0.181330D-01
  0.255900D+02 -0.557600D-01
  0.899700D+01 -0.126895D+00
  0.331900D+01 -0.170352D+00
  0.905900D+00  0.140382D+00
  0.364300D+00  0.598684D+00
  0.128500D+00  0.395389D+00
   s     1 1.00
  0.905900D+00  0.100000D+01
   s     1 1.00
  0.364300D+00  0.100000D+01
   p     5 1.00
  0.187100D+02  0.140310D-01
  0.413300D+01  0.868660D-01
  0.120000D+01  0.290216D+00
  0.382700D+00  0.501008D+00
  0.120900D+00  0.343406D+00
   p     1 1.00
  0.382700D+00  0.100000D+01
   p     1 1.00
  0.120900D+00  0.100000D+01
   d     1 1.00
  0.109700D+01  0.100000D+01
   d     1 1.00
  0.318000D+00  0.100000D+01
   f     1 1.00
  0.761000D+00  0.100000D+01
  
  7  0
   s    10 1.00
  0.823600D+04  0.531000D-03
  0.123500D+04  0.410800D-02
  0.280800D+03  0.210870D-01
  0.792700D+02  0.818530D-01
  0.255900D+02  0.234817D+00
  0.899700D+01  0.434401D+00
  0.331900D+01  0.346129D+00
  0.905900D+00  0.393780D-01
  0.364300D+00 -0.898300D-02
  0.128500D+00  0.238500D-02
   s    10 1.00
  0.823600D+04 -0.113000D-03
  0.123500D+04 -0.878000D-03
  0.280800D+03 -0.454000D-02
  0.792700D+02 -0.181330D-01
  0.255900D+02 -0.557600D-01
  0.899700D+01 -0.126895D+00
  0.331900D+01 -0.170352D+00
  0.905900D+00  0.140382D+00
  0.364300D+00  0.598684D+00
  0.128500D+00  0.395389D+00
   s     1 1.00
  0.905900D+00  0.100000D+01
   s     1 1.00
  0.364300D+00  0.100000D+01
   p     5 1.00
  0.187100D+02  0.140310D-01
  0.413300D+01  0.868660D-01
  0.120000D+01  0.290216D+00
  0.382700D+00  0.501008D+00
  0.120900D+00  0.343406D+00
   p     1 1.00
  0.382700D+00  0.100000D+01
   p     1 1.00
  0.120900D+00  0.100000D+01
   d     1 1.00
  0.109700D+01  0.100000D+01
   d     1 1.00
  0.318000D+00  0.100000D+01
   f     1 1.00
  0.761000D+00  0.100000D+01
  
  8  0
   s     4 1.00
  0.130100D+02  0.196850D-01
  0.196200D+01  0.137977D+00
  0.444600D+00  0.478148D+00
  0.122000D+00  0.501240D+00
   s     1 1.00
  0.122000D+00  0.100000D+01
   p     1 1.00
  0.727000D+00  0.100000D+01
  
  9  0
   s     4 1.00
  0.130100D+02  0.196850D-01
  0.196200D+01  0.137977D+00
  0.444600D+00  0.478148D+00
  0.122000D+00  0.501240D+00
   s     1 1.00
  0.122000D+00  0.100000D+01
   p     1 1.00
  0.727000D+00  0.100000D+01
  
 10  0
   s     4 1.00
  0.130100D+02  0.196850D-01
  0.196200D+01  0.137977D+00
  0.444600D+00  0.478148D+00
  0.122000D+00  0.501240D+00
   s     1 1.00
  0.122000D+00  0.100000D+01
   p     1 1.00
  0.727000D+00  0.100000D+01
  
 11  0
   s     4 1.00
  0.130100D+02  0.196850D-01
  0.196200D+01  0.137977D+00
  0.444600D+00  0.478148D+00
  0.122000D+00  0.501240D+00
   s     1 1.00
  0.122000D+00  0.100000D+01
   p     1 1.00
  0.727000D+00  0.100000D+01
  
 12  0
   s     4 1.00
  0.130100D+02  0.196850D-01
  0.196200D+01  0.137977D+00
  0.444600D+00  0.478148D+00
  0.122000D+00  0.501240D+00
   s     1 1.00
  0.122000D+00  0.100000D+01
   p     1 1.00
  0.727000D+00  0.100000D+01
  
 13  0
   s     4 1.00
  0.130100D+02  0.196850D-01
  0.196200D+01  0.137977D+00
  0.444600D+00  0.478148D+00
  0.122000D+00  0.501240D+00
   s     1 1.00
  0.122000D+00  0.100000D+01
   p     1 1.00
  0.727000D+00  0.100000D+01
  
 14  0
   s     4 1.00
  0.130100D+02  0.196850D-01
  0.196200D+01  0.137977D+00
  0.444600D+00  0.478148D+00
  0.122000D+00  0.501240D+00
   s     1 1.00
  0.122000D+00  0.100000D+01
   p     1 1.00
  0.727000D+00  0.100000D+01
  
[MO]
 Sym= __1_A__
 Ene=  0.000000000000000E+000
 Spin= Alpha
 Occup=    2.00000000000000     
                     1 -3.364567913070460E-006
                     2  0.998501294378334     
                     3 -3.854082161537800E-004
                     4  1.866947799483015E-003
                     5  3.543416219543735E-003
                     6  9.632424525918690E-004
                     7  4.555383433378087E-003
                     8  0.000000000000000E+000
                     9 -1.317775329419985E-004
                    10 -6.167375301282094E-005
                    11  0.000000000000000E+000
                    12 -6.706745816840530E-004
                    13 -5.876742415545651E-004
                    14  0.000000000000000E+000
                    15 -1.321422039064931E-004
                    16  0.000000000000000E+000
                    17  0.000000000000000E+000
                    18 -2.190665126318632E-004
                    19 -4.100533894490033E-005
                    20  3.433958092650293E-004
                    21  0.000000000000000E+000
                    22  0.000000000000000E+000
                    23 -2.069981506390972E-004
                    24  7.663606395378471E-005
                    25  0.000000000000000E+000
                    26 -1.787993567183328E-005
                    27 -4.583173214148397E-005
                    28  0.000000000000000E+000
                    29  0.000000000000000E+000
                    30  1.130651857105311E-005
                    31 -1.155387206386929E-004
                    32 -2.283278994904915E-004
                    33  1.410132542099067E-003
                    34  1.924180995737825E-004
                    35 -5.582614021829393E-005
                    36 -9.472208216855766E-005
                    37 -3.818364489286750E-003
                    38  0.000000000000000E+000
                    39  2.620069959620454E-005
                    40  5.974211443932778E-005
                    41  0.000000000000000E+000
                    42 -3.941224062660382E-004
                    43  4.060628892776155E-003
                    44  0.000000000000000E+000
                    45 -3.082680150013306E-006
                    46  0.000000000000000E+000
                    47  0.000000000000000E+000
                    48 -1.839229687659365E-004
                    49 -2.975235021470780E-006
                    50 -2.975241571809459E-004
                    51  0.000000000000000E+000
                    52  0.000000000000000E+000
                    53  7.510288967371367E-005
                    54  1.067900462504965E-004
                    55  0.000000000000000E+000
                    56 -2.455318925585333E-006
                    57 -5.980104809016879E-005
                    58  0.000000000000000E+000
                    59  0.000000000000000E+000
                    60  3.974625328820600E-005
                    61 -1.527531732425758E-004
                    62 -2.420356448385284E-004
                    63 -1.150084164719234E-003
                    64 -1.246956520285763E-005
                    65  8.782694781784001E-004
                    66 -4.191946903122035E-004
                    67  1.899704411148431E-004
                    68  0.000000000000000E+000
                    69  2.387379440418748E-005
                    70  6.875962368448091E-004
                    71  0.000000000000000E+000
                    72 -1.039012599351607E-003
                    73  9.895974512093602E-005
                    74  0.000000000000000E+000
                    75 -2.361104551314414E-005
                    76  0.000000000000000E+000
                    77  0.000000000000000E+000
                    78 -4.207504490309146E-005
                    79 -7.184780134750553E-006
                    80 -5.219488572810652E-005
                    81  0.000000000000000E+000
                    82  0.000000000000000E+000
                    83 -5.235423552221180E-005
                    84  5.218815005624280E-005
                    85  0.000000000000000E+000
                    86  1.564421231447918E-005
                    87 -4.059290776120521E-005
                    88  0.000000000000000E+000
                    89  0.000000000000000E+000
                    90 -4.632027026232904E-005
                    91 -1.070707080278048E-004
                    92 -2.042600925534571E-004
                    93 -1.040913576663287E-003
                    94  6.698846251029129E-005
                    95  4.600353466605181E-004
                    96  4.118554562794770E-004
                    97  2.790190839946621E-004
                    98  0.000000000000000E+000
                    99  6.141943223443905E-005
                   100  4.584765350360513E-004
                   101  0.000000000000000E+000
                   102  5.711357568613355E-004
                   103 -4.999582640632600E-004
                   104  0.000000000000000E+000
                   105 -1.753168011159957E-005
                   106  0.000000000000000E+000
                   107  0.000000000000000E+000
                   108 -6.155419831660505E-005
                   109  6.254883610520453E-006
                   110  2.900398651468721E-006
                   111  0.000000000000000E+000
                   112  0.000000000000000E+000
                   113  3.136604206369226E-005
                   114 -2.859971066333815E-005
                   115  0.000000000000000E+000
                   116 -1.859907424984673E-005
                   117 -2.867170240832881E-005
                   118  0.000000000000000E+000
                   119  0.000000000000000E+000
                   120  5.674792140596037E-006
                   121 -8.394154297615449E-005
                   122 -1.567259507379448E-004
                   123 -3.272826314522801E-004
                   124  1.297292788193113E-004
                   125  7.410694424708193E-005
                   126 -7.211446620431735E-006
                   127 -3.049060583844157E-004
                   128  0.000000000000000E+000
                   129  1.266539418501179E-004
                   130  4.395843628483106E-004
                   131  0.000000000000000E+000
                   132  7.361583801537226E-005
                   133  8.853228852173019E-004
                   134  0.000000000000000E+000
                   135  1.568489194597641E-005
                   136  0.000000000000000E+000
                   137  0.000000000000000E+000
                   138  3.207849694655040E-005
                   139 -5.805315639406312E-006
                   140  1.201040027351706E-004
                   141  0.000000000000000E+000
                   142  0.000000000000000E+000
                   143  2.288988923424318E-004
                   144  1.125619567379289E-004
                   145  0.000000000000000E+000
                   146 -9.377426831951553E-006
                   147 -3.789798174666227E-005
                   148  0.000000000000000E+000
                   149  0.000000000000000E+000
                   150  1.313517796947975E-005
                   151 -3.510091634847447E-005
                   152 -1.407490391548864E-004
                   153 -2.777897118629042E-004
                   154  8.662308108101738E-005
                   155  2.004881516704093E-004
                   156 -4.675322164374146E-006
                   157 -2.756715268984259E-004
                   158  0.000000000000000E+000
                   159 -5.341611343379998E-005
                   160  1.869895369700124E-004
                   161  0.000000000000000E+000
                   162  3.614152486772931E-004
                   163  4.110909870223999E-004
                   164  0.000000000000000E+000
                   165  6.647771595922258E-006
                   166  0.000000000000000E+000
                   167  0.000000000000000E+000
                   168  1.837661440166946E-005
                   169  6.361106713205242E-006
                   170  1.170992473545345E-004
                   171  0.000000000000000E+000
                   172  0.000000000000000E+000
                   173  1.136006114960747E-004
                   174 -8.063454822073213E-005
                   175  0.000000000000000E+000
                   176  4.346996546574723E-006
                   177 -2.597423786549312E-005
                   178  0.000000000000000E+000
                   179  0.000000000000000E+000
                   180 -6.642413285838430E-006
                   181 -3.305435399999548E-005
                   182 -1.118301782547502E-004
                   183 -3.048559773853214E-004
                   184  3.023158970122107E-005
                   185  1.582091688101148E-004
                   186 -1.646157583138058E-005
                   187 -5.565312779356348E-005
                   188  0.000000000000000E+000
                   189  8.401988623612363E-005
                   190  5.037404404697385E-005
                   191  0.000000000000000E+000
                   192  2.942228037982182E-004
                   193 -7.217747207880665E-005
                   194  0.000000000000000E+000
                   195 -1.591747811073873E-006
                   196  0.000000000000000E+000
                   197  0.000000000000000E+000
                   198 -9.658654812127657E-006
                   199 -3.314178705919365E-007
                   200  1.037965111970399E-005
                   201  0.000000000000000E+000
                   202  0.000000000000000E+000
                   203 -5.736406519427558E-005
                   204 -5.301874945853841E-005
                   205  0.000000000000000E+000
                   206 -3.808481968340033E-006
                   207 -4.422842412527217E-006
                   208  0.000000000000000E+000
                   209  0.000000000000000E+000
                   210 -2.704119297585303E-006
                   211 -6.592308623501554E-006
                   212 -2.449626107970007E-004
                   213 -2.377020663720701E-004
                   214  2.143241390715523E-004
                   215  1.847516246372981E-004
                   216  0.000000000000000E+000
                   217  2.377154489001063E-004
                   218 -7.477391826154385E-004
                   219 -1.680855106780173E-004
                   220  1.640782069916657E-004
                   221  0.000000000000000E+000
                   222 -2.013523103564882E-004
                   223 -4.788104522092251E-004
                   224 -5.107967533433578E-006
                   225 -2.675430815566513E-005
                   226  0.000000000000000E+000
                   227 -2.095893771632862E-004
                   228 -3.115833451823019E-004
                   229 -1.520471492001722E-005
                   230 -4.186041647228660E-005
                   231  0.000000000000000E+000
                   232 -5.740299516839836E-005
                   233 -3.503808116936108E-004
                   234  6.734049534276790E-006
                   235  2.834757104118695E-006
                   236  0.000000000000000E+000
                   237 -3.816207709752365E-005
                   238 -4.230366863172517E-004
                   239 -7.961768061840278E-006
                   240 -3.368171529585129E-006
                   241  0.000000000000000E+000
                   242 -1.650950484917806E-005
                   243 -5.952676473511085E-005
                   244  1.731556584334790E-006
                   245  1.751598779944091E-005
                   246  0.000000000000000E+000
 Sym= __2_A__
 Ene=  0.000000000000000E+000
 Spin= Alpha
 Occup=    2.00000000000000     
                     1 -5.393054487561138E-005
                     2 -3.793417571318627E-004
                     3  2.715625658264084E-003
                     4  1.560023977643412E-004
                     5  1.386783788428130E-003
                     6 -1.539027082758379E-004
                     7  3.227192299381915E-003
                     8  0.000000000000000E+000
                     9 -8.033501916832778E-006
                    10 -8.036931858999075E-005
                    11  0.000000000000000E+000
                    12  1.350379129187768E-005
                    13 -5.918190183387703E-004
                    14  0.000000000000000E+000
                    15  4.138204104266067E-005
                    16  0.000000000000000E+000
                    17  0.000000000000000E+000
                    18 -5.547355864379464E-005
                    19  5.498710302207445E-006
                    20 -1.216836051132080E-004
                    21  0.000000000000000E+000
                    22  0.000000000000000E+000
                    23  3.309731834968422E-004
                    24 -9.178987466201131E-005
                    25  0.000000000000000E+000
                    26 -1.186288531993324E-005
                    27  1.068584826115031E-004
                    28  0.000000000000000E+000
                    29  0.000000000000000E+000
                    30 -4.717323475198797E-005
                    31  1.403877960721089E-004
                    32   1.00096318614189     
                    33  9.425474551521210E-003
                    34  2.804082752612203E-003
                    35 -7.795264851374890E-003
                    36 -1.248216481290996E-005
                    37 -4.571246397829122E-003
                    38  0.000000000000000E+000
                    39 -1.648317094296111E-004
                    40  1.050293179896664E-003
                    41  0.000000000000000E+000
                    42 -8.393008070900506E-005
                    43  4.700914475779291E-003
                    44  0.000000000000000E+000
                    45 -6.306062274897528E-004
                    46  0.000000000000000E+000
                    47  0.000000000000000E+000
                    48 -3.026280859630932E-004
                    49  3.725378210811885E-005
                    50  4.965195705885369E-004
                    51  0.000000000000000E+000
                    52  0.000000000000000E+000
                    53 -7.432299175099518E-004
                    54 -2.744096112485212E-004
                    55  0.000000000000000E+000
                    56  1.119971024779482E-005
                    57  9.910950272838261E-005
                    58  0.000000000000000E+000
                    59  0.000000000000000E+000
                    60 -3.117911521864114E-005
                    61  4.633983691927967E-004
                    62  6.770399749281124E-003
                    63 -2.128392731186369E-003
                    64 -2.204400490136153E-004
                    65  2.764262274510383E-003
                    66  4.033955245805133E-005
                    67  3.831625550494613E-007
                    68  0.000000000000000E+000
                    69  4.836417757642535E-004
                    70  1.457975861911472E-004
                    71  0.000000000000000E+000
                    72 -2.198339685140042E-003
                    73  2.669940673226303E-004
                    74  0.000000000000000E+000
                    75  4.068103473488435E-005
                    76  0.000000000000000E+000
                    77  0.000000000000000E+000
                    78 -8.516593384249802E-006
                    79  1.404953174244531E-005
                    80 -3.848227478319167E-004
                    81  0.000000000000000E+000
                    82  0.000000000000000E+000
                    83 -6.584865338303873E-004
                    84 -2.821157890546489E-004
                    85  0.000000000000000E+000
                    86  3.142125452170206E-005
                    87 -5.491123564631407E-005
                    88  0.000000000000000E+000
                    89  0.000000000000000E+000
                    90  5.985696521929679E-005
                    91  1.545742834524214E-004
                    92  7.317435834177683E-003
                    93 -2.176050214771987E-003
                    94 -2.831995533723901E-004
                    95  3.141952406784005E-003
                    96  1.777551773707236E-005
                    97 -5.855755952048329E-006
                    98  0.000000000000000E+000
                    99 -7.835123263860019E-004
                   100  7.350375551194830E-005
                   101  0.000000000000000E+000
                   102  1.964115708238269E-003
                   103  9.210966773236198E-005
                   104  0.000000000000000E+000
                   105  3.164654068658237E-005
                   106  0.000000000000000E+000
                   107  0.000000000000000E+000
                   108 -3.533382380712414E-006
                   109 -4.647424233062201E-006
                   110 -3.992977974828906E-004
                   111  0.000000000000000E+000
                   112  0.000000000000000E+000
                   113 -4.930994494326084E-004
                   114  2.957327931447939E-004
                   115  0.000000000000000E+000
                   116 -3.002470234538456E-005
                   117 -6.398199083312765E-005
                   118  0.000000000000000E+000
                   119  0.000000000000000E+000
                   120 -3.208211650631136E-005
                   121  1.455994245311167E-004
                   122 -2.655919106361016E-004
                   123 -7.906850117574908E-004
                   124  2.238058330177305E-004
                   125 -6.308995153737768E-005
                   126 -2.337249797321210E-006
                   127 -2.811811656442130E-004
                   128  0.000000000000000E+000
                   129 -6.393590142881137E-005
                   130  5.618083817690260E-004
                   131  0.000000000000000E+000
                   132  3.730061349996141E-004
                   133  8.999800269136856E-004
                   134  0.000000000000000E+000
                   135  1.736046302280294E-005
                   136  0.000000000000000E+000
                   137  0.000000000000000E+000
                   138  1.897526549735370E-006
                   139  4.850071572263470E-005
                   140  1.266398321037080E-004
                   141  0.000000000000000E+000
                   142  0.000000000000000E+000
                   143  2.621292929910708E-004
                   144 -1.471946364748855E-004
                   145  0.000000000000000E+000
                   146  8.838681667702293E-006
                   147 -3.331859959485407E-005
                   148  0.000000000000000E+000
                   149  0.000000000000000E+000
                   150 -4.752115155777023E-005
                   151  3.492431658158128E-005
                   152 -2.301911837911717E-004
                   153 -7.750610808057959E-004
                   154  2.309796264316163E-004
                   155 -3.658019151770096E-005
                   156 -1.050217527446738E-005
                   157 -2.828426880076198E-004
                   158  0.000000000000000E+000
                   159  9.639486549410980E-005
                   160  5.375662781439676E-004