[Molden Format]
[Atoms] AU
  N     1    7    -4.5082829200   -0.1342819900   -0.4228200100        
  C     2    6    -1.7496705200   -0.0824342700   -0.1838819400        
  C     3    6    -0.3491890900    0.2202010900   -2.3813599000        
  C     4    6    -0.4819141000   -0.3194027500    2.1144844200        
  C     5    6     2.2679837200    0.2851297300   -2.2867536700        
  C     6    6     2.1285900100   -0.2535069600    2.1993448600        
  C     7    6     3.5096699900    0.0491470500   -0.0030301700        
  H     8    1    -5.1840567300   -2.1697885400    0.7751543100        
  H     9    1    -5.2915135300    1.5208285600    1.2149402000        
  H    10    1    -1.3260875200    0.4019365300   -4.1451509600        
  H    11    1    -1.5448115400   -0.5543420500    3.8263524900        
  H    12    1     3.3318141500    0.5199799700   -3.9976458500        
  H    13    1     3.0845146800   -0.4378414600    3.9798216900        
  H    14    1     5.5368142800    0.0998677000    0.0666404700        
[5D]
[7F]
[GTO]
  1  0
   s    12 1.00
  0.114200D+05  0.172695D-04
  0.171200D+04  0.134411D-03
  0.389300D+03  0.694561D-03
  0.110000D+03  0.278531D-02
  0.355700D+02  0.863457D-02
  0.125400D+02  0.199805D-01
  0.464400D+01  0.262908D-01
  0.129300D+01 -0.243845D-01
  0.511800D+00 -0.924934D-01
  0.178700D+00 -0.339683D+00
  0.246240D-01  0.345111D+00
  0.112530D-01  0.752750D+00
   s    10 1.00
  0.114200D+05  0.523000D-03
  0.171200D+04  0.404500D-02
  0.389300D+03  0.207750D-01
  0.110000D+03  0.807269D-01
  0.355700D+02  0.233074D+00
  0.125400D+02  0.433501D+00
  0.464400D+01  0.347472D+00
  0.129300D+01  0.412620D-01
  0.511800D+00 -0.850799D-02
  0.178700D+00  0.238400D-02
   s    10 1.00
  0.114200D+05 -0.115000D-03
  0.171200D+04 -0.895000D-03
  0.389300D+03 -0.462400D-02
  0.110000D+03 -0.185280D-01
  0.355700D+02 -0.573390D-01
  0.125400D+02 -0.132076D+00
  0.464400D+01 -0.172510D+00
  0.129300D+01  0.151814D+00
  0.511800D+00  0.599944D+00
  0.178700D+00  0.387462D+00
   s     1 1.00
  0.129300D+01  0.100000D+01
   s     1 1.00
  0.178700D+00  0.100000D+01
   p     5 1.00
  0.266300D+02  0.146700D-01
  0.594800D+01  0.917640D-01
  0.174200D+01  0.298683D+00
  0.555000D+00  0.498487D+00
  0.172500D+00  0.337023D+00
   p     1 1.00
  0.174200D+01  0.100000D+01
   p     1 1.00
  0.555000D+00  0.100000D+01
   d     1 1.00
  0.165400D+01  0.100000D+01
   d     1 1.00
  0.469000D+00  0.100000D+01
   f     1 1.00
  0.109300D+01  0.100000D+01
  
  2  0
   s    10 1.00
  0.823600D+04  0.531000D-03
  0.123500D+04  0.410800D-02
  0.280800D+03  0.210870D-01
  0.792700D+02  0.818530D-01
  0.255900D+02  0.234817D+00
  0.899700D+01  0.434401D+00
  0.331900D+01  0.346129D+00
  0.905900D+00  0.393780D-01
  0.364300D+00 -0.898300D-02
  0.128500D+00  0.238500D-02
   s    10 1.00
  0.823600D+04 -0.113000D-03
  0.123500D+04 -0.878000D-03
  0.280800D+03 -0.454000D-02
  0.792700D+02 -0.181330D-01
  0.255900D+02 -0.557600D-01
  0.899700D+01 -0.126895D+00
  0.331900D+01 -0.170352D+00
  0.905900D+00  0.140382D+00
  0.364300D+00  0.598684D+00
  0.128500D+00  0.395389D+00
   s     1 1.00
  0.905900D+00  0.100000D+01
   s     1 1.00
  0.364300D+00  0.100000D+01
   p     5 1.00
  0.187100D+02  0.140310D-01
  0.413300D+01  0.868660D-01
  0.120000D+01  0.290216D+00
  0.382700D+00  0.501008D+00
  0.120900D+00  0.343406D+00
   p     1 1.00
  0.382700D+00  0.100000D+01
   p     1 1.00
  0.120900D+00  0.100000D+01
   d     1 1.00
  0.109700D+01  0.100000D+01
   d     1 1.00
  0.318000D+00  0.100000D+01
   f     1 1.00
  0.761000D+00  0.100000D+01
  
  3  0
   s    10 1.00
  0.823600D+04  0.531000D-03
  0.123500D+04  0.410800D-02
  0.280800D+03  0.210870D-01
  0.792700D+02  0.818530D-01
  0.255900D+02  0.234817D+00
  0.899700D+01  0.434401D+00
  0.331900D+01  0.346129D+00
  0.905900D+00  0.393780D-01
  0.364300D+00 -0.898300D-02
  0.128500D+00  0.238500D-02
   s    10 1.00
  0.823600D+04 -0.113000D-03
  0.123500D+04 -0.878000D-03
  0.280800D+03 -0.454000D-02
  0.792700D+02 -0.181330D-01
  0.255900D+02 -0.557600D-01
  0.899700D+01 -0.126895D+00
  0.331900D+01 -0.170352D+00
  0.905900D+00  0.140382D+00
  0.364300D+00  0.598684D+00
  0.128500D+00  0.395389D+00
   s     1 1.00
  0.905900D+00  0.100000D+01
   s     1 1.00
  0.364300D+00  0.100000D+01
   p     5 1.00
  0.187100D+02  0.140310D-01
  0.413300D+01  0.868660D-01
  0.120000D+01  0.290216D+00
  0.382700D+00  0.501008D+00
  0.120900D+00  0.343406D+00
   p     1 1.00
  0.382700D+00  0.100000D+01
   p     1 1.00
  0.120900D+00  0.100000D+01
   d     1 1.00
  0.109700D+01  0.100000D+01
   d     1 1.00
  0.318000D+00  0.100000D+01
   f     1 1.00
  0.761000D+00  0.100000D+01
  
  4  0
   s    10 1.00
  0.823600D+04  0.531000D-03
  0.123500D+04  0.410800D-02
  0.280800D+03  0.210870D-01
  0.792700D+02  0.818530D-01
  0.255900D+02  0.234817D+00
  0.899700D+01  0.434401D+00
  0.331900D+01  0.346129D+00
  0.905900D+00  0.393780D-01
  0.364300D+00 -0.898300D-02
  0.128500D+00  0.238500D-02
   s    10 1.00
  0.823600D+04 -0.113000D-03
  0.123500D+04 -0.878000D-03
  0.280800D+03 -0.454000D-02
  0.792700D+02 -0.181330D-01
  0.255900D+02 -0.557600D-01
  0.899700D+01 -0.126895D+00
  0.331900D+01 -0.170352D+00
  0.905900D+00  0.140382D+00
  0.364300D+00  0.598684D+00
  0.128500D+00  0.395389D+00
   s     1 1.00
  0.905900D+00  0.100000D+01
   s     1 1.00
  0.364300D+00  0.100000D+01
   p     5 1.00
  0.187100D+02  0.140310D-01
  0.413300D+01  0.868660D-01
  0.120000D+01  0.290216D+00
  0.382700D+00  0.501008D+00
  0.120900D+00  0.343406D+00
   p     1 1.00
  0.382700D+00  0.100000D+01
   p     1 1.00
  0.120900D+00  0.100000D+01
   d     1 1.00
  0.109700D+01  0.100000D+01
   d     1 1.00
  0.318000D+00  0.100000D+01
   f     1 1.00
  0.761000D+00  0.100000D+01
  
  5  0
   s    10 1.00
  0.823600D+04  0.531000D-03
  0.123500D+04  0.410800D-02
  0.280800D+03  0.210870D-01
  0.792700D+02  0.818530D-01
  0.255900D+02  0.234817D+00
  0.899700D+01  0.434401D+00
  0.331900D+01  0.346129D+00
  0.905900D+00  0.393780D-01
  0.364300D+00 -0.898300D-02
  0.128500D+00  0.238500D-02
   s    10 1.00
  0.823600D+04 -0.113000D-03
  0.123500D+04 -0.878000D-03
  0.280800D+03 -0.454000D-02
  0.792700D+02 -0.181330D-01
  0.255900D+02 -0.557600D-01
  0.899700D+01 -0.126895D+00
  0.331900D+01 -0.170352D+00
  0.905900D+00  0.140382D+00
  0.364300D+00  0.598684D+00
  0.128500D+00  0.395389D+00
   s     1 1.00
  0.905900D+00  0.100000D+01
   s     1 1.00
  0.364300D+00  0.100000D+01
   p     5 1.00
  0.187100D+02  0.140310D-01
  0.413300D+01  0.868660D-01
  0.120000D+01  0.290216D+00
  0.382700D+00  0.501008D+00
  0.120900D+00  0.343406D+00
   p     1 1.00
  0.382700D+00  0.100000D+01
   p     1 1.00
  0.120900D+00  0.100000D+01
   d     1 1.00
  0.109700D+01  0.100000D+01
   d     1 1.00
  0.318000D+00  0.100000D+01
   f     1 1.00
  0.761000D+00  0.100000D+01
  
  6  0
   s    10 1.00
  0.823600D+04  0.531000D-03
  0.123500D+04  0.410800D-02
  0.280800D+03  0.210870D-01
  0.792700D+02  0.818530D-01
  0.255900D+02  0.234817D+00
  0.899700D+01  0.434401D+00
  0.331900D+01  0.346129D+00
  0.905900D+00  0.393780D-01
  0.364300D+00 -0.898300D-02
  0.128500D+00  0.238500D-02
   s    10 1.00
  0.823600D+04 -0.113000D-03
  0.123500D+04 -0.878000D-03
  0.280800D+03 -0.454000D-02
  0.792700D+02 -0.181330D-01
  0.255900D+02 -0.557600D-01
  0.899700D+01 -0.126895D+00
  0.331900D+01 -0.170352D+00
  0.905900D+00  0.140382D+00
  0.364300D+00  0.598684D+00
  0.128500D+00  0.395389D+00
   s     1 1.00
  0.905900D+00  0.100000D+01
   s     1 1.00
  0.364300D+00  0.100000D+01
   p     5 1.00
  0.187100D+02  0.140310D-01
  0.413300D+01  0.868660D-01
  0.120000D+01  0.290216D+00
  0.382700D+00  0.501008D+00
  0.120900D+00  0.343406D+00
   p     1 1.00
  0.382700D+00  0.100000D+01
   p     1 1.00
  0.120900D+00  0.100000D+01
   d     1 1.00
  0.109700D+01  0.100000D+01
   d     1 1.00
  0.318000D+00  0.100000D+01
   f     1 1.00
  0.761000D+00  0.100000D+01
  
  7  0
   s    10 1.00
  0.823600D+04  0.531000D-03
  0.123500D+04  0.410800D-02
  0.280800D+03  0.210870D-01
  0.792700D+02  0.818530D-01
  0.255900D+02  0.234817D+00
  0.899700D+01  0.434401D+00
  0.331900D+01  0.346129D+00
  0.905900D+00  0.393780D-01
  0.364300D+00 -0.898300D-02
  0.128500D+00  0.238500D-02
   s    10 1.00
  0.823600D+04 -0.113000D-03
  0.123500D+04 -0.878000D-03
  0.280800D+03 -0.454000D-02
  0.792700D+02 -0.181330D-01
  0.255900D+02 -0.557600D-01
  0.899700D+01 -0.126895D+00
  0.331900D+01 -0.170352D+00
  0.905900D+00  0.140382D+00
  0.364300D+00  0.598684D+00
  0.128500D+00  0.395389D+00
   s     1 1.00
  0.905900D+00  0.100000D+01
   s     1 1.00
  0.364300D+00  0.100000D+01
   p     5 1.00
  0.187100D+02  0.140310D-01
  0.413300D+01  0.868660D-01
  0.120000D+01  0.290216D+00
  0.382700D+00  0.501008D+00
  0.120900D+00  0.343406D+00
   p     1 1.00
  0.382700D+00  0.100000D+01
   p     1 1.00
  0.120900D+00  0.100000D+01
   d     1 1.00
  0.109700D+01  0.100000D+01
   d     1 1.00
  0.318000D+00  0.100000D+01
   f     1 1.00
  0.761000D+00  0.100000D+01
  
  8  0
   s     4 1.00
  0.130100D+02  0.196850D-01
  0.196200D+01  0.137977D+00
  0.444600D+00  0.478148D+00
  0.122000D+00  0.501240D+00
   s     1 1.00
  0.122000D+00  0.100000D+01
   p     1 1.00
  0.727000D+00  0.100000D+01
  
  9  0
   s     4 1.00
  0.130100D+02  0.196850D-01
  0.196200D+01  0.137977D+00
  0.444600D+00  0.478148D+00
  0.122000D+00  0.501240D+00
   s     1 1.00
  0.122000D+00  0.100000D+01
   p     1 1.00
  0.727000D+00  0.100000D+01
  
 10  0
   s     4 1.00
  0.130100D+02  0.196850D-01
  0.196200D+01  0.137977D+00
  0.444600D+00  0.478148D+00
  0.122000D+00  0.501240D+00
   s     1 1.00
  0.122000D+00  0.100000D+01
   p     1 1.00
  0.727000D+00  0.100000D+01
  
 11  0
   s     4 1.00
  0.130100D+02  0.196850D-01
  0.196200D+01  0.137977D+00
  0.444600D+00  0.478148D+00
  0.122000D+00  0.501240D+00
   s     1 1.00
  0.122000D+00  0.100000D+01
   p     1 1.00
  0.727000D+00  0.100000D+01
  
 12  0
   s     4 1.00
  0.130100D+02  0.196850D-01
  0.196200D+01  0.137977D+00
  0.444600D+00  0.478148D+00
  0.122000D+00  0.501240D+00
   s     1 1.00
  0.122000D+00  0.100000D+01
   p     1 1.00
  0.727000D+00  0.100000D+01
  
 13  0
   s     4 1.00
  0.130100D+02  0.196850D-01
  0.196200D+01  0.137977D+00
  0.444600D+00  0.478148D+00
  0.122000D+00  0.501240D+00
   s     1 1.00
  0.122000D+00  0.100000D+01
   p     1 1.00
  0.727000D+00  0.100000D+01
  
 14  0
   s     4 1.00
  0.130100D+02  0.196850D-01
  0.196200D+01  0.137977D+00
  0.444600D+00  0.478148D+00
  0.122000D+00  0.501240D+00
   s     1 1.00
  0.122000D+00  0.100000D+01
   p     1 1.00
  0.727000D+00  0.100000D+01
  
[MO]
 Sym= __1_A__
 Ene=   1.00000000000000     
 Spin= Alpha
 Occup=    1.00000000000000     
                     1 -2.772297229282717E-004
                     2  0.998354198759366     
                     3 -2.704908700450062E-002
                     4  1.272690200135457E-003
                     5  5.461069158739076E-003
                     6  1.201960317685267E-002
                     7 -1.987043953484248E-003
                     8  1.961183402389072E-002
                     9 -1.539030522932266E-003
                    10  1.438754018019859E-004
                    11 -1.583426010193963E-003
                    12 -3.915185896741732E-003
                    13  5.305446660968850E-004
                    14 -5.408884519710918E-003
                    15  9.925689969274680E-005
                    16  2.841318739243624E-005
                    17 -2.829624122604566E-005
                    18  6.908904134715420E-005
                    19  7.362206887989906E-007
                    20  3.503895932189533E-004
                    21  7.952391265709277E-004
                    22 -7.478732388671909E-005
                    23  2.085076644667840E-004
                    24 -8.243186654417101E-005
                    25  5.132873103206813E-005
                    26 -4.936328275358460E-005
                    27  5.974866125876624E-006
                    28  4.066728660584658E-005
                    29  1.186654760695816E-005
                    30  6.444477327289726E-008
                    31 -5.997829413705313E-006
                    32 -3.341006317959321E-004
                    33  6.474269688152784E-004
                    34  2.795429210090469E-004
                    35  7.645278122297600E-005
                    36  1.034072565820347E-003
                    37  2.156798858461758E-004
                    38 -1.557289870149931E-003
                    39 -4.718407945338151E-004
                    40 -1.168689946422475E-004
                    41  8.654569769539229E-004
                    42  3.929761990279616E-003
                    43  3.758653053358930E-004
                    44 -2.194014117512728E-003
                    45  3.560972041136552E-005
                    46 -2.518106867502120E-004
                    47 -1.099428814743951E-005
                    48 -3.307193368485706E-005
                    49  2.814274414292600E-005
                    50  1.895152379728784E-004
                    51  3.926929432048594E-004
                    52 -1.015644330984145E-005
                    53 -1.466703070256228E-004
                    54 -5.534751202614470E-005
                    55  9.238163312383413E-005
                    56 -1.340329822243191E-005
                    57  7.886285369758665E-006
                    58  1.002805298850812E-004
                    59 -1.148787870072191E-006
                    60 -6.520206080400532E-005
                    61 -8.900566800758210E-006
                    62 -8.941002969060265E-004
                    63 -3.190828261111767E-004
                    64 -1.808568223600431E-004
                    65  3.320354027748408E-003
                    66 -3.440481993684697E-003
                    67 -2.330506076880325E-004
                    68  1.115080723937340E-003
                    69  8.021713735176571E-004
                    70 -6.228233505212681E-005
                    71  7.186650512162581E-004
                    72  1.625467527556750E-003
                    73  3.305527151255844E-004
                    74 -2.376783412048339E-003
                    75  9.623831820848054E-005
                    76 -9.728303497907227E-005
                    77 -2.757177614161547E-005
                    78  3.722913602254384E-005
                    79  1.386791562798900E-005
                    80  3.112751900905207E-004
                    81 -2.504528160442186E-004
                    82 -7.215526501194428E-005
                    83 -4.292254829155422E-006
                    84  2.987062570880722E-005
                    85 -2.995971479199292E-005
                    86 -1.902656241191778E-004
                    87 -1.773418214009868E-005
                    88  1.438508466921549E-005
                    89  2.615242064256344E-005
                    90 -7.534783836574013E-005
                    91  4.152237251049883E-006
                    92  1.167983888762668E-005
                    93 -5.119186279096421E-004
                    94  3.155751852706773E-004
                    95 -1.236837804868237E-003
                    96 -3.332849385538720E-004
                    97 -1.273403922703809E-004
                    98  9.871857905429089E-004
                    99  1.412087506147466E-004
                   100 -3.960433261984836E-005
                   101  3.668597320054001E-004
                   102 -1.908192283713995E-003
                   103 -5.051760184178894E-005
                   104 -4.230417393362692E-005
                   105 -2.727421231447120E-005
                   106 -2.845023785589304E-005
                   107  1.369379636236094E-006
                   108  2.881315851450684E-005
                   109  5.067620484341418E-006
                   110 -1.369743821519299E-004
                   111  2.105045067552832E-004
                   112  4.841875360562029E-005
                   113 -1.109518706715134E-004
                   114 -3.174012294221158E-005
                   115 -2.967067970312919E-005
                   116  3.458069204813435E-005
                   117 -6.756406136561202E-006
                   118 -5.859887087429486E-006
                   119 -5.841336712389894E-006
                   120  7.313027246362027E-006
                   121  1.965750085242583E-007
                   122 -3.232856457926972E-004
                   123 -1.990905840756656E-003
                   124  1.703290786402598E-004
                   125  7.243087498160064E-004
                   126  1.612594948927788E-003
                   127  7.082475761078575E-005
                   128 -2.003306533815575E-004
                   129  4.959581131855540E-004
                   130 -3.073030769835243E-005
                   131  3.790629973129532E-004
                   132  1.704348334365704E-003
                   133 -4.255897928603732E-005
                   134  7.735876438434211E-004
                   135  7.406474526867650E-005
                   136 -2.943971998989503E-005
                   137 -8.567812621397977E-006
                   138 -6.459348203521321E-005
                   139 -2.236756425756486E-007
                   140  2.507710811209462E-004
                   141  1.747860070419023E-004
                   142  1.091435088772409E-006
                   143 -3.993852164314818E-004
                   144 -4.412663027642781E-005
                   145 -1.671093941684388E-005
                   146 -4.735394029164446E-005
                   147 -8.213679486398865E-006
                   148  9.347922023192513E-006
                   149 -5.242856282396174E-006
                   150 -1.001982876538627E-004
                   151  7.383675438024805E-006
                   152 -1.544162305437696E-004
                   153 -4.509371186642314E-004
                   154 -5.611875147435112E-005
                   155  6.809329107497315E-004
                   156  4.077136730404789E-004
                   157  7.975586158067649E-006
                   158  3.269012758428359E-005
                   159 -2.918428473335410E-004
                   160 -1.496885072862312E-005
                   161  5.430883909529141E-005
                   162 -6.559301707947332E-004
                   163 -1.315290196138950E-004
                   164  9.435010846538547E-004
                   165 -6.117936044070406E-006
                   166 -1.238215026309294E-005
                   167 -9.866555887536618E-007
                   168  1.566221158423292E-005
                   169  2.392878045169785E-006
                   170 -4.520717237796682E-005
                   171  7.700011043723271E-005
                   172  1.800125912261924E-005
                   173 -5.144625357661774E-005
                   174 -1.224373096843673E-005
                   175 -7.662676287741962E-006
                   176 -1.417968653736521E-005
                   177 -9.538269348696980E-007
                   178 -9.190890394526213E-006
                   179  2.368775370683088E-006
                   180  1.370134568434322E-006
                   181  1.201604755725365E-006
                   182 -1.400623317006950E-004
                   183 -2.734827980900341E-004
                   184  3.199882810428480E-005
                   185  2.569065634399632E-004
                   186 -2.264826496756017E-004
                   187 -1.490839834700038E-007
                   188 -5.408747537098769E-005
                   189  1.535606159365881E-004
                   190 -4.394463170387640E-005
                   191  4.062989083390328E-004
                   192 -5.277285959068363E-004
                   193 -1.895085278861138E-004
                   194  1.461380999660226E-003
                   195  2.609945411626176E-005
                   196 -7.871615997056679E-006
                   197 -3.912953581875404E-006
                   198 -1.476087730960684E-005
                   199  9.208130505248846E-008
                   200 -5.693914520590911E-005
                   201 -2.846295280090509E-004
                   202  1.355368043906285E-006
                   203  1.684312660370985E-005
                   204  3.492315229426875E-005
                   205  1.599325536914312E-006
                   206  5.673831464353920E-006
                   207 -2.709244889717369E-006
                   208  1.714356160726655E-005
                   209 -8.212841766570233E-007
                   210 -5.262212750182306E-006
                   211 -2.071126824759639E-006
                   212 -9.119977025811376E-004
                   213  1.191964842059379E-003
                   214  1.192451780654891E-004
                   215 -2.598637754559899E-005
                   216  8.505133617962428E-005
                   217 -9.119975596183804E-004
                   218  1.191964714941534E-003
                   219  1.181366082793049E-004
                   220  1.208742597060479E-005
                   221  8.958834552525264E-005
                   222  1.137130975078744E-003
                   223 -1.576520072276875E-003
                   224 -5.080791138879631E-005
                   225 -1.727747683293084E-005
                   226  1.325755451664204E-004
                   227  8.092949659779830E-004
                   228 -4.735044756852610E-004
                   229 -8.062174363774042E-006
                   230  1.286497124665276E-005
                   231 -1.099302252617890E-004
                   232  8.493944454512361E-004
                   233 -3.092998363700320E-004
                   234 -4.303310130742981E-006
                   235 -6.098273021698271E-006
                   236  5.012467897788491E-005
                   237  3.771269029225041E-005
                   238 -4.958077039885096E-004
                   239 -1.339496613619948E-005
                   240 -1.152024005451601E-008
                   241 -3.176667494181197E-006
                   242 -3.528432470953498E-004
                   243  2.188035298731242E-004
                   244  4.001644699492745E-005
                   245  1.442209178806704E-006
                   246 -2.325434489299482E-006
 Sym= __2_A__
 Ene=   2.00000000000000     
 Spin= Alpha
 Occup=    1.00000000000000     
                     1 -2.423964455527201E-005
                     2 -8.669987308572072E-005
                     3  2.950160232998580E-004
                     4 -1.665549611794504E-005
                     5  9.365450144066161E-004
                     6  1.646462870005797E-003
                     7 -4.668860618519805E-005
                     8  7.940992257136424E-004
                     9 -1.419067719461786E-004
                    10  5.795494733264081E-006
                    11 -8.330829534311728E-005
                    12  1.313845812257946E-004
                    13  1.935191476186890E-005
                    14 -1.302962780289094E-004
                    15 -4.892893012575032E-005
                    16  2.902573660348661E-005
                    17  4.329091422469923E-006
                    18  5.603227449553052E-005
                    19 -2.110868458871036E-007
                    20  2.906084769157229E-005
                    21 -5.273560780426944E-005
                    22 -2.097500788895831E-005
                    23  1.099284960071586E-004
                    24  1.276904739677229E-005
                    25 -2.368518346628859E-005
                    26  1.222760514494916E-004
                    27  8.501809283523690E-006
                    28 -6.093637216111746E-005
                    29 -1.220957560973477E-005
                    30  1.001104297099053E-004
                    31  3.152608196483280E-007
                    32   1.00080702690804     
                    33  8.625211286145316E-003
                    34  2.837679967407568E-003
                    35 -8.433451467131179E-003
                    36 -1.449759370599093E-003
                    37 -4.485701094210247E-005
                    38  2.219985741955565E-005
                    39  6.374507832128188E-004
                    40  6.048662325352267E-005
                    41 -3.518399652379355E-004
                    42  2.521047750992331E-003
                    43  3.224944724669812E-005
                    44  3.453580691758494E-004
                    45  3.114825585011199E-004
                    46 -1.446916481407987E-006
                    47 -1.040814597779686E-004
                    48  3.206169275258848E-004
                    49  1.922014036396054E-005
                    50 -1.012396705337304E-003
                    51 -3.532149338499170E-004
                    52  2.139302486707191E-004
                    53 -1.035952492647999E-004
                    54  3.534529070155388E-005
                    55 -2.946630619327204E-005
                    56  2.553702917509347E-004
                    57  5.134863533301207E-006
                    58 -3.138980543584020E-005
                    59 -3.949967309338009E-005
                    60  7.574719113071605E-005
                    61 -1.715412051949744E-006
                    62  1.782246378323358E-002
                    63 -1.454717839162279E-003
                    64 -2.871835891730524E-004
                    65  2.774580447490091E-003
                    66 -3.062248444803037E-004
                    67 -5.700223403577838E-005
                    68  4.035315941674400E-004
                    69  1.704088124611050E-005
                    70 -3.742790978625871E-005
                    71  3.182534780813520E-004
                    72  2.162554221886721E-004
                    73  2.178659579730449E-004
                    74 -1.775459895574187E-003
                    75  1.002030659149937E-005
                    76  2.226745811832989E-005
                    77  3.979846570332116E-006
                    78 -4.468498873412690E-005
                    79 -5.273879850433379E-006
                    80 -5.449272922922595E-004
                    81 -3.670649608212521E-004
                    82  5.433264667207901E-006
                    83  8.065591442396228E-004
                    84  9.076728740415984E-005
                    85  3.517549383075354E-005
                    86  1.097073803998665E-004
                    87  1.977236734039353E-005
                    88 -2.863019394931064E-005
                    89 -2.671579204630191E-005
                    90 -2.615789249353616E-005
                    91  6.867170813378768E-006
                    92  1.884622609909870E-002
                    93 -1.766198833122370E-003
                    94 -3.340757482116587E-004
                    95  3.376330849848019E-003
                    96 -2.047991643567536E-004
                    97  2.850971095626692E-005
                    98 -2.892894054591433E-004
                    99 -1.133150667812248E-004
                   100  9.323674818518945E-005
                   101 -8.101169024170423E-004
                   102  2.924565322577293E-004
                   103 -1.679745292789755E-004
                   104  1.481077074899316E-003
                   105  3.262980253175114E-006
                   106 -1.801576540928326E-006
                   107  1.786323289410655E-006
                   108 -2.083976206146208E-005
                   109 -1.005916024086918E-006
                   110 -1.455286718412470E-004
                   111  5.140209773727562E-004
                   112 -2.771443794253181E-005
                   113  6.076774716807298E-004
                   114 -2.579211418050791E-005
                   115 -4.341853451076566E-005
                   116  8.559764517784371E-005
                   117 -1.401567790470343E-005
                   118  1.826421463977600E-005
                   119 -1.947312847623505E-005
                   120 -2.873927461359459E-005
                   121 -1.469453548085598E-007
                   122  3.931148182666899E-006
                   123 -7.101769702440066E-004
                   124  2.423109092316387E-004
                   125 -4.052223214486033E-004
                   126 -1.016369397907784E-004
                   127  3.200413495129201E-006
                   128 -5.169387236728915E-005
                   129  6.294436936003538E-004
                   130  1.191626077707454E-005
                   131  5.380487756894555E-005
                   132  3.448017192366650E-004
                   133 -4.030463621705788E-005
                   134  4.224828703087495E-004
                   135  1.781232513314485E-006
                   136  3.592392051765128E-005
                   137  5.407179362690311E-006
                   138 -3.884832086117332E-005
                   139 -6.567410365491122E-006
                   140  1.860297216778412E-004
                   141 -2.799642820694630E-004
                   142 -2.046491085100559E-005
                   143 -2.219090827865026E-004
                   144  2.052852648350785E-005
                   145 -9.989053350913609E-006
                   146  1.303429246538564E-005
                   147 -1.978183458460026E-006
                   148 -3.060369534457288E-006
                   149 -5.636381977096009E-006
                   150 -1.995841722587654E-005
                   151  2.222071002278638E-006
                   152  6.842046004485208E-005
                   153 -7.405030365872212E-004
                   154  2.279879736629130E-004
                   155 -1.271259936776948E-004
                   156 -1.372582585581413E-004
                   157 -7.806826985197808E-006
                   158  3.197764259698839E-005
                   159  4.796697561623363E-004
                   160  1.379309996482830E-005