[Molden Format]
[Atoms] AU
  N     1    7    -4.5082829200   -0.1342819900   -0.4228200100        
  C     2    6    -1.7496705200   -0.0824342700   -0.1838819400        
  C     3    6    -0.3491890900    0.2202010900   -2.3813599000        
  C     4    6    -0.4819141000   -0.3194027500    2.1144844200        
  C     5    6     2.2679837200    0.2851297300   -2.2867536700        
  C     6    6     2.1285900100   -0.2535069600    2.1993448600        
  C     7    6     3.5096699900    0.0491470500   -0.0030301700        
  H     8    1    -5.1840567300   -2.1697885400    0.7751543100        
  H     9    1    -5.2915135300    1.5208285600    1.2149402000        
  H    10    1    -1.3260875200    0.4019365300   -4.1451509600        
  H    11    1    -1.5448115400   -0.5543420500    3.8263524900        
  H    12    1     3.3318141500    0.5199799700   -3.9976458500        
  H    13    1     3.0845146800   -0.4378414600    3.9798216900        
  H    14    1     5.5368142800    0.0998677000    0.0666404700        
[5D]
[7F]
[GTO]
  1  0
   s    12 1.00
  0.114200D+05  0.172695D-04
  0.171200D+04  0.134411D-03
  0.389300D+03  0.694561D-03
  0.110000D+03  0.278531D-02
  0.355700D+02  0.863457D-02
  0.125400D+02  0.199805D-01
  0.464400D+01  0.262908D-01
  0.129300D+01 -0.243845D-01
  0.511800D+00 -0.924934D-01
  0.178700D+00 -0.339683D+00
  0.246240D-01  0.345111D+00
  0.112530D-01  0.752750D+00
   s    10 1.00
  0.114200D+05  0.523000D-03
  0.171200D+04  0.404500D-02
  0.389300D+03  0.207750D-01
  0.110000D+03  0.807269D-01
  0.355700D+02  0.233074D+00
  0.125400D+02  0.433501D+00
  0.464400D+01  0.347472D+00
  0.129300D+01  0.412620D-01
  0.511800D+00 -0.850799D-02
  0.178700D+00  0.238400D-02
   s    10 1.00
  0.114200D+05 -0.115000D-03
  0.171200D+04 -0.895000D-03
  0.389300D+03 -0.462400D-02
  0.110000D+03 -0.185280D-01
  0.355700D+02 -0.573390D-01
  0.125400D+02 -0.132076D+00
  0.464400D+01 -0.172510D+00
  0.129300D+01  0.151814D+00
  0.511800D+00  0.599944D+00
  0.178700D+00  0.387462D+00
   s     1 1.00
  0.129300D+01  0.100000D+01
   s     1 1.00
  0.178700D+00  0.100000D+01
   p     5 1.00
  0.266300D+02  0.146700D-01
  0.594800D+01  0.917640D-01
  0.174200D+01  0.298683D+00
  0.555000D+00  0.498487D+00
  0.172500D+00  0.337023D+00
   p     1 1.00
  0.174200D+01  0.100000D+01
   p     1 1.00
  0.555000D+00  0.100000D+01
   d     1 1.00
  0.165400D+01  0.100000D+01
   d     1 1.00
  0.469000D+00  0.100000D+01
   f     1 1.00
  0.109300D+01  0.100000D+01
  
  2  0
   s    10 1.00
  0.823600D+04  0.531000D-03
  0.123500D+04  0.410800D-02
  0.280800D+03  0.210870D-01
  0.792700D+02  0.818530D-01
  0.255900D+02  0.234817D+00
  0.899700D+01  0.434401D+00
  0.331900D+01  0.346129D+00
  0.905900D+00  0.393780D-01
  0.364300D+00 -0.898300D-02
  0.128500D+00  0.238500D-02
   s    10 1.00
  0.823600D+04 -0.113000D-03
  0.123500D+04 -0.878000D-03
  0.280800D+03 -0.454000D-02
  0.792700D+02 -0.181330D-01
  0.255900D+02 -0.557600D-01
  0.899700D+01 -0.126895D+00
  0.331900D+01 -0.170352D+00
  0.905900D+00  0.140382D+00
  0.364300D+00  0.598684D+00
  0.128500D+00  0.395389D+00
   s     1 1.00
  0.905900D+00  0.100000D+01
   s     1 1.00
  0.364300D+00  0.100000D+01
   p     5 1.00
  0.187100D+02  0.140310D-01
  0.413300D+01  0.868660D-01
  0.120000D+01  0.290216D+00
  0.382700D+00  0.501008D+00
  0.120900D+00  0.343406D+00
   p     1 1.00
  0.382700D+00  0.100000D+01
   p     1 1.00
  0.120900D+00  0.100000D+01
   d     1 1.00
  0.109700D+01  0.100000D+01
   d     1 1.00
  0.318000D+00  0.100000D+01
   f     1 1.00
  0.761000D+00  0.100000D+01
  
  3  0
   s    10 1.00
  0.823600D+04  0.531000D-03
  0.123500D+04  0.410800D-02
  0.280800D+03  0.210870D-01
  0.792700D+02  0.818530D-01
  0.255900D+02  0.234817D+00
  0.899700D+01  0.434401D+00
  0.331900D+01  0.346129D+00
  0.905900D+00  0.393780D-01
  0.364300D+00 -0.898300D-02
  0.128500D+00  0.238500D-02
   s    10 1.00
  0.823600D+04 -0.113000D-03
  0.123500D+04 -0.878000D-03
  0.280800D+03 -0.454000D-02
  0.792700D+02 -0.181330D-01
  0.255900D+02 -0.557600D-01
  0.899700D+01 -0.126895D+00
  0.331900D+01 -0.170352D+00
  0.905900D+00  0.140382D+00
  0.364300D+00  0.598684D+00
  0.128500D+00  0.395389D+00
   s     1 1.00
  0.905900D+00  0.100000D+01
   s     1 1.00
  0.364300D+00  0.100000D+01
   p     5 1.00
  0.187100D+02  0.140310D-01
  0.413300D+01  0.868660D-01
  0.120000D+01  0.290216D+00
  0.382700D+00  0.501008D+00
  0.120900D+00  0.343406D+00
   p     1 1.00
  0.382700D+00  0.100000D+01
   p     1 1.00
  0.120900D+00  0.100000D+01
   d     1 1.00
  0.109700D+01  0.100000D+01
   d     1 1.00
  0.318000D+00  0.100000D+01
   f     1 1.00
  0.761000D+00  0.100000D+01
  
  4  0
   s    10 1.00
  0.823600D+04  0.531000D-03
  0.123500D+04  0.410800D-02
  0.280800D+03  0.210870D-01
  0.792700D+02  0.818530D-01
  0.255900D+02  0.234817D+00
  0.899700D+01  0.434401D+00
  0.331900D+01  0.346129D+00
  0.905900D+00  0.393780D-01
  0.364300D+00 -0.898300D-02
  0.128500D+00  0.238500D-02
   s    10 1.00
  0.823600D+04 -0.113000D-03
  0.123500D+04 -0.878000D-03
  0.280800D+03 -0.454000D-02
  0.792700D+02 -0.181330D-01
  0.255900D+02 -0.557600D-01
  0.899700D+01 -0.126895D+00
  0.331900D+01 -0.170352D+00
  0.905900D+00  0.140382D+00
  0.364300D+00  0.598684D+00
  0.128500D+00  0.395389D+00
   s     1 1.00
  0.905900D+00  0.100000D+01
   s     1 1.00
  0.364300D+00  0.100000D+01
   p     5 1.00
  0.187100D+02  0.140310D-01
  0.413300D+01  0.868660D-01
  0.120000D+01  0.290216D+00
  0.382700D+00  0.501008D+00
  0.120900D+00  0.343406D+00
   p     1 1.00
  0.382700D+00  0.100000D+01
   p     1 1.00
  0.120900D+00  0.100000D+01
   d     1 1.00
  0.109700D+01  0.100000D+01
   d     1 1.00
  0.318000D+00  0.100000D+01
   f     1 1.00
  0.761000D+00  0.100000D+01
  
  5  0
   s    10 1.00
  0.823600D+04  0.531000D-03
  0.123500D+04  0.410800D-02
  0.280800D+03  0.210870D-01
  0.792700D+02  0.818530D-01
  0.255900D+02  0.234817D+00
  0.899700D+01  0.434401D+00
  0.331900D+01  0.346129D+00
  0.905900D+00  0.393780D-01
  0.364300D+00 -0.898300D-02
  0.128500D+00  0.238500D-02
   s    10 1.00
  0.823600D+04 -0.113000D-03
  0.123500D+04 -0.878000D-03
  0.280800D+03 -0.454000D-02
  0.792700D+02 -0.181330D-01
  0.255900D+02 -0.557600D-01
  0.899700D+01 -0.126895D+00
  0.331900D+01 -0.170352D+00
  0.905900D+00  0.140382D+00
  0.364300D+00  0.598684D+00
  0.128500D+00  0.395389D+00
   s     1 1.00
  0.905900D+00  0.100000D+01
   s     1 1.00
  0.364300D+00  0.100000D+01
   p     5 1.00
  0.187100D+02  0.140310D-01
  0.413300D+01  0.868660D-01
  0.120000D+01  0.290216D+00
  0.382700D+00  0.501008D+00
  0.120900D+00  0.343406D+00
   p     1 1.00
  0.382700D+00  0.100000D+01
   p     1 1.00
  0.120900D+00  0.100000D+01
   d     1 1.00
  0.109700D+01  0.100000D+01
   d     1 1.00
  0.318000D+00  0.100000D+01
   f     1 1.00
  0.761000D+00  0.100000D+01
  
  6  0
   s    10 1.00
  0.823600D+04  0.531000D-03
  0.123500D+04  0.410800D-02
  0.280800D+03  0.210870D-01
  0.792700D+02  0.818530D-01
  0.255900D+02  0.234817D+00
  0.899700D+01  0.434401D+00
  0.331900D+01  0.346129D+00
  0.905900D+00  0.393780D-01
  0.364300D+00 -0.898300D-02
  0.128500D+00  0.238500D-02
   s    10 1.00
  0.823600D+04 -0.113000D-03
  0.123500D+04 -0.878000D-03
  0.280800D+03 -0.454000D-02
  0.792700D+02 -0.181330D-01
  0.255900D+02 -0.557600D-01
  0.899700D+01 -0.126895D+00
  0.331900D+01 -0.170352D+00
  0.905900D+00  0.140382D+00
  0.364300D+00  0.598684D+00
  0.128500D+00  0.395389D+00
   s     1 1.00
  0.905900D+00  0.100000D+01
   s     1 1.00
  0.364300D+00  0.100000D+01
   p     5 1.00
  0.187100D+02  0.140310D-01
  0.413300D+01  0.868660D-01
  0.120000D+01  0.290216D+00
  0.382700D+00  0.501008D+00
  0.120900D+00  0.343406D+00
   p     1 1.00
  0.382700D+00  0.100000D+01
   p     1 1.00
  0.120900D+00  0.100000D+01
   d     1 1.00
  0.109700D+01  0.100000D+01
   d     1 1.00
  0.318000D+00  0.100000D+01
   f     1 1.00
  0.761000D+00  0.100000D+01
  
  7  0
   s    10 1.00
  0.823600D+04  0.531000D-03
  0.123500D+04  0.410800D-02
  0.280800D+03  0.210870D-01
  0.792700D+02  0.818530D-01
  0.255900D+02  0.234817D+00
  0.899700D+01  0.434401D+00
  0.331900D+01  0.346129D+00
  0.905900D+00  0.393780D-01
  0.364300D+00 -0.898300D-02
  0.128500D+00  0.238500D-02
   s    10 1.00
  0.823600D+04 -0.113000D-03
  0.123500D+04 -0.878000D-03
  0.280800D+03 -0.454000D-02
  0.792700D+02 -0.181330D-01
  0.255900D+02 -0.557600D-01
  0.899700D+01 -0.126895D+00
  0.331900D+01 -0.170352D+00
  0.905900D+00  0.140382D+00
  0.364300D+00  0.598684D+00
  0.128500D+00  0.395389D+00
   s     1 1.00
  0.905900D+00  0.100000D+01
   s     1 1.00
  0.364300D+00  0.100000D+01
   p     5 1.00
  0.187100D+02  0.140310D-01
  0.413300D+01  0.868660D-01
  0.120000D+01  0.290216D+00
  0.382700D+00  0.501008D+00
  0.120900D+00  0.343406D+00
   p     1 1.00
  0.382700D+00  0.100000D+01
   p     1 1.00
  0.120900D+00  0.100000D+01
   d     1 1.00
  0.109700D+01  0.100000D+01
   d     1 1.00
  0.318000D+00  0.100000D+01
   f     1 1.00
  0.761000D+00  0.100000D+01
  
  8  0
   s     4 1.00
  0.130100D+02  0.196850D-01
  0.196200D+01  0.137977D+00
  0.444600D+00  0.478148D+00
  0.122000D+00  0.501240D+00
   s     1 1.00
  0.122000D+00  0.100000D+01
   p     1 1.00
  0.727000D+00  0.100000D+01
  
  9  0
   s     4 1.00
  0.130100D+02  0.196850D-01
  0.196200D+01  0.137977D+00
  0.444600D+00  0.478148D+00
  0.122000D+00  0.501240D+00
   s     1 1.00
  0.122000D+00  0.100000D+01
   p     1 1.00
  0.727000D+00  0.100000D+01
  
 10  0
   s     4 1.00
  0.130100D+02  0.196850D-01
  0.196200D+01  0.137977D+00
  0.444600D+00  0.478148D+00
  0.122000D+00  0.501240D+00
   s     1 1.00
  0.122000D+00  0.100000D+01
   p     1 1.00
  0.727000D+00  0.100000D+01
  
 11  0
   s     4 1.00
  0.130100D+02  0.196850D-01
  0.196200D+01  0.137977D+00
  0.444600D+00  0.478148D+00
  0.122000D+00  0.501240D+00
   s     1 1.00
  0.122000D+00  0.100000D+01
   p     1 1.00
  0.727000D+00  0.100000D+01
  
 12  0
   s     4 1.00
  0.130100D+02  0.196850D-01
  0.196200D+01  0.137977D+00
  0.444600D+00  0.478148D+00
  0.122000D+00  0.501240D+00
   s     1 1.00
  0.122000D+00  0.100000D+01
   p     1 1.00
  0.727000D+00  0.100000D+01
  
 13  0
   s     4 1.00
  0.130100D+02  0.196850D-01
  0.196200D+01  0.137977D+00
  0.444600D+00  0.478148D+00
  0.122000D+00  0.501240D+00
   s     1 1.00
  0.122000D+00  0.100000D+01
   p     1 1.00
  0.727000D+00  0.100000D+01
  
 14  0
   s     4 1.00
  0.130100D+02  0.196850D-01
  0.196200D+01  0.137977D+00
  0.444600D+00  0.478148D+00
  0.122000D+00  0.501240D+00
   s     1 1.00
  0.122000D+00  0.100000D+01
   p     1 1.00
  0.727000D+00  0.100000D+01
  
[MO]
 Sym= __1_a__
 Ene=  0.000000000000000E+000
 Spin= Alpha
 Occup=    2.00000000000000     
                     1 -2.772297229282720E-004
                     2  0.998354198759366     
                     3 -2.704908700450060E-002
                     4  1.272690200135460E-003
                     5  5.461069158739080E-003
                     6  1.201960317685270E-002
                     7 -1.987043953484250E-003
                     8  1.961183402389070E-002
                     9 -1.539030522932270E-003
                    10  1.438754018019860E-004
                    11 -1.583426010193960E-003
                    12 -3.915185896741730E-003
                    13  5.305446660968850E-004
                    14 -5.408884519710920E-003
                    15  9.925689969274669E-005
                    16  2.841318739243620E-005
                    17 -2.829624122604570E-005
                    18  6.908904134715420E-005
                    19  7.362206887989910E-007
                    20  3.503895932189530E-004
                    21  7.952391265709280E-004
                    22 -7.478732388671909E-005
                    23  2.085076644667840E-004
                    24 -8.243186654417100E-005
                    25  5.132873103206820E-005
                    26 -4.936328275358459E-005
                    27  5.974866125876623E-006
                    28  4.066728660584660E-005
                    29  1.186654760695820E-005
                    30  6.444477327289721E-008
                    31 -5.997829413705294E-006
                    32 -3.341006317959320E-004
                    33  6.474269688152780E-004
                    34  2.795429210090470E-004
                    35  7.645278122297600E-005
                    36  1.034072565820350E-003
                    37  2.156798858461760E-004
                    38 -1.557289870149930E-003
                    39 -4.718407945338150E-004
                    40 -1.168689946422480E-004
                    41  8.654569769539230E-004
                    42  3.929761990279620E-003
                    43  3.758653053358930E-004
                    44 -2.194014117512730E-003
                    45  3.560972041136552E-005
                    46 -2.518106867502120E-004
                    47 -1.099428814743950E-005
                    48 -3.307193368485700E-005
                    49  2.814274414292600E-005
                    50  1.895152379728785E-004
                    51  3.926929432048590E-004
                    52 -1.015644330984140E-005
                    53 -1.466703070256228E-004
                    54 -5.534751202614470E-005
                    55  9.238163312383413E-005
                    56 -1.340329822243192E-005
                    57  7.886285369758679E-006
                    58  1.002805298850812E-004
                    59 -1.148787870072190E-006
                    60 -6.520206080400528E-005
                    61 -8.900566800758226E-006
                    62 -8.941002969060260E-004
                    63 -3.190828261111770E-004
                    64 -1.808568223600430E-004
                    65  3.320354027748410E-003
                    66 -3.440481993684700E-003
                    67 -2.330506076880320E-004
                    68  1.115080723937340E-003
                    69  8.021713735176570E-004
                    70 -6.228233505212680E-005
                    71  7.186650512162580E-004
                    72  1.625467527556750E-003
                    73  3.305527151255840E-004
                    74 -2.376783412048340E-003
                    75  9.623831820848069E-005
                    76 -9.728303497907230E-005
                    77 -2.757177614161550E-005
                    78  3.722913602254380E-005
                    79  1.386791562798900E-005
                    80  3.112751900905205E-004
                    81 -2.504528160442190E-004
                    82 -7.215526501194430E-005
                    83 -4.292254829155420E-006
                    84  2.987062570880720E-005
                    85 -2.995971479199303E-005
                    86 -1.902656241191778E-004
                    87 -1.773418214009871E-005
                    88  1.438508466921550E-005
                    89  2.615242064256340E-005
                    90 -7.534783836574011E-005
                    91  4.152237251049886E-006
                    92  1.167983888762670E-005
                    93 -5.119186279096420E-004
                    94  3.155751852706770E-004
                    95 -1.236837804868240E-003
                    96 -3.332849385538720E-004
                    97 -1.273403922703810E-004
                    98  9.871857905429089E-004
                    99  1.412087506147470E-004
                   100 -3.960433261984840E-005
                   101  3.668597320054000E-004
                   102 -1.908192283713990E-003
                   103 -5.051760184178890E-005
                   104 -4.230417393362690E-005
                   105 -2.727421231447120E-005
                   106 -2.845023785589300E-005
                   107  1.369379636236090E-006
                   108  2.881315851450680E-005
                   109  5.067620484341420E-006
                   110 -1.369743821519299E-004
                   111  2.105045067552830E-004
                   112  4.841875360562030E-005
                   113 -1.109518706715134E-004
                   114 -3.174012294221160E-005
                   115 -2.967067970312925E-005
                   116  3.458069204813436E-005
                   117 -6.756406136561190E-006
                   118 -5.859887087429480E-006
                   119 -5.841336712389890E-006
                   120  7.313027246362023E-006
                   121  1.965750085242584E-007
                   122 -3.232856457926970E-004
                   123 -1.990905840756660E-003
                   124  1.703290786402600E-004
                   125  7.243087498160059E-004
                   126  1.612594948927790E-003
                   127  7.082475761078580E-005
                   128 -2.003306533815570E-004
                   129  4.959581131855540E-004
                   130 -3.073030769835240E-005
                   131  3.790629973129530E-004
                   132  1.704348334365700E-003
                   133 -4.255897928603730E-005
                   134  7.735876438434210E-004
                   135  7.406474526867642E-005
                   136 -2.943971998989500E-005
                   137 -8.567812621397980E-006
                   138 -6.459348203521320E-005
                   139 -2.236756425756490E-007
                   140  2.507710811209462E-004
                   141  1.747860070419020E-004
                   142  1.091435088772410E-006
                   143 -3.993852164314820E-004
                   144 -4.412663027642780E-005
                   145 -1.671093941684387E-005
                   146 -4.735394029164446E-005
                   147 -8.213679486398859E-006
                   148  9.347922023192520E-006
                   149 -5.242856282396170E-006
                   150 -1.001982876538626E-004
                   151  7.383675438024801E-006
                   152 -1.544162305437700E-004
                   153 -4.509371186642310E-004
                   154 -5.611875147435110E-005
                   155  6.809329107497310E-004
                   156  4.077136730404790E-004
                   157  7.975586158067649E-006
                   158  3.269012758428360E-005
                   159 -2.918428473335410E-004
                   160 -1.496885072862310E-005
                   161  5.430883909529140E-005
                   162 -6.559301707947329E-004
                   163 -1.315290196138950E-004
                   164  9.435010846538550E-004
                   165 -6.117936044070400E-006
                   166 -1.238215026309290E-005
                   167 -9.866555887536620E-007
                   168  1.566221158423292E-005
                   169  2.392878045169790E-006
                   170 -4.520717237796688E-005
                   171  7.700011043723270E-005
                   172  1.800125912261920E-005
                   173 -5.144625357661780E-005
                   174 -1.224373096843670E-005
                   175 -7.662676287741964E-006
                   176 -1.417968653736523E-005
                   177 -9.538269348696961E-007
                   178 -9.190890394526220E-006
                   179  2.368775370683090E-006
                   180  1.370134568434322E-006
                   181  1.201604755725365E-006
                   182 -1.400623317006950E-004
                   183 -2.734827980900340E-004
                   184  3.199882810428480E-005
                   185  2.569065634399630E-004
                   186 -2.264826496756020E-004
                   187 -1.490839834700040E-007
                   188 -5.408747537098770E-005
                   189  1.535606159365880E-004
                   190 -4.394463170387640E-005
                   191  4.062989083390330E-004
                   192 -5.277285959068360E-004
                   193 -1.895085278861140E-004
                   194  1.461380999660230E-003
                   195  2.609945411626177E-005
                   196 -7.871615997056681E-006
                   197 -3.912953581875400E-006
                   198 -1.476087730960684E-005
                   199  9.208130505248850E-008
                   200 -5.693914520590908E-005
                   201 -2.846295280090510E-004
                   202  1.355368043906290E-006
                   203  1.684312660370986E-005
                   204  3.492315229426880E-005
                   205  1.599325536914313E-006
                   206  5.673831464353919E-006
                   207 -2.709244889717369E-006
                   208  1.714356160726654E-005
                   209 -8.212841766570230E-007
                   210 -5.262212750182299E-006
                   211 -2.071126824759640E-006
                   212 -9.119977025811380E-004
                   213  1.191964842059380E-003
                   214  1.192451780654890E-004
                   215 -2.598637754559900E-005
                   216  8.505133617962430E-005
                   217 -9.119975596183800E-004
                   218  1.191964714941530E-003
                   219  1.181366082793050E-004
                   220  1.208742597060480E-005
                   221  8.958834552525260E-005
                   222  1.137130975078740E-003
                   223 -1.576520072276870E-003
                   224 -5.080791138879630E-005
                   225 -1.727747683293080E-005
                   226  1.325755451664200E-004
                   227  8.092949659779830E-004
                   228 -4.735044756852610E-004
                   229 -8.062174363774040E-006
                   230  1.286497124665280E-005
                   231 -1.099302252617890E-004
                   232  8.493944454512360E-004
                   233 -3.092998363700320E-004
                   234 -4.303310130742980E-006
                   235 -6.098273021698270E-006
                   236  5.012467897788490E-005
                   237  3.771269029225040E-005
                   238 -4.958077039885100E-004
                   239 -1.339496613619950E-005
                   240 -1.152024005451600E-008
                   241 -3.176667494181200E-006
                   242 -3.528432470953500E-004
                   243  2.188035298731240E-004
                   244  4.001644699492750E-005
                   245  1.442209178806700E-006
                   246 -2.325434489299480E-006
 Sym= __2_a__
 Ene=  0.000000000000000E+000
 Spin= Alpha
 Occup=    2.00000000000000     
                     1 -2.423964455527200E-005
                     2 -8.669987308572070E-005
                     3  2.950160232998580E-004
                     4 -1.665549611794500E-005
                     5  9.365450144066160E-004
                     6  1.646462870005800E-003
                     7 -4.668860618519810E-005
                     8  7.940992257136420E-004
                     9 -1.419067719461790E-004
                    10  5.795494733264080E-006
                    11 -8.330829534311730E-005
                    12  1.313845812257950E-004
                    13  1.935191476186890E-005
                    14 -1.302962780289090E-004
                    15 -4.892893012575042E-005
                    16  2.902573660348660E-005
                    17  4.329091422469920E-006
                    18  5.603227449553060E-005
                    19 -2.110868458871040E-007
                    20  2.906084769157229E-005
                    21 -5.273560780426940E-005
                    22 -2.097500788895830E-005
                    23  1.099284960071586E-004
                    24  1.276904739677230E-005
                    25 -2.368518346628860E-005
                    26  1.222760514494914E-004
                    27  8.501809283523657E-006
                    28 -6.093637216111740E-005
                    29 -1.220957560973480E-005
                    30  1.001104297099053E-004
                    31  3.152608196483282E-007
                    32   1.00080702690804     
                    33  8.625211286145320E-003
                    34  2.837679967407570E-003
                    35 -8.433451467131181E-003
                    36 -1.449759370599090E-003
                    37 -4.485701094210250E-005
                    38  2.219985741955560E-005
                    39  6.374507832128191E-004
                    40  6.048662325352270E-005
                    41 -3.518399652379350E-004
                    42  2.521047750992330E-003
                    43  3.224944724669810E-005
                    44  3.453580691758490E-004
                    45  3.114825585011200E-004
                    46 -1.446916481407990E-006
                    47 -1.040814597779690E-004
                    48  3.206169275258840E-004
                    49  1.922014036396050E-005
                    50 -1.012396705337302E-003
                    51 -3.532149338499170E-004
                    52  2.139302486707190E-004
                    53 -1.035952492647998E-004
                    54  3.534529070155390E-005
                    55 -2.946630619327202E-005
                    56  2.553702917509346E-004
                    57  5.134863533301208E-006
                    58 -3.138980543584020E-005
                    59 -3.949967309338010E-005
                    60  7.574719113071610E-005
                    61 -1.715412051949743E-006
                    62  1.782246378323360E-002
                    63 -1.454717839162280E-003
                    64 -2.871835891730520E-004
                    65  2.774580447490090E-003
                    66 -3.062248444803040E-004
                    67 -5.700223403577840E-005
                    68  4.035315941674400E-004
                    69  1.704088124611050E-005
                    70 -3.742790978625870E-005
                    71  3.182534780813520E-004
                    72  2.162554221886720E-004
                    73  2.178659579730450E-004
                    74 -1.775459895574190E-003
                    75  1.002030659149936E-005
                    76  2.226745811832990E-005
                    77  3.979846570332120E-006
                    78 -4.468498873412700E-005
                    79 -5.273879850433380E-006
                    80 -5.449272922922595E-004
                    81 -3.670649608212520E-004
                    82  5.433264667207900E-006
                    83  8.065591442396220E-004
                    84  9.076728740415980E-005
                    85  3.517549383075349E-005
                    86  1.097073803998664E-004
                    87  1.977236734039355E-005
                    88 -2.863019394931060E-005
                    89 -2.671579204630190E-005
                    90 -2.615789249353620E-005
                    91  6.867170813378773E-006
                    92  1.884622609909870E-002
                    93 -1.766198833122370E-003
                    94 -3.340757482116590E-004
                    95  3.376330849848020E-003
                    96 -2.047991643567540E-004
                    97  2.850971095626690E-005
                    98 -2.892894054591430E-004
                    99 -1.133150667812250E-004
                   100  9.323674818518939E-005
                   101 -8.101169024170420E-004
                   102  2.924565322577290E-004
                   103 -1.679745292789760E-004
                   104  1.481077074899320E-003
                   105  3.262980253175115E-006
                   106 -1.801576540928330E-006
                   107  1.786323289410650E-006
                   108 -2.083976206146200E-005
                   109 -1.005916024086920E-006
                   110 -1.455286718412469E-004
                   111  5.140209773727560E-004
                   112 -2.771443794253180E-005
                   113  6.076774716807300E-004
                   114 -2.579211418050790E-005
                   115 -4.341853451076556E-005
                   116  8.559764517784347E-005
                   117 -1.401567790470342E-005
                   118  1.826421463977600E-005
                   119 -1.947312847623510E-005
                   120 -2.873927461359454E-005
                   121 -1.469453548085600E-007
                   122  3.931148182666900E-006
                   123 -7.101769702440070E-004
                   124  2.423109092316390E-004
                   125 -4.052223214486030E-004
                   126 -1.016369397907780E-004
                   127  3.200413495129200E-006
                   128 -5.169387236728920E-005
                   129  6.294436936003539E-004
                   130  1.191626077707450E-005
                   131  5.380487756894550E-005
                   132  3.448017192366650E-004
                   133 -4.030463621705790E-005
                   134  4.224828703087500E-004
                   135  1.781232513314485E-006
                   136  3.592392051765130E-005
                   137  5.407179362690310E-006
                   138 -3.884832086117340E-005
                   139 -6.567410365491120E-006
                   140  1.860297216778412E-004
                   141 -2.799642820694630E-004
                   142 -2.046491085100560E-005
                   143 -2.219090827865020E-004
                   144  2.052852648350780E-005
                   145 -9.989053350913609E-006
                   146  1.303429246538563E-005
                   147 -1.978183458460025E-006
                   148 -3.060369534457280E-006
                   149 -5.636381977096010E-006
                   150 -1.995841722587651E-005
                   151  2.222071002278636E-006
                   152  6.842046004485211E-005
                   153 -7.405030365872210E-004
                   154  2.279879736629130E-004
                   155 -1.271259936776950E-004
                   156 -1.372582585581410E-004
                   157 -7.806826985197810E-006
                   158  3.197764259698840E-005
                   159  4.796697561623360E-004
                   160  1.379309996482830E-005