===========================================================
===                   runc                              ===
===           version 7.0.2 , April 2021              ===
===          requires COLUMBUS version Col_7.0.2        ===
===                                                     ===
===   written by: Thomas Mueller                        ===
===   gradient ext. by: Michal Dallos                   ===
===               University of Vienna                  ===
===   maintained by: Felix Plasser                      ===
===               Loughborough University               ===
===========================================================


coremem. (seq.): 200000 MB,  coremem. (par.): 19000 MB
Vdisk size: 0 DP
Reading job control file control.run ... 
 ****** This is an 2c-QDPT MRCISD calculation ****** 
 model space size=4:0:4
SMOLCAS=/home-4/yshen57@jhu.edu/Software/Chemistry/Columbus-7.0.2_OpenMolcas-18.09-col/OpenMolcas/build
Found serial Molcas Installation at /home-4/yshen57@jhu.edu/Software/Chemistry/Columbus-7.0.2_OpenMolcas-18.09-col/OpenMolcas/build
  done 
INFO: keywords nadcoupl and seward are supported for DCI mode only!
seward specified, using also alaska
Creating various directories ... 
 done 
SMOLCAS=/home-4/yshen57@jhu.edu/Software/Chemistry/Columbus-7.0.2_OpenMolcas-18.09-col/OpenMolcas/build
PMOLCAS=
Checking for illegal keywords and keyword combinations ... done 

 Nonadiabatic coupling term calculation type: DCI+DCSF
  States involved in calcualtion:
   DRT1,state1;  DRT1,state2
   DRT1,state1;  DRT1,state3
   DRT1,state1;  DRT1,state4
   DRT1,state2;  DRT1,state3
   DRT1,state2;  DRT1,state4
   DRT1,state3;  DRT1,state4
   DRT2,state1;  DRT2,state2
   DRT2,state1;  DRT2,state3
   DRT2,state1;  DRT2,state4
   DRT2,state2;  DRT2,state3
   DRT2,state2;  DRT2,state4
   DRT2,state3;  DRT2,state4

Additional gradients computed:
   DRT1,state1
   DRT1,state2
   DRT1,state3
   DRT1,state4
   DRT2,state1
   DRT2,state2
   DRT2,state3
   DRT2,state4

Checking for complete set of input files ... 
mcscf calculation without preceeding scf calculation 
will use 
 /scratch/users/yshen57@jhu.edu/Molcas/slow/0.7/mrci/mocoef as starting MOs 
Performing coupled non-rel. SO-CI calculation, nrroots: 4 0 4
starting cidrt.x   -m 200000 < cidrtin > temp at Sun May 22 16:23:26 EDT 2022

 -------------------- cidrt.x ------------------------
 spatial symmetry:  
 total number of configurations          0
 number of reference configurations     0
 --------------------------------------------------- 
 Preparing SO cidrtin files for 1 symmetries
cat ../cidrtin | sed -e 's/^.*input the molecular spatial symmetry/1 \/ molsym/' > cidrtin.so_A 
calling cidrt.x -m 200000 < cidrtin.so_A > cidrtls.soci_A ...
Checking the DRTs for consistency ...
calling reindex.x -i 1 -m 200000  ...
done

 ++++++++++++++++++ input file generation +++++++++++++ 
 runc start: Sun May 22 16:23:44 EDT 2022
 
  runc start: Sun May 22 16:23:44 EDT 2022
 
 starting unik.gets.x > unikls at Sun May 22 16:23:44 EDT 2022

 -------------------- unik.gets.x ------------------------
 --------------------------------------------------- 
 ++++++++++++++++++++ ao integral calculation ++++++++++++++++
starting pymolcas molcas.input.seward > molcas.output.seward  at Sun May 22 16:23:44 EDT 2022

Generating link ln -s ./molcas.OrdInt ORDINT 
 -------------------- seward ------------------------
      Basis set label: N.ANILINE.........
      Basis set label: C.ANILINE.........
      Basis set label: H.ANILINE.........
  Nuclear Coordinates in                   atomic units                                   Angstrom 
     Center  Label                x              y              z                     x              y              z
        1      N1              -4.403612       0.064480      -0.022399             -2.330291       0.034121      -0.011853
        2      C2              -1.776726       0.004202       0.009311             -0.940203       0.002223       0.004927
        3      C3              -0.428656       0.015330      -2.264404             -0.226835       0.008112      -1.198271
        4      C4              -0.423906      -0.002151       2.273347             -0.224321      -0.001138       1.203003
        5      C5               2.184620       0.008644      -2.252957              1.156051       0.004574      -1.192213
        6      C6               2.192565      -0.003749       2.255443              1.160255      -0.001984       1.193529
        7      C7               3.518228      -0.002881       0.000059              1.861766      -0.001524       0.000031
        8      H8              -5.026442      -0.340794      -1.116774             -2.659878      -0.180341      -0.590972
        9      H9              -5.223699      -0.374668       1.638925             -2.764263      -0.198266       0.867282
       10      H10             -1.433095       0.041667      -4.026068             -0.758361       0.022049      -2.130503
       11      H11             -1.421799       0.002914       4.039639             -0.752384       0.001542       2.137685
       12      H12              3.183260       0.012854      -4.019529              1.684509       0.006802      -2.127043
       13      H13              3.193967      -0.010169       4.020397              1.690175      -0.005381       2.127502
       14      H14              5.545804      -0.006694      -0.003460              2.934713      -0.003542      -0.001831
 
            Nuclear Potential Energy            274.97040835 au
 --------------------------------------------------- 
  >>>>>>>>>>>>> info: preparing drt no 1 out of 1 <<<<<<
starting mcdrt.x -m 200000 < mcdrtin > mcdrtls at Sun May 22 16:29:30 EDT 2022

 -------------------- mcdrt.x ------------------------
  Spin multiplicity: singlet 
  Spatial symmetry (#): 1
  Number of Configurations:       1275 
  --------------------------------------------------- 
 starting mcuft.x at Sun May 22 16:29:30 EDT 2022

 -------------------- mcuft.x ------------------------
 --------------------------------------------------- 
 ++++++++++++++++++++ MCSCF calculation +++++++++++++++
info: taking mocoef file from /scratch/users/yshen57@jhu.edu/Molcas/slow/0.7/mrci/mocoef
adding flag 30 to mcscfin
Writing mcdenin files for mcscf.x for 1 DRTs
adding flag 26 to mcscfin
starting mcscf.x -m 200000 at Sun May 22 16:29:30 EDT 2022

 -------------------- mcscf.x ------------------------
 Individual total energies for all states: 
    DRT #1 state # 1 wt 0.250 total energy=     -285.737868568, rel. (eV)=   0.000000
    DRT #1 state # 2 wt 0.250 total energy=     -285.526982406, rel. (eV)=   5.738507
    DRT #1 state # 3 wt 0.250 total energy=     -285.508820656, rel. (eV)=   6.232713
    DRT #1 state # 4 wt 0.250 total energy=     -285.470961937, rel. (eV)=   7.262902
  --------------------------------------------------- 
 starting mcpc.x -m 200000 < mcpcin > mcpcls at Sun May 22 16:32:31 EDT 2022

 -------------------- mcpc.x ------------------------
 --------------------------------------------------- 
 starting mcpc.x -m 200000 < mcpcin > mcpcls at Sun May 22 16:32:31 EDT 2022

 -------------------- mcpc.x ------------------------
 --------------------------------------------------- 
 starting mcpc.x -m 200000 < mcpcin > mcpcls at Sun May 22 16:32:32 EDT 2022

 -------------------- mcpc.x ------------------------
 --------------------------------------------------- 
 starting mcpc.x -m 200000 < mcpcin > mcpcls at Sun May 22 16:32:32 EDT 2022

 -------------------- mcpc.x ------------------------
 --------------------------------------------------- 
 
========= state properties for state-averaged MCSCF =========
mcscf.drt1.st01.sp
starting exptvl.x -m 200000   at Sun May 22 16:32:32 EDT 2022

 -------------------- exptvl.x ------------------------
  === dipole moment === 
                     X               Y               Z   
   orign x       0.00000000      0.00000000      0.00000000
   orign y       0.00000000      0.00000000      0.00000000
   orign z       0.00000000      0.00000000      0.00000000
   nuclear      -0.41053108     -0.10716754      0.50113548
   electronic   -0.17796422     -0.19142076     -0.39425361
   total        -0.58849530     -0.29858830      0.10688187
   total Dipole moment =   1.69918426    Debye
 --------------------------------------------------- 
 mcscf.drt1.st02.sp
starting exptvl.x -m 200000   at Sun May 22 16:32:32 EDT 2022

 -------------------- exptvl.x ------------------------
  === dipole moment === 
                     X               Y               Z   
   orign x       0.00000000      0.00000000      0.00000000
   orign y       0.00000000      0.00000000      0.00000000
   orign z       0.00000000      0.00000000      0.00000000
   nuclear      -0.41053108     -0.10716754      0.50113548
   electronic    4.26837474     -0.16238178     -0.39080570
   total         3.85784366     -0.26954932      0.11032978
   total Dipole moment =   9.83357562    Debye
 --------------------------------------------------- 
 mcscf.drt1.st03.sp
starting exptvl.x -m 200000   at Sun May 22 16:32:32 EDT 2022

 -------------------- exptvl.x ------------------------
  === dipole moment === 
                     X               Y               Z   
   orign x       0.00000000      0.00000000      0.00000000
   orign y       0.00000000      0.00000000      0.00000000
   orign z       0.00000000      0.00000000      0.00000000
   nuclear      -0.41053108     -0.10716754      0.50113548
   electronic   -0.53802182     -0.15544605     -0.39446759
   total        -0.94855290     -0.26261359      0.10666789
   total Dipole moment =   2.51632706    Debye
 --------------------------------------------------- 
 mcscf.drt1.st04.sp
starting exptvl.x -m 200000   at Sun May 22 16:32:32 EDT 2022

 -------------------- exptvl.x ------------------------
  === dipole moment === 
                     X               Y               Z   
   orign x       0.00000000      0.00000000      0.00000000
   orign y       0.00000000      0.00000000      0.00000000
   orign z       0.00000000      0.00000000      0.00000000
   nuclear      -0.41053108     -0.10716754      0.50113548
   electronic    5.20680491     -0.21001040     -0.40950926
   total         4.79627383     -0.31717794      0.09162622
   total Dipole moment =  12.21977121    Debye
 --------------------------------------------------- 
  using the MCSCF MOs ... 
starting cidrt.x  -m 200000 < cidrtin.1 > cidrtls at Sun May 22 16:32:33 EDT 2022

 -------------------- cidrt.x ------------------------
 total number of orbitals            :   246
 number of frozen core orbitals      :    18
 number of frozen virtual orbitals   :     0
 number of internal orbitals         :    14
 number of external orbitals         :   214
 spatial symmetry:   a  
 
 total number of configurations  158587185
 number of reference configurations  1275
 --------------------------------------------------- 
 starting cidrt.x  -m 200000 < cidrtin.2 > cidrtls at Sun May 22 16:32:34 EDT 2022

 -------------------- cidrt.x ------------------------
 total number of orbitals            :   246
 number of frozen core orbitals      :    18
 number of frozen virtual orbitals   :     0
 number of internal orbitals         :    14
 number of external orbitals         :   214
 spatial symmetry:   a  
 
 total number of configurations  282461366
 number of reference configurations  1666
 --------------------------------------------------- 
 starting tran.x -m 200000  at Sun May 22 16:32:39 EDT 2022

 -------------------- tran.x ------------------------
 --------------------------------------------------- 
  Starting ciudgav with DRT # 1 out of 2 

 *** starting pciudg section *** 
nproc: 48 machinefile:  
assuming machinefile syntax: one host name per line optionally repeated
 section2, MPI_STARTUP:
 /software/apps/mpi/openmpi/3.1/intel/18.0/bin/mpirun -np 48  /home-4/yshen57@jhu.edu/Software/Chemistry/Columbus-7.0.2_OpenMolcas-18.09-col/Columbus/pciudg.x -m 19000 
 -------------------- pciudg.x ------------------------
 type of calculation:          mr-sdci
 number of configurations:     158587185
 total mr-sdci energy             -285.9335873330 
 last mr-sdci energy change           0.0000000000 
 residual                             0.0000062165 
  type of calculation:          mr-sdci
 number of configurations:     158587185
 total mr-sdci energy             -285.7542171178 
 last mr-sdci energy change           0.0000000000 
 residual                             0.0000071813 
  type of calculation:          mr-sdci
 number of configurations:     158587185
 total mr-sdci energy             -285.7466150743 
 last mr-sdci energy change           0.0000000000 
 residual                             0.0000074873 
  type of calculation:          mr-sdci
 number of configurations:     158587185
 total mr-sdci energy             -285.6983768757 
 last mr-sdci energy change           0.0000000000 
 residual                             0.0000073871 
  --------------------------------------------------- 
 keyinfile returned docipci=0:
starting cipc.x -m 200000 < cipcin > cipcls at Mon May 23 09:30:22 EDT 2022

 -------------------- cipc.x ------------------------
 --------------------------------------------------- 
  Starting ciudgav with DRT # 2 out of 2 

 *** starting pciudg section *** 
nproc: 48 machinefile:  
assuming machinefile syntax: one host name per line optionally repeated
 section2, MPI_STARTUP:
 /software/apps/mpi/openmpi/3.1/intel/18.0/bin/mpirun -np 48  /home-4/yshen57@jhu.edu/Software/Chemistry/Columbus-7.0.2_OpenMolcas-18.09-col/Columbus/pciudg.x -m 19000 
 -------------------- pciudg.x ------------------------
 type of calculation:          mr-sdci
 number of configurations:     282461366
 total mr-sdci energy             -285.7770582603 
 last mr-sdci energy change           0.0000000000 
 residual                             0.0000078861 
  type of calculation:          mr-sdci
 number of configurations:     282461366
 total mr-sdci energy             -285.7614446747 
 last mr-sdci energy change           0.0000000000 
 residual                             0.0000080700 
  type of calculation:          mr-sdci
 number of configurations:     282461366
 total mr-sdci energy             -285.7560164210 
 last mr-sdci energy change           0.0000000000 
 residual                             0.0000072994 
  type of calculation:          mr-sdci
 number of configurations:     282461366
 total mr-sdci energy             -285.7496101226 
 last mr-sdci energy change           0.0000000000 
 residual                             0.0000080488 
  --------------------------------------------------- 
 keyinfile returned docipci=0:
starting cipc.x -m 200000 < cipcin > cipcls at Tue May 24 23:22:02 EDT 2022

 -------------------- cipc.x ------------------------
 --------------------------------------------------- 
 Reindex call
run_socinr: imult=1 irrep=1 
opening file =ciudgls.drt1.sp
opening file =ciudgls.drt1.sp
opening file =ciudgls.drt1.sp
opening file =ciudgls.drt1.sp
run_socinr: imult=3 irrep=1 
opening file =ciudgls.drt2.sp
opening file =ciudgls.drt2.sp
opening file =ciudgls.drt2.sp
opening file =ciudgls.drt2.sp
 copying /scratch/users/yshen57@jhu.edu/Molcas/slow/0.7/mrci/cidrtfl.so__A --> cidrtfl.so__A 
 copying /scratch/users/yshen57@jhu.edu/Molcas/slow/0.7/mrci/cidrtfl.so__A --> cidrtfl.so__A 
starting reindex.x -m 200000 > reindexls at Tue May 24 23:22:28 EDT 2022

 -------------------- reindex.x ------------------------
 --------------------------------------------------- 
 1      1        1           civfl_1_A             1      1    0+       1             1         civfl.so__A
1      1        2           civfl_1_A             1      1    0+       2    1005971284         civfl.so__A
1      1        3           civfl_1_A             1      1    0+       3    2011942567         civfl.so__A
1      1        4           civfl_1_A             1      1    0+       4    3017913850         civfl.so__A
3      1        1           civfl_3_A             1      3    0+       5    4023885133         civfl.so__A
3      1        1           civfl_3_A             1      3    1+       6    5029856416         civfl.so__A
3      1        1           civfl_3_A             1      3    1-       7    6035827699         civfl.so__A
3      1        2           civfl_3_A             1      3    0+       8    7041798982         civfl.so__A
3      1        2           civfl_3_A             1      3    1+       9    8047770265         civfl.so__A
3      1        2           civfl_3_A             1      3    1-      10    9053741548         civfl.so__A
3      1        3           civfl_3_A             1      3    0+      11   10059712831         civfl.so__A
3      1        3           civfl_3_A             1      3    1+      12   11065684114         civfl.so__A
3      1        3           civfl_3_A             1      3    1-      13   12071655397         civfl.so__A
3      1        4           civfl_3_A             1      3    0+      14   13077626680         civfl.so__A
3      1        4           civfl_3_A             1      3    1+      15   14083597963         civfl.so__A
3      1        4           civfl_3_A             1      3    1-      16   15089569246         civfl.so__A
 Executing ciudg.x  for gamma =A ...

 *** starting pciudg section *** 
nproc: 48 machinefile:  
assuming machinefile syntax: one host name per line optionally repeated
 section2, MPI_STARTUP:
 /software/apps/mpi/openmpi/3.1/intel/18.0/bin/mpirun -np 48  /home-4/yshen57@jhu.edu/Software/Chemistry/Columbus-7.0.2_OpenMolcas-18.09-col/Columbus/pciudg.x -m 19000 
 -------------------- pciudg.x ------------------------
 type of calculation:          mr-sdci
 number of configurations:     1005971283
 total mr-sdci energy             -285.9335873349 
 last mr-sdci energy change           0.0000000019 
 residual                            37.4270000000 
  type of calculation:          mr-sdci
 number of configurations:     1005971283
 total mr-sdci energy             -285.7770582642 
 last mr-sdci energy change           0.0228410000 
 residual                            37.2710000000 
  type of calculation:          mr-sdci
 number of configurations:     1005971283
 total mr-sdci energy             -285.7770582641 
 last mr-sdci energy change           0.0304430000 
 residual                            37.2710000000 
  type of calculation:          mr-sdci
 number of configurations:     1005971283
 total mr-sdci energy             -285.7770582633 
 last mr-sdci energy change           0.0786810000 
 residual                            37.2710000000 
  type of calculation:          mr-sdci
 number of configurations:     1005971283
 total mr-sdci energy             -285.7614446758 
 last mr-sdci energy change          -0.0156140000 
 residual                            37.2550000000 
  type of calculation:          mr-sdci
 number of configurations:     1005971283
 total mr-sdci energy             -285.7614446755 
 last mr-sdci energy change          -0.0156140000 
 residual                            37.2550000000 
  type of calculation:          mr-sdci
 number of configurations:     1005971283
 total mr-sdci energy             -285.7614446751 
 last mr-sdci energy change          -0.0156140000 
 residual                            37.2550000000 
  type of calculation:          mr-sdci
 number of configurations:     1005971283
 total mr-sdci energy             -285.7560164205 
 last mr-sdci energy change          -0.0054283000 
 residual                            37.2500000000 
  type of calculation:          mr-sdci
 number of configurations:     1005971283
 total mr-sdci energy             -285.7560164197 
 last mr-sdci energy change          -0.0054283000 
 residual                            37.2500000000 
  type of calculation:          mr-sdci
 number of configurations:     1005971283
 total mr-sdci energy             -285.7560164188 
 last mr-sdci energy change          -0.0054283000 
 residual                            37.2500000000 
  type of calculation:          mr-sdci
 number of configurations:     1005971283
 total mr-sdci energy             -285.7542171180 
 last mr-sdci energy change          -0.0017993000 
 residual                            37.2480000000 
  type of calculation:          mr-sdci
 number of configurations:     1005971283
 total mr-sdci energy             -285.7496101195 
 last mr-sdci energy change          -0.0064063000 
 residual                            37.2430000000 
  type of calculation:          mr-sdci
 number of configurations:     1005971283
 total mr-sdci energy             -285.7496101193 
 last mr-sdci energy change          -0.0064063000 
 residual                            37.2430000000 
  type of calculation:          mr-sdci
 number of configurations:     1005971283
 total mr-sdci energy             -285.7496101189 
 last mr-sdci energy change          -0.0000000037 
 residual                            37.2430000000 
  type of calculation:          mr-sdci
 number of configurations:     1005971283
 total mr-sdci energy             -285.7466150737 
 last mr-sdci energy change          -0.0029950000 
 residual                            37.2400000000 
  type of calculation:          mr-sdci
 number of configurations:     1005971283
 total mr-sdci energy             -285.6983768753 
 last mr-sdci energy change          -0.0512330000 
 residual                            37.1920000000 
  --------------------------------------------------- 
 ************* Results for Spin-Orbit CI gamma=A **************** 
Final spin-orbit CI state energies: 


-------------- HT matrix in AU ----------------  
-37.427380    
 0.000000    -37.248010    
 0.000000     0.000000    -37.240408    
 0.000000     0.000000     0.000000    -37.192170    
 0.000000     0.000007     0.000000    -0.000000    -37.270851    
-0.000000     0.000001    -0.000000    -0.000000    -0.000000    -37.270851    
-0.000001     0.000004    -0.000002     0.000001     0.000000     0.000000    -37.270851    
 0.000001     0.000000     0.000000    -0.000004     0.000000    -0.000001     0.000000    -37.255238    
 0.000001     0.000000     0.000000    -0.000000     0.000001     0.000000    -0.000001     0.000000    -37.255238    
 0.000004    -0.000002    -0.000000    -0.000002    -0.000000     0.000001     0.000000    -0.000000     0.000000    -37.255238    
-0.000013     0.000000    -0.000000    -0.000000     0.000000     0.000004    -0.000001     0.000000    -0.000002    -0.000000    -37.249809    
-0.000002    -0.000000    -0.000000    -0.000000    -0.000004     0.000000     0.000008     0.000002     0.000000     0.000000     0.000000    -37.249809    
-0.000012    -0.000000     0.000002    -0.000001     0.000001    -0.000008     0.000000     0.000000    -0.000000     0.000000    -0.000000     0.000000    -37.249809    
-0.000001     0.000003     0.000000     0.000000     0.000000     0.000001    -0.000000     0.000000     0.000001    -0.000000     0.000000    -0.000002     0.000000    -37.243403    
-0.000000     0.000000     0.000000     0.000000    -0.000001     0.000000     0.000001    -0.000001     0.000000     0.000000     0.000002     0.000000    -0.000004    -0.000000    -37.243403    
-0.000002     0.000002     0.000000    -0.000001     0.000000    -0.000001     0.000000     0.000000    -0.000000     0.000000    -0.000000     0.000004     0.000000    -0.000000     0.000000    -37.243403    
-------------- HT matrix in eV ---------------- 
-1018.451   
    0.000   -1013.570   
    0.000       0.000   -1013.363   
    0.000       0.000       0.000   -1012.050   
    0.000       0.000       0.000      -0.000   -1014.191   
   -0.000       0.000      -0.000      -0.000      -0.000   -1014.191   
   -0.000       0.000      -0.000       0.000       0.000       0.000   -1014.191   
    0.000       0.000       0.000      -0.000       0.000      -0.000       0.000   -1013.767   
    0.000       0.000       0.000      -0.000       0.000       0.000      -0.000       0.000   -1013.767   
    0.000      -0.000      -0.000      -0.000      -0.000       0.000       0.000      -0.000       0.000   -1013.767   
   -0.000       0.000      -0.000      -0.000       0.000       0.000      -0.000       0.000      -0.000      -0.000   -1013.619   
   -0.000      -0.000      -0.000      -0.000      -0.000       0.000       0.000       0.000       0.000       0.000       0.000   -1013.619   
   -0.000      -0.000       0.000      -0.000       0.000      -0.000       0.000       0.000      -0.000       0.000      -0.000       0.000   -1013.619   
   -0.000       0.000       0.000       0.000       0.000       0.000      -0.000       0.000       0.000      -0.000       0.000      -0.000       0.000   -1013.445   
   -0.000       0.000       0.000       0.000      -0.000       0.000       0.000      -0.000       0.000       0.000       0.000       0.000      -0.000      -0.000   -1013.445   
   -0.000       0.000       0.000      -0.000       0.000      -0.000       0.000       0.000      -0.000       0.000      -0.000       0.000       0.000      -0.000       0.000   -1013.445   
-------------- HT matrix in cm-1 ------------------- 
Eref = -37.42738039
     0.00   
     0.00    39367.28   
     0.00        0.00    41035.74   
     0.00        0.00        0.00    51622.82   
     0.01        1.54        0.05       -0.07    34354.22   
    -0.04        0.12       -0.04       -0.01        0.00    34354.22   
    -0.27        0.94       -0.40        0.32        0.00        0.00    34354.22   
     0.19        0.05        0.04       -0.87        0.00       -0.19        0.01    37781.01   
     0.12        0.05        0.00       -0.08        0.19        0.00       -0.11        0.00    37781.01   
     0.79       -0.37       -0.05       -0.52       -0.01        0.11        0.00        0.00        0.00    37781.01   
    -2.84        0.04       -0.07       -0.06        0.00        0.95       -0.13        0.00       -0.41       -0.05    38972.38   
    -0.50        0.00       -0.05       -0.02       -0.95        0.00        1.69        0.41        0.00        0.05        0.00    38972.38   
    -2.56       -0.01        0.41       -0.14        0.13       -1.69        0.00        0.05       -0.05        0.00        0.00        0.00    38972.38   
    -0.25        0.75        0.01        0.11        0.00        0.16       -0.02        0.00        0.32       -0.05        0.00       -0.48        0.06    40378.40   
    -0.09        0.05        0.00        0.04       -0.16        0.00        0.16       -0.32        0.00        0.05        0.48        0.00       -0.84        0.00    40378.40   
    -0.50        0.47        0.10       -0.27        0.02       -0.16        0.00        0.05       -0.05        0.00       -0.06        0.84        0.00        0.00        0.00    40378.40   


Spin-Orbit CI: perturbational estimate of Spin-Orbit CI energies and wavefunctions 
                SO   1         SO   2         SO   3         SO   4         SO   5         SO   6         SO   7         SO   8

   energy  -285.93358733  -285.77705826  -285.77705826  -285.77705826  -285.76144468  -285.76144468  -285.76144468  -285.75601642
 
   NR   1    -0.99999999    -0.00000729    -0.00000058    -0.00000284     0.00000936    -0.00000233     0.00001953     0.00001846
   NR   2     0.00000000    -0.00005320    -0.00000078    -0.00035675     0.00001437     0.00003713     0.00023632    -0.00006400
   NR   3     0.00000000     0.00005921     0.00000165     0.00001611    -0.00000961     0.00000058     0.00001700     0.00018885
   NR   4     0.00000000    -0.00001878     0.00000202    -0.00000357     0.00006963    -0.00000136     0.00002327    -0.00000648
   NR   5     0.00000025    -0.39037760    -0.02498845     0.92031558     0.00000225    -0.00005415    -0.00000330    -0.00006203
   NR   6    -0.00000121     0.06737261     0.99617593     0.05562619    -0.00004601    -0.00000212     0.00004339     0.00041133
   NR   7    -0.00000775     0.91818630    -0.08371929     0.38720127     0.00000207     0.00003290    -0.00000119     0.00005567
   NR   8     0.00000491    -0.00000012     0.00005430     0.00000141     0.97630359     0.05206266    -0.21004911     0.00003087
   NR   9     0.00000311     0.00005120    -0.00000140    -0.00003717     0.05583290    -0.99836727     0.01205530    -0.00013443
   NR  10     0.00002100    -0.00000382    -0.00003271     0.00000196     0.20907854     0.02349729     0.97761648    -0.00001226
   NR  11    -0.00007281     0.00001113    -0.00020699    -0.00000090     0.00002789    -0.00034552     0.00004394     0.48321496
   NR  12    -0.00001296    -0.00041534     0.00002541     0.00004780    -0.00034693    -0.00001901     0.00003489     0.18868592
   NR  13    -0.00006561     0.00003519     0.00036426    -0.00000473    -0.00003745    -0.00004094     0.00000907    -0.85492703
   NR  14    -0.00000616     0.00000137    -0.00002634    -0.00000007    -0.00000336     0.00012542     0.00001573     0.00009981
   NR  15    -0.00000222    -0.00003410     0.00000160     0.00001399     0.00011841     0.00000613    -0.00004420    -0.00067492
   NR  16    -0.00001231     0.00000316     0.00002600    -0.00000170    -0.00001614    -0.00001919     0.00000389    -0.00009250

                SO   9         SO  10         SO  11         SO  12         SO  13         SO  14         SO  15         SO  16

   energy  -285.75601642  -285.75601642  -285.75421712  -285.74961012  -285.74961012  -285.74961012  -285.74661507  -285.69837688
 
   NR   1     0.00000779     0.00009681     0.00000000    -0.00000731     0.00000126     0.00001180     0.00000001     0.00000000
   NR   2     0.00003220     0.00006968    -0.99999951     0.00000908    -0.00000639    -0.00088067    -0.00000003     0.00000000
   NR   3     0.00000686     0.00006810    -0.00000007    -0.00011612    -0.00000600     0.00009446    -0.99999997    -0.00000000
   NR   4     0.00000003    -0.00000992     0.00000001     0.00002529     0.00000478    -0.00000433    -0.00000001     1.00000000
   NR   5    -0.00019438     0.00003657    -0.00030753     0.00000169     0.00002632    -0.00000062    -0.00000834    -0.00000400
   NR   6    -0.00007631     0.00002048    -0.00002421    -0.00003585    -0.00000132    -0.00000861     0.00000661    -0.00000054
   NR   7     0.00035536    -0.00006759    -0.00018691     0.00000314    -0.00002602     0.00000138     0.00006048     0.00001880
   NR   8     0.00033132    -0.00010645    -0.00003367     0.00000972     0.00012609    -0.00000255    -0.00001292    -0.00006302
   NR   9     0.00010561     0.00030451    -0.00003329    -0.00008142     0.00000174    -0.00009688    -0.00000091    -0.00000552
   NR  10     0.00004947     0.00002377     0.00023490     0.00001011    -0.00001865     0.00001419     0.00001462    -0.00003728
   NR  11    -0.30817056    -0.81947173    -0.00009796    -0.00001998    -0.00034493     0.00000300     0.00003334    -0.00000499
   NR  12     0.95066314    -0.24624469     0.00000141     0.00068631     0.00003081    -0.00002037     0.00002528    -0.00000125
   NR  13     0.03563359    -0.51752245     0.00001980    -0.00004728     0.00059507    -0.00000279    -0.00019645    -0.00001068
   NR  14     0.00032466    -0.00006335     0.00074372    -0.52615563     0.02304498    -0.85007558    -0.00001932     0.00000952
   NR  15     0.00012696    -0.00002707     0.00005417     0.04321430    -0.99761637    -0.05379225    -0.00000424     0.00000343
   NR  16    -0.00057881     0.00011307     0.00046868     0.84928928     0.06503854    -0.52390563    -0.00014852    -0.00002406
rescaling new expansion vector ... old norm=   4867.2912683515

 model space basis from reindexls .. 
 --SO-CI-------         -----NR-CI-------             ---model space---- 
 Gamma  root             S   irrep   root                S   ms* 
A          1             1   A         1                 1   0+
A          2             1   A         2                 1   0+
A          3             1   A         3                 1   0+
A          4             1   A         4                 1   0+
A          5             3   A         1                 3   0+
A          6             3   A         1                 3   1+
A          7             3   A         1                 3   1-
A          8             3   A         2                 3   0+
A          9             3   A         2                 3   1+
A         10             3   A         2                 3   1-
A         11             3   A         3                 3   0+
A         12             3   A         3                 3   1+
A         13             3   A         3                 3   1-
A         14             3   A         4                 3   0+
A         15             3   A         4                 3   1+
A         16             3   A         4                 3   1-

************************** SUMMARY *********************************

--------------  SO matrix for irrep A in eV ---------------- 
|1,0+;1,A,1> -1018.451   
|1,0+;1,A,2>     0.000   -1013.570   
|1,0+;1,A,3>     0.000       0.000   -1013.363   
|1,0+;1,A,4>     0.000       0.000       0.000   -1012.050   
|3,0+;3,A,1>     0.000       0.000       0.000      -0.000   -1014.191   
|3,1+;3,A,1>    -0.000       0.000      -0.000      -0.000      -0.000   -1014.191   
|3,1-;3,A,1>    -0.000       0.000      -0.000       0.000       0.000       0.000   -1014.191   
|3,0+;3,A,2>     0.000       0.000       0.000      -0.000       0.000      -0.000       0.000   -1013.767   
|3,1+;3,A,2>     0.000       0.000       0.000      -0.000       0.000       0.000      -0.000       0.000   -1013.767   
|3,1-;3,A,2>     0.000      -0.000      -0.000      -0.000      -0.000       0.000       0.000      -0.000       0.000   -1013.767   
|3,0+;3,A,3>    -0.000       0.000      -0.000      -0.000       0.000       0.000      -0.000       0.000      -0.000      -0.000   -1013.619   
|3,1+;3,A,3>    -0.000      -0.000      -0.000      -0.000      -0.000       0.000       0.000       0.000       0.000       0.000       0.000   -1013.619   
|3,1-;3,A,3>    -0.000      -0.000       0.000      -0.000       0.000      -0.000       0.000       0.000      -0.000       0.000      -0.000       0.000   -1013.619   
|3,0+;3,A,4>    -0.000       0.000       0.000       0.000       0.000       0.000      -0.000       0.000       0.000      -0.000       0.000      -0.000       0.000   -1013.445   
|3,1+;3,A,4>    -0.000       0.000       0.000       0.000      -0.000       0.000       0.000      -0.000       0.000       0.000       0.000       0.000      -0.000      -0.000   -1013.445   
|3,1-;3,A,4>    -0.000       0.000       0.000      -0.000       0.000      -0.000       0.000       0.000      -0.000       0.000      -0.000       0.000       0.000      -0.000       0.000   -1013.445   

--------------  SO matrix for irrep A in cm-1 ------------------- 
Eref = -37.42738039
|1,0+;1,A,1>      0.00   
|1,0+;1,A,2>      0.00    39367.28   
|1,0+;1,A,3>      0.00        0.00    41035.74   
|1,0+;1,A,4>      0.00        0.00        0.00    51622.82   
|3,0+;3,A,1>      0.01        1.54        0.05       -0.07    34354.22   
|3,1+;3,A,1>     -0.04        0.12       -0.04       -0.01        0.00    34354.22   
|3,1-;3,A,1>     -0.27        0.94       -0.40        0.32        0.00        0.00    34354.22   
|3,0+;3,A,2>      0.19        0.05        0.04       -0.87        0.00       -0.19        0.01    37781.01   
|3,1+;3,A,2>      0.12        0.05        0.00       -0.08        0.19        0.00       -0.11        0.00    37781.01   
|3,1-;3,A,2>      0.79       -0.37       -0.05       -0.52       -0.01        0.11        0.00        0.00        0.00    37781.01   
|3,0+;3,A,3>     -2.84        0.04       -0.07       -0.06        0.00        0.95       -0.13        0.00       -0.41       -0.05    38972.38   
|3,1+;3,A,3>     -0.50        0.00       -0.05       -0.02       -0.95        0.00        1.69        0.41        0.00        0.05        0.00    38972.38   
|3,1-;3,A,3>     -2.56       -0.01        0.41       -0.14        0.13       -1.69        0.00        0.05       -0.05        0.00        0.00        0.00    38972.38   
|3,0+;3,A,4>     -0.25        0.75        0.01        0.11        0.00        0.16       -0.02        0.00        0.32       -0.05        0.00       -0.48        0.06    40378.40   
|3,1+;3,A,4>     -0.09        0.05        0.00        0.04       -0.16        0.00        0.16       -0.32        0.00        0.05        0.48        0.00       -0.84        0.00    40378.40   
|3,1-;3,A,4>     -0.50        0.47        0.10       -0.27        0.02       -0.16        0.00        0.05       -0.05        0.00       -0.06        0.84        0.00        0.00        0.00    40378.40   


 ** perturbational estimate of Spin-Orbit CI energies and wavefunctions in model space basis** 

                      A  1         A  2         A  3         A  4         A  5         A  6         A  7         A  8

            energy  -285.93358733  -285.77705826  -285.77705826  -285.77705826  -285.76144468  -285.76144468  -285.76144468  -285.75601642
          
   |1,0+;1,A,1>    -0.99999999    -0.00000729    -0.00000058    -0.00000284     0.00000936    -0.00000233     0.00001953     0.00001846
   |1,0+;1,A,2>     0.00000000    -0.00005320    -0.00000078    -0.00035675     0.00001437     0.00003713     0.00023632    -0.00006400
   |1,0+;1,A,3>     0.00000000     0.00005921     0.00000165     0.00001611    -0.00000961     0.00000058     0.00001700     0.00018885
   |1,0+;1,A,4>     0.00000000    -0.00001878     0.00000202    -0.00000357     0.00006963    -0.00000136     0.00002327    -0.00000648
   |3,0+;3,A,1>     0.00000025    -0.39037760    -0.02498845     0.92031558     0.00000225    -0.00005415    -0.00000330    -0.00006203
   |3,1+;3,A,1>    -0.00000121     0.06737261     0.99617593     0.05562619    -0.00004601    -0.00000212     0.00004339     0.00041133
   |3,1-;3,A,1>    -0.00000775     0.91818630    -0.08371929     0.38720127     0.00000207     0.00003290    -0.00000119     0.00005567
   |3,0+;3,A,2>     0.00000491    -0.00000012     0.00005430     0.00000141     0.97630359     0.05206266    -0.21004911     0.00003087
   |3,1+;3,A,2>     0.00000311     0.00005120    -0.00000140    -0.00003717     0.05583290    -0.99836727     0.01205530    -0.00013443
   |3,1-;3,A,2>     0.00002100    -0.00000382    -0.00003271     0.00000196     0.20907854     0.02349729     0.97761648    -0.00001226
   |3,0+;3,A,3>    -0.00007281     0.00001113    -0.00020699    -0.00000090     0.00002789    -0.00034552     0.00004394     0.48321496
   |3,1+;3,A,3>    -0.00001296    -0.00041534     0.00002541     0.00004780    -0.00034693    -0.00001901     0.00003489     0.18868592
   |3,1-;3,A,3>    -0.00006561     0.00003519     0.00036426    -0.00000473    -0.00003745    -0.00004094     0.00000907    -0.85492703
   |3,0+;3,A,4>    -0.00000616     0.00000137    -0.00002634    -0.00000007    -0.00000336     0.00012542     0.00001573     0.00009981
   |3,1+;3,A,4>    -0.00000222    -0.00003410     0.00000160     0.00001399     0.00011841     0.00000613    -0.00004420    -0.00067492
   |3,1-;3,A,4>    -0.00001231     0.00000316     0.00002600    -0.00000170    -0.00001614    -0.00001919     0.00000389    -0.00009250

                      A  9         A 10         A 11         A 12         A 13         A 14         A 15         A 16

            energy  -285.75601642  -285.75601642  -285.75421712  -285.74961012  -285.74961012  -285.74961012  -285.74661507  -285.69837688
          
   |1,0+;1,A,1>     0.00000779     0.00009681     0.00000000    -0.00000731     0.00000126     0.00001180     0.00000001     0.00000000
   |1,0+;1,A,2>     0.00003220     0.00006968    -0.99999951     0.00000908    -0.00000639    -0.00088067    -0.00000003     0.00000000
   |1,0+;1,A,3>     0.00000686     0.00006810    -0.00000007    -0.00011612    -0.00000600     0.00009446    -0.99999997    -0.00000000
   |1,0+;1,A,4>     0.00000003    -0.00000992     0.00000001     0.00002529     0.00000478    -0.00000433    -0.00000001     1.00000000
   |3,0+;3,A,1>    -0.00019438     0.00003657    -0.00030753     0.00000169     0.00002632    -0.00000062    -0.00000834    -0.00000400
   |3,1+;3,A,1>    -0.00007631     0.00002048    -0.00002421    -0.00003585    -0.00000132    -0.00000861     0.00000661    -0.00000054
   |3,1-;3,A,1>     0.00035536    -0.00006759    -0.00018691     0.00000314    -0.00002602     0.00000138     0.00006048     0.00001880
   |3,0+;3,A,2>     0.00033132    -0.00010645    -0.00003367     0.00000972     0.00012609    -0.00000255    -0.00001292    -0.00006302
   |3,1+;3,A,2>     0.00010561     0.00030451    -0.00003329    -0.00008142     0.00000174    -0.00009688    -0.00000091    -0.00000552
   |3,1-;3,A,2>     0.00004947     0.00002377     0.00023490     0.00001011    -0.00001865     0.00001419     0.00001462    -0.00003728
   |3,0+;3,A,3>    -0.30817056    -0.81947173    -0.00009796    -0.00001998    -0.00034493     0.00000300     0.00003334    -0.00000499
   |3,1+;3,A,3>     0.95066314    -0.24624469     0.00000141     0.00068631     0.00003081    -0.00002037     0.00002528    -0.00000125
   |3,1-;3,A,3>     0.03563359    -0.51752245     0.00001980    -0.00004728     0.00059507    -0.00000279    -0.00019645    -0.00001068
   |3,0+;3,A,4>     0.00032466    -0.00006335     0.00074372    -0.52615563     0.02304498    -0.85007558    -0.00001932     0.00000952
   |3,1+;3,A,4>     0.00012696    -0.00002707     0.00005417     0.04321430    -0.99761637    -0.05379225    -0.00000424     0.00000343
   |3,1-;3,A,4>    -0.00057881     0.00011307     0.00046868     0.84928928     0.06503854    -0.52390563    -0.00014852    -0.00002406
rescaling new expansion vector ... old norm=   4867.2912683515

Sorted Energies:
1  -285.93358733 
2  -285.77705826 
3  -285.77705826 
4  -285.77705826 
5  -285.76144468 
6  -285.76144468 
7  -285.76144468 
8  -285.75601642 
9  -285.75601642 
10  -285.75601642 
11  -285.75421712 
12  -285.74961012 
13  -285.74961012 
14  -285.74961012 
15  -285.74661507 
16  -285.69837688 
Not computing transition moment with identical bra and ket.
 Calculating transition moment for (1,1) => (1,2)
 starting transci.x -m 200000 at Wed May 25 01:15:09 EDT 2022

 -------------------- transci.x ------------------------

                          State No. 1            State No. 2

   Space symmetry:           a                      a   
   No. of CSFs:          ********               ********
   State energies:      -285.93358733          -285.75421712  a.u.

   Transition energy:     0.17937022  a.u.
   Transition energy:     4.88        eV

       Transition moment components:

                 x            y            z

electron          0.134666    -0.000000     0.016349  e*bohr
frozen core       0.000000     0.000000     0.000000  e*bohr
total (elec)      0.134666    -0.000000     0.016349  e*bohr


   Tr.dipole length:     0.135655    e*bohr
   Oscillator strength :  0.002201
   Einstein A coef.:     0.2275E+07  1/sec
   Einstein B coef.:     0.7468E+07  sec/g

                 x            y            z

<L> electron     0.045532     0.075173     0.249235  e*bohr


   <L> value length:     0.264277    e*bohr
 --------------------------------------------------- 
  Calculating transition moment for (1,1) => (1,3)
 starting transci.x -m 200000 at Wed May 25 01:17:23 EDT 2022

 -------------------- transci.x ------------------------

                          State No. 1            State No. 2

   Space symmetry:           a                      a   
   No. of CSFs:          ********               ********
   State energies:      -285.93358733          -285.74661507  a.u.

   Transition energy:     0.18697226  a.u.
   Transition energy:     5.09        eV

       Transition moment components:

                 x            y            z

electron          0.018398     0.001940     0.438775  e*bohr
frozen core       0.000000     0.000000     0.000000  e*bohr
total (elec)      0.018398     0.001940     0.438775  e*bohr


   Tr.dipole length:     0.439164    e*bohr
   Oscillator strength :  0.024040
   Einstein A coef.:     0.2700E+08  1/sec
   Einstein B coef.:     0.7827E+08  sec/g

                 x            y            z

<L> electron     0.004636    -0.551531     0.002998  e*bohr


   <L> value length:     0.551559    e*bohr
 --------------------------------------------------- 
  Calculating transition moment for (1,1) => (1,4)
 starting transci.x -m 200000 at Wed May 25 01:19:34 EDT 2022

 -------------------- transci.x ------------------------

                          State No. 1            State No. 2

   Space symmetry:           a                      a   
   No. of CSFs:          ********               ********
   State energies:      -285.93358733          -285.69837688  a.u.

   Transition energy:     0.23521046  a.u.
   Transition energy:     6.40        eV

       Transition moment components:

                 x            y            z

electron         -0.010074     0.000612     0.048955  e*bohr
frozen core       0.000000     0.000000     0.000000  e*bohr
total (elec)     -0.010074     0.000612     0.048955  e*bohr


   Tr.dipole length:     0.049984    e*bohr
   Oscillator strength :  0.000392
   Einstein A coef.:     0.6963E+06  1/sec
   Einstein B coef.:     0.1014E+07  sec/g

                 x            y            z

<L> electron    -0.474830    -0.032879    -0.000796  e*bohr


   <L> value length:     0.475968    e*bohr
 --------------------------------------------------- 
 Not computing transition moment with identical bra and ket.
 Calculating transition moment for (1,2) => (1,3)
 starting transci.x -m 200000 at Wed May 25 01:21:52 EDT 2022

 -------------------- transci.x ------------------------

                          State No. 1            State No. 2

   Space symmetry:           a                      a   
   No. of CSFs:          ********               ********
   State energies:      -285.75421712          -285.74661507  a.u.

   Transition energy:     0.00760204  a.u.
   Transition energy:     0.21        eV

       Transition moment components:

                 x            y            z

electron         -0.196500     0.001862    -0.008948  e*bohr
frozen core       0.000000     0.000000     0.000000  e*bohr
total (elec)     -0.196500     0.001862    -0.008948  e*bohr


   Tr.dipole length:     0.196712    e*bohr
   Oscillator strength :  0.000196
   Einstein A coef.:     0.3641E+03  1/sec
   Einstein B coef.:     0.1570E+08  sec/g

                 x            y            z

<L> electron     0.126091    -0.077502     0.005315  e*bohr


   <L> value length:     0.148100    e*bohr
 --------------------------------------------------- 
  Calculating transition moment for (1,2) => (1,4)
 starting transci.x -m 200000 at Wed May 25 01:24:05 EDT 2022

 -------------------- transci.x ------------------------

                          State No. 1            State No. 2

   Space symmetry:           a                      a   
   No. of CSFs:          ********               ********
   State energies:      -285.75421712          -285.69837688  a.u.

   Transition energy:     0.05584024  a.u.
   Transition energy:     1.52        eV

       Transition moment components:

                 x            y            z

electron         -0.000718    -0.002180    -0.174110  e*bohr
frozen core       0.000000     0.000000     0.000000  e*bohr
total (elec)     -0.000718    -0.002180    -0.174110  e*bohr


   Tr.dipole length:     0.174125    e*bohr
   Oscillator strength :  0.001129
   Einstein A coef.:     0.1131E+06  1/sec
   Einstein B coef.:     0.1230E+08  sec/g

                 x            y            z

<L> electron    -0.010507     0.633562    -0.004756  e*bohr


   <L> value length:     0.633667    e*bohr
 --------------------------------------------------- 
 Not computing transition moment with identical bra and ket.
 Calculating transition moment for (1,3) => (1,4)
 starting transci.x -m 200000 at Wed May 25 01:26:16 EDT 2022

 -------------------- transci.x ------------------------

                          State No. 1            State No. 2

   Space symmetry:           a                      a   
   No. of CSFs:          ********               ********
   State energies:      -285.74661507          -285.69837688  a.u.

   Transition energy:     0.04823820  a.u.
   Transition energy:     1.31        eV

       Transition moment components:

                 x            y            z

electron          0.149761     0.000232     0.008048  e*bohr
frozen core       0.000000     0.000000     0.000000  e*bohr
total (elec)      0.149761     0.000232     0.008048  e*bohr


   Tr.dipole length:     0.149977    e*bohr
   Oscillator strength :  0.000723
   Einstein A coef.:     0.5408E+05  1/sec
   Einstein B coef.:     0.9128E+07  sec/g

                 x            y            z

<L> electron     0.011660     0.013460     0.106764  e*bohr


   <L> value length:     0.108239    e*bohr
 --------------------------------------------------- 
 Not computing transition moment with identical bra and ket.
Not computing transition moment with identical bra and ket.
 Calculating transition moment for (2,1) => (2,2)
 starting transci.x -m 200000 at Wed May 25 01:28:25 EDT 2022

 -------------------- transci.x ------------------------

                          State No. 1            State No. 2

   Space symmetry:           a                      a   
   No. of CSFs:          ********               ********
   State energies:      -285.77705826          -285.76144467  a.u.

   Transition energy:     0.01561359  a.u.
   Transition energy:     0.42        eV

       Transition moment components:

                 x            y            z

electron          0.009425     0.002738     0.238567  e*bohr
frozen core       0.000000     0.000000     0.000000  e*bohr
total (elec)      0.009425     0.002738     0.238567  e*bohr


   Tr.dipole length:     0.238769    e*bohr
   Oscillator strength :  0.000593
   Einstein A coef.:     0.4648E+04  1/sec
   Einstein B coef.:     0.2314E+08  sec/g

                 x            y            z

<L> electron    -0.014476     1.082367    -0.005609  e*bohr


   <L> value length:     1.082478    e*bohr
 --------------------------------------------------- 
  Calculating transition moment for (2,1) => (2,3)
 starting transci.x -m 200000 at Wed May 25 01:32:32 EDT 2022

 -------------------- transci.x ------------------------

                          State No. 1            State No. 2

   Space symmetry:           a                      a   
   No. of CSFs:          ********               ********
   State energies:      -285.77705826          -285.75601642  a.u.

   Transition energy:     0.02104184  a.u.
   Transition energy:     0.57        eV

       Transition moment components:

                 x            y            z

electron          0.185310    -0.030326     0.040568  e*bohr
frozen core       0.000000     0.000000     0.000000  e*bohr
total (elec)      0.185310    -0.030326     0.040568  e*bohr


   Tr.dipole length:     0.192107    e*bohr
   Oscillator strength :  0.000518
   Einstein A coef.:     0.7364E+04  1/sec
   Einstein B coef.:     0.1498E+08  sec/g

                 x            y            z

<L> electron     0.012689     0.068870     0.119390  e*bohr


   <L> value length:     0.138413    e*bohr
 --------------------------------------------------- 
  Calculating transition moment for (2,1) => (2,4)
 starting transci.x -m 200000 at Wed May 25 01:36:41 EDT 2022

 -------------------- transci.x ------------------------

                          State No. 1            State No. 2

   Space symmetry:           a                      a   
   No. of CSFs:          ********               ********
   State energies:      -285.77705826          -285.74961012  a.u.

   Transition energy:     0.02744814  a.u.
   Transition energy:     0.75        eV

       Transition moment components:

                 x            y            z

electron          0.184896    -0.005972     0.001687  e*bohr
frozen core       0.000000     0.000000     0.000000  e*bohr
total (elec)      0.184896    -0.005972     0.001687  e*bohr


   Tr.dipole length:     0.185000    e*bohr
   Oscillator strength :  0.000626
   Einstein A coef.:     0.1516E+05  1/sec
   Einstein B coef.:     0.1389E+08  sec/g

                 x            y            z

<L> electron     0.001670     0.007456     0.014599  e*bohr


   <L> value length:     0.016478    e*bohr
 --------------------------------------------------- 
 Not computing transition moment with identical bra and ket.
 Calculating transition moment for (2,2) => (2,3)
 starting transci.x -m 200000 at Wed May 25 01:40:47 EDT 2022

 -------------------- transci.x ------------------------

                          State No. 1            State No. 2

   Space symmetry:           a                      a   
   No. of CSFs:          ********               ********
   State energies:      -285.76144467          -285.75601642  a.u.

   Transition energy:     0.00542825  a.u.
   Transition energy:     0.15        eV

       Transition moment components:

                 x            y            z

electron          0.224897     0.006887    -0.010897  e*bohr
frozen core       0.000000     0.000000     0.000000  e*bohr
total (elec)      0.224897     0.006887    -0.010897  e*bohr


   Tr.dipole length:     0.225267    e*bohr
   Oscillator strength :  0.000184
   Einstein A coef.:     0.1738E+03  1/sec
   Einstein B coef.:     0.2059E+08  sec/g

                 x            y            z

<L> electron    -0.100353    -0.012252    -0.008038  e*bohr


   <L> value length:     0.101417    e*bohr
 --------------------------------------------------- 
  Calculating transition moment for (2,2) => (2,4)
 starting transci.x -m 200000 at Wed May 25 01:44:50 EDT 2022

 -------------------- transci.x ------------------------

                          State No. 1            State No. 2

   Space symmetry:           a                      a   
   No. of CSFs:          ********               ********
   State energies:      -285.76144467          -285.74961012  a.u.

   Transition energy:     0.01183455  a.u.
   Transition energy:     0.32        eV

       Transition moment components:

                 x            y            z

electron          0.015456     0.002990    -0.065309  e*bohr
frozen core       0.000000     0.000000     0.000000  e*bohr
total (elec)      0.015456     0.002990    -0.065309  e*bohr


   Tr.dipole length:     0.067179    e*bohr
   Oscillator strength :  0.000036
   Einstein A coef.:     0.1602E+03  1/sec
   Einstein B coef.:     0.1831E+07  sec/g

                 x            y            z

<L> electron    -0.008805    -0.444334     0.002630  e*bohr


   <L> value length:     0.444429    e*bohr
 --------------------------------------------------- 
 Not computing transition moment with identical bra and ket.
 Calculating transition moment for (2,3) => (2,4)
 starting transci.x -m 200000 at Wed May 25 01:49:01 EDT 2022

 -------------------- transci.x ------------------------

                          State No. 1            State No. 2

   Space symmetry:           a                      a   
   No. of CSFs:          ********               ********
   State energies:      -285.75601642          -285.74961012  a.u.

   Transition energy:     0.00640630  a.u.
   Transition energy:     0.17        eV

       Transition moment components:

                 x            y            z

electron         -0.305173    -0.048837     0.016680  e*bohr
frozen core       0.000000     0.000000     0.000000  e*bohr
total (elec)     -0.305173    -0.048837     0.016680  e*bohr


   Tr.dipole length:     0.309506    e*bohr
   Oscillator strength :  0.000409
   Einstein A coef.:     0.5394E+03  1/sec
   Einstein B coef.:     0.3888E+08  sec/g

                 x            y            z

<L> electron    -0.008291    -0.032494    -0.055871  e*bohr


   <L> value length:     0.065162    e*bohr
 --------------------------------------------------- 
 Not computing transition moment with identical bra and ket.
 --- ci properties for state 1 of  DRT 1 ----
starting exptvl.x -m 200000  at Wed May 25 01:53:04 EDT 2022

 -------------------- exptvl.x ------------------------
  === dipole moment === 
                     X               Y               Z   
   orign x       0.00000000      0.00000000      0.00000000
   orign y       0.00000000      0.00000000      0.00000000
   orign z       0.00000000      0.00000000      0.00000000
   nuclear      -0.41053108     -0.10716754      0.50113548
   electronic   -0.07576251     -0.16725871     -0.42510738
   total        -0.48629359     -0.27442625      0.07602810
   total Dipole moment =   1.43236406    Debye
 !timer: exptvl required                 cpu_time=     0.192 walltime=     0.771
 --------------------------------------------------- 
  --- ci properties for state 2 of  DRT 1 ----
starting exptvl.x -m 200000  at Wed May 25 01:53:05 EDT 2022

 -------------------- exptvl.x ------------------------
  === dipole moment === 
                     X               Y               Z   
   orign x       0.00000000      0.00000000      0.00000000
   orign y       0.00000000      0.00000000      0.00000000
   orign z       0.00000000      0.00000000      0.00000000
   nuclear      -0.41053108     -0.10716754      0.50113548
   electronic    3.95961299     -0.12264495     -0.41752315
   total         3.54908191     -0.22981249      0.08361233
   total Dipole moment =   9.04226525    Debye
 --------------------------------------------------- 
  --- ci properties for state 3 of  DRT 1 ----
starting exptvl.x -m 200000  at Wed May 25 01:53:06 EDT 2022

 -------------------- exptvl.x ------------------------
  === dipole moment === 
                     X               Y               Z   
   orign x       0.00000000      0.00000000      0.00000000
   orign y       0.00000000      0.00000000      0.00000000
   orign z       0.00000000      0.00000000      0.00000000
   nuclear      -0.41053108     -0.10716754      0.50113548
   electronic   -0.39753070     -0.14772604     -0.41074423
   total        -0.80806178     -0.25489358      0.09039125
   total Dipole moment =   2.16587018    Debye
 --------------------------------------------------- 
  --- ci properties for state 4 of  DRT 1 ----
starting exptvl.x -m 200000  at Wed May 25 01:53:06 EDT 2022

 -------------------- exptvl.x ------------------------
  === dipole moment === 
                     X               Y               Z   
   orign x       0.00000000      0.00000000      0.00000000
   orign y       0.00000000      0.00000000      0.00000000
   orign z       0.00000000      0.00000000      0.00000000
   nuclear      -0.41053108     -0.10716754      0.50113548
   electronic    4.95876884     -0.19983017     -0.41575543
   total         4.54823776     -0.30699771      0.08538005
   total Dipole moment =  11.58881575    Debye
 --------------------------------------------------- 
  --- ci properties for state 1 of  DRT 2 ----
starting exptvl.x -m 200000  at Wed May 25 01:53:06 EDT 2022

 -------------------- exptvl.x ------------------------
  === dipole moment === 
                     X               Y               Z   
   orign x       0.00000000      0.00000000      0.00000000
   orign y       0.00000000      0.00000000      0.00000000
   orign z       0.00000000      0.00000000      0.00000000
   nuclear      -0.41053108     -0.10716754      0.50113548
   electronic   -0.15701379     -0.15900140     -0.44011226
   total        -0.56754487     -0.26616894      0.06102322
   total Dipole moment =   1.60085179    Debye
 --------------------------------------------------- 
  --- ci properties for state 2 of  DRT 2 ----
starting exptvl.x -m 200000  at Wed May 25 01:53:07 EDT 2022

 -------------------- exptvl.x ------------------------
  === dipole moment === 
                     X               Y               Z   
   orign x       0.00000000      0.00000000      0.00000000
   orign y       0.00000000      0.00000000      0.00000000
   orign z       0.00000000      0.00000000      0.00000000
   nuclear      -0.41053108     -0.10716754      0.50113548
   electronic   -0.62945541     -0.14441288     -0.39550315
   total        -1.03998649     -0.25158042      0.10563233
   total Dipole moment =   2.73285042    Debye
 --------------------------------------------------- 
  --- ci properties for state 3 of  DRT 2 ----
starting exptvl.x -m 200000  at Wed May 25 01:53:07 EDT 2022

 -------------------- exptvl.x ------------------------
  === dipole moment === 
                     X               Y               Z   
   orign x       0.00000000      0.00000000      0.00000000
   orign y       0.00000000      0.00000000      0.00000000
   orign z       0.00000000      0.00000000      0.00000000
   nuclear      -0.41053108     -0.10716754      0.50113548
   electronic    3.88768300     -0.11470331     -0.43444899
   total         3.47715192     -0.22187085      0.06668649
   total Dipole moment =   8.85764307    Debye
 --------------------------------------------------- 
  --- ci properties for state 4 of  DRT 2 ----
starting exptvl.x -m 200000  at Wed May 25 01:53:08 EDT 2022

 -------------------- exptvl.x ------------------------
  === dipole moment === 
                     X               Y               Z   
   orign x       0.00000000      0.00000000      0.00000000
   orign y       0.00000000      0.00000000      0.00000000
   orign z       0.00000000      0.00000000      0.00000000
   nuclear      -0.41053108     -0.10716754      0.50113548
   electronic   -0.31266134     -0.15158647     -0.42565047
   total        -0.72319242     -0.25875401      0.07548501
   total Dipole moment =   1.96169497    Debye
 --------------------------------------------------- 
 starting mo_convert.x at Wed May 25 01:53:08 EDT 2022

 -------------------- mo_convert.x ------------------------
 --------------------------------------------------- 
 starting pymolcas molcas.input.molden > molcas.output.molden at Wed May 25 01:53:09 EDT 2022

Generating link ln -s ./molcas.OrdInt ORDINT 
 -------------------- molden ------------------------
 --------------------------------------------------- 
 starting mo_convert.x at Wed May 25 01:53:37 EDT 2022

 -------------------- mo_convert.x ------------------------
 --------------------------------------------------- 
 starting pymolcas molcas.input.molden > molcas.output.molden at Wed May 25 01:53:37 EDT 2022

Generating link ln -s ./molcas.OrdInt ORDINT 
 -------------------- molden ------------------------
 --------------------------------------------------- 
 starting mo_convert.x at Wed May 25 01:54:04 EDT 2022

 -------------------- mo_convert.x ------------------------
 --------------------------------------------------- 
 starting pymolcas molcas.input.molden > molcas.output.molden at Wed May 25 01:54:05 EDT 2022

Generating link ln -s ./molcas.OrdInt ORDINT 
 -------------------- molden ------------------------
 --------------------------------------------------- 
 starting mo_convert.x at Wed May 25 01:54:26 EDT 2022

 -------------------- mo_convert.x ------------------------
 --------------------------------------------------- 
 starting pymolcas molcas.input.molden > molcas.output.molden at Wed May 25 01:54:26 EDT 2022

Generating link ln -s ./molcas.OrdInt ORDINT 
 -------------------- molden ------------------------
 --------------------------------------------------- 
 starting mo_convert.x at Wed May 25 01:54:48 EDT 2022

 -------------------- mo_convert.x ------------------------
 --------------------------------------------------- 
 starting pymolcas molcas.input.molden > molcas.output.molden at Wed May 25 01:54:48 EDT 2022

Generating link ln -s ./molcas.OrdInt ORDINT 
 -------------------- molden ------------------------
 --------------------------------------------------- 
 starting mo_convert.x at Wed May 25 01:55:08 EDT 2022

 -------------------- mo_convert.x ------------------------
 --------------------------------------------------- 
 starting pymolcas molcas.input.molden > molcas.output.molden at Wed May 25 01:55:09 EDT 2022

Generating link ln -s ./molcas.OrdInt ORDINT 
 -------------------- molden ------------------------
 --------------------------------------------------- 
 starting mo_convert.x at Wed May 25 01:55:29 EDT 2022

 -------------------- mo_convert.x ------------------------
 --------------------------------------------------- 
 starting pymolcas molcas.input.molden > molcas.output.molden at Wed May 25 01:55:30 EDT 2022

Generating link ln -s ./molcas.OrdInt ORDINT 
 -------------------- molden ------------------------
 --------------------------------------------------- 
 starting mo_convert.x at Wed May 25 01:55:50 EDT 2022

 -------------------- mo_convert.x ------------------------
 --------------------------------------------------- 
 starting pymolcas molcas.input.molden > molcas.output.molden at Wed May 25 01:55:51 EDT 2022

Generating link ln -s ./molcas.OrdInt ORDINT 
 -------------------- molden ------------------------
 --------------------------------------------------- 
 starting mo_convert.x at Wed May 25 01:56:12 EDT 2022

 -------------------- mo_convert.x ------------------------
 --------------------------------------------------- 
 starting pymolcas molcas.input.molden > molcas.output.molden at Wed May 25 01:56:12 EDT 2022

Generating link ln -s ./molcas.OrdInt ORDINT 
 -------------------- molden ------------------------
 --------------------------------------------------- 
 starting mo_convert.x at Wed May 25 01:56:33 EDT 2022

 -------------------- mo_convert.x ------------------------
 --------------------------------------------------- 
 starting pymolcas molcas.input.molden > molcas.output.molden at Wed May 25 01:56:34 EDT 2022

Generating link ln -s ./molcas.OrdInt ORDINT 
 -------------------- molden ------------------------
 --------------------------------------------------- 
 starting mo_convert.x at Wed May 25 01:56:55 EDT 2022

 -------------------- mo_convert.x ------------------------
 --------------------------------------------------- 
 starting pymolcas molcas.input.molden > molcas.output.molden at Wed May 25 01:56:55 EDT 2022

Generating link ln -s ./molcas.OrdInt ORDINT 
 -------------------- molden ------------------------
 --------------------------------------------------- 
 starting mo_convert.x at Wed May 25 01:57:16 EDT 2022

 -------------------- mo_convert.x ------------------------
 --------------------------------------------------- 
 starting pymolcas molcas.input.molden > molcas.output.molden at Wed May 25 01:57:16 EDT 2022

Generating link ln -s ./molcas.OrdInt ORDINT 
 -------------------- molden ------------------------
 --------------------------------------------------- 
 starting mo_convert.x at Wed May 25 01:57:37 EDT 2022

 -------------------- mo_convert.x ------------------------
 --------------------------------------------------- 
 starting pymolcas molcas.input.molden > molcas.output.molden at Wed May 25 01:57:37 EDT 2022

Generating link ln -s ./molcas.OrdInt ORDINT 
 -------------------- molden ------------------------
 --------------------------------------------------- 
 starting mo_convert.x at Wed May 25 01:57:58 EDT 2022

 -------------------- mo_convert.x ------------------------
 --------------------------------------------------- 
 starting pymolcas molcas.input.molden > molcas.output.molden at Wed May 25 01:57:58 EDT 2022

Generating link ln -s ./molcas.OrdInt ORDINT 
 -------------------- molden ------------------------
 --------------------------------------------------- 
 

 +++++++++++ STARTING GRADIENTS AND NAD. COUPLINGS CALCULATION +++++++++++ 

 Using new transition density code ... 
INFO: this is a frozen core gradient calculation
starting cidrt.x  -m 200000 < cidrtin.cigrd > cidrtls.cigrd at Wed May 25 01:58:20 EDT 2022

 -------------------- cidrt.x ------------------------
 total number of orbitals            :   246
 number of frozen core orbitals      :    18
 number of frozen virtual orbitals   :     0
 number of internal orbitals         :    14
 number of external orbitals         :   214
 spatial symmetry:   a  
 
 total number of configurations  282461366
 number of reference configurations  1666
 --------------------------------------------------- 
 starting tran.x -m 200000  at Wed May 25 01:58:27 EDT 2022

 -------------------- tran.x ------------------------
 --------------------------------------------------- 
 ---- Computing 8 gradient(s)  ----

 --- Computing gradient for DRT:1, State; 1

starting cigrd.x -m 200000 at Wed May 25 02:06:42 EDT 2022

 -------------------- cigrd.x ------------------------
 Total energy (ciudg) :  -285.933587333162 
  Effective energy     :  -285.933587348895 
  Delta E              :     0.000000015733 
  --------------------------------------------------- 
 starting tran.x -m 200000  at Wed May 25 02:18:02 EDT 2022

 -------------------- tran.x ------------------------
 --------------------------------------------------- 
 starting pymolcas molcas.input.alaska > molcas.output.alaska  at Wed May 25 02:25:12 EDT 2022

Generating link ln -s ./molcas.OrdInt ORDINT 
 -------------------- alaska ------------------------
 --------------------------------------------------- 
 cartesian gradient by alaska (MOLCAS)

 === Gradient of DRT 1, state 1 === 
  -0.391471D+00  -0.254727D+00  -0.687855D+00
   0.125688D-04  -0.378614D-05  -0.131313D-04
   0.856151D-05  -0.161276D-04  -0.118416D-04
  -0.153278D-04  -0.147742D-04   0.123766D-04
  -0.218786D-04   0.480163D-04   0.431569D-04
  -0.162707D-04   0.526988D-04  -0.326004D-04
   0.733712D-04  -0.672655D-04  -0.124077D-04
   0.391457D+00   0.254730D+00   0.687856D+00
   0.151369D-04  -0.232884D-06   0.482775D-05
   0.966834D-06   0.629645D-06   0.215119D-05
   0.150068D-05  -0.159519D-05   0.205786D-05
  -0.208522D-04   0.505293D-06  -0.135120D-04
  -0.219194D-04  -0.102194D-05   0.132154D-04
  -0.221454D-05   0.678424D-06   0.521373D-05
===================================
 --- Computing gradient for DRT:1, State; 2

starting cigrd.x -m 200000 at Wed May 25 02:26:34 EDT 2022

 -------------------- cigrd.x ------------------------
 Total energy (ciudg) :  -285.754217117977 
  Effective energy     :  -285.754217134134 
  Delta E              :     0.000000016157 
  --------------------------------------------------- 
 starting tran.x -m 200000  at Wed May 25 02:40:31 EDT 2022

 -------------------- tran.x ------------------------
 --------------------------------------------------- 
 starting pymolcas molcas.input.alaska > molcas.output.alaska  at Wed May 25 02:47:40 EDT 2022

Generating link ln -s ./molcas.OrdInt ORDINT 
 -------------------- alaska ------------------------
 --------------------------------------------------- 
 cartesian gradient by alaska (MOLCAS)

 === Gradient of DRT 1, state 2 === 
  -0.468137D+00  -0.226813D+00  -0.694020D+00
   0.615272D-01  -0.679638D-02   0.444698D-02
  -0.245841D-01  -0.163373D-02   0.284583D-01
  -0.242493D-01  -0.178823D-02  -0.293088D-01
   0.200029D-01   0.172291D-03   0.141301D-01
   0.216953D-01  -0.279480D-05  -0.146697D-01
  -0.197759D-02   0.352948D-03   0.945300D-03
   0.403260D+00   0.242520D+00   0.703404D+00
   0.107007D-01  -0.638781D-02  -0.129905D-01
  -0.891316D-03   0.460839D-03  -0.307426D-02
  -0.105505D-02  -0.225012D-03   0.290384D-02
   0.152079D-02  -0.161582D-04  -0.129972D-02
   0.161126D-02   0.173551D-03   0.108184D-02
   0.576190D-03  -0.166770D-04  -0.735396D-05
===================================
 --- Computing gradient for DRT:1, State; 3

starting cigrd.x -m 200000 at Wed May 25 02:49:04 EDT 2022

 -------------------- cigrd.x ------------------------
 Total energy (ciudg) :  -285.746615074546 
  Effective energy     :  -285.746615091900 
  Delta E              :     0.000000017354 
  --------------------------------------------------- 
 starting tran.x -m 200000  at Wed May 25 02:59:55 EDT 2022

 -------------------- tran.x ------------------------
 --------------------------------------------------- 
 starting pymolcas molcas.input.alaska > molcas.output.alaska  at Wed May 25 03:07:15 EDT 2022

Generating link ln -s ./molcas.OrdInt ORDINT 
 -------------------- alaska ------------------------
 --------------------------------------------------- 
 cartesian gradient by alaska (MOLCAS)

 === Gradient of DRT 1, state 3 === 
  -0.407992D+00  -0.248088D+00  -0.690442D+00
   0.247893D-01  -0.571860D-03   0.192217D-02
   0.302337D-01   0.503437D-03   0.296532D-01
   0.277064D-01  -0.165593D-02  -0.314416D-01
  -0.278261D-01  -0.637788D-03   0.280541D-01
  -0.252457D-01   0.674511D-03  -0.291749D-01
  -0.153077D-01   0.274964D-03   0.138933D-02
   0.393030D+00   0.251386D+00   0.691669D+00
   0.285174D-03  -0.150715D-02  -0.152899D-02
  -0.299261D-03  -0.329671D-03  -0.103785D-02
  -0.323907D-03  -0.111813D-03   0.967648D-03
   0.294659D-03   0.751935D-04  -0.131679D-02
   0.336537D-03   0.439824D-04   0.127647D-02
   0.319512D-03  -0.560271D-04   0.967793D-05
===================================
 --- Computing gradient for DRT:1, State; 4

starting cigrd.x -m 200000 at Wed May 25 03:08:36 EDT 2022

 -------------------- cigrd.x ------------------------
 Total energy (ciudg) :  -285.698376875900 
  Effective energy     :  -285.698376889991 
  Delta E              :     0.000000014091 
  --------------------------------------------------- 
 starting tran.x -m 200000  at Wed May 25 03:19:48 EDT 2022

 -------------------- tran.x ------------------------
 --------------------------------------------------- 
 starting pymolcas molcas.input.alaska > molcas.output.alaska  at Wed May 25 03:26:49 EDT 2022

Generating link ln -s ./molcas.OrdInt ORDINT 
 -------------------- alaska ------------------------
 --------------------------------------------------- 
 cartesian gradient by alaska (MOLCAS)

 === Gradient of DRT 1, state 4 === 
  -0.434358D+00  -0.244142D+00  -0.692264D+00
   0.479559D-01  -0.164970D-02   0.355909D-02
   0.393611D-01  -0.793939D-03  -0.208356D-02
   0.397296D-01  -0.835399D-03   0.119269D-02
  -0.443724D-01   0.789932D-04  -0.107966D-01
  -0.442328D-01  -0.222027D-03   0.115319D-01
  -0.713535D-02  -0.256492D-04  -0.527996D-03
   0.396509D+00   0.250124D+00   0.693123D+00
   0.482217D-02  -0.279894D-02  -0.342992D-02
  -0.745681D-03   0.164278D-03  -0.318828D-02
  -0.911226D-03   0.634408D-04   0.304445D-02
   0.717641D-03   0.405598D-04  -0.134255D-02
   0.748607D-03  -0.142387D-04   0.117571D-02
   0.191205D-02   0.109563D-04   0.651959D-05
===================================
 --- Computing gradient for DRT:2, State; 1

starting cigrd.x -m 200000 at Wed May 25 03:28:09 EDT 2022

 -------------------- cigrd.x ------------------------
 Total energy (ciudg) :  -285.777058260492 
  Effective energy     :  -285.777058275559 
  Delta E              :     0.000000015067 
  --------------------------------------------------- 
 starting tran.x -m 200000  at Wed May 25 03:38:10 EDT 2022

 -------------------- tran.x ------------------------
 --------------------------------------------------- 
 starting pymolcas molcas.input.alaska > molcas.output.alaska  at Wed May 25 03:45:09 EDT 2022

Generating link ln -s ./molcas.OrdInt ORDINT 
 -------------------- alaska ------------------------
 --------------------------------------------------- 
 cartesian gradient by alaska (MOLCAS)

 === Gradient of DRT 2, state 1 === 
  -0.388500D+00  -0.256387D+00  -0.687672D+00
   0.327288D-01   0.430494D-02  -0.564444D-02
  -0.109101D-01  -0.154549D-02   0.358086D-01
  -0.104362D-01  -0.170536D-02  -0.307501D-01
   0.825784D-02  -0.678646D-03   0.359500D-01
   0.130370D-01  -0.225208D-03  -0.423273D-01
  -0.371949D-01   0.890875D-03   0.611645D-02
   0.392416D+00   0.254884D+00   0.687876D+00
   0.319332D-03   0.347944D-03   0.521909D-03
  -0.102498D-02   0.790042D-04   0.898215D-05
  -0.969457D-03  -0.735242D-04  -0.295443D-04
   0.622067D-03   0.380944D-04  -0.596089D-03
   0.718880D-03   0.121008D-03   0.621006D-03
   0.936187D-03  -0.503128D-04   0.115792D-03
===================================
 --- Computing gradient for DRT:2, State; 2

starting cigrd.x -m 200000 at Wed May 25 03:46:31 EDT 2022

 -------------------- cigrd.x ------------------------
 Total energy (ciudg) :  -285.761444674856 
  Effective energy     :  -285.761444691979 
  Delta E              :     0.000000017123 
  --------------------------------------------------- 
 starting tran.x -m 200000  at Wed May 25 03:57:06 EDT 2022

 -------------------- tran.x ------------------------
 --------------------------------------------------- 
 starting pymolcas molcas.input.alaska > molcas.output.alaska  at Wed May 25 04:04:07 EDT 2022

Generating link ln -s ./molcas.OrdInt ORDINT 
 -------------------- alaska ------------------------
 --------------------------------------------------- 
 cartesian gradient by alaska (MOLCAS)

 === Gradient of DRT 2, state 2 === 
  -0.427099D+00  -0.241915D+00  -0.692642D+00
   0.322298D-01  -0.364389D-02   0.804887D-02
   0.325736D-01  -0.112603D-03   0.259913D-01
   0.297577D-01   0.175383D-03  -0.334525D-01
  -0.332695D-01   0.392449D-03   0.271709D-01
  -0.350793D-01  -0.548090D-04  -0.223671D-01
   0.635563D-02   0.437257D-04  -0.391861D-02
   0.393512D+00   0.248702D+00   0.694648D+00
   0.301904D-03  -0.301657D-02  -0.325513D-02
   0.288584D-03   0.438577D-04  -0.162562D-02
   0.176489D-03  -0.543221D-03   0.160282D-02
   0.403385D-03  -0.799298D-04  -0.176960D-02
   0.352394D-03   0.661051D-04   0.167720D-02
  -0.503277D-03  -0.578209D-04  -0.107939D-03
===================================
 --- Computing gradient for DRT:2, State; 3

starting cigrd.x -m 200000 at Wed May 25 04:05:30 EDT 2022

 -------------------- cigrd.x ------------------------
 Total energy (ciudg) :  -285.756016421233 
  Effective energy     :  -285.756016437586 
  Delta E              :     0.000000016353 
  --------------------------------------------------- 
 starting tran.x -m 200000  at Wed May 25 04:19:10 EDT 2022

 -------------------- tran.x ------------------------
 --------------------------------------------------- 
 starting pymolcas molcas.input.alaska > molcas.output.alaska  at Wed May 25 04:26:34 EDT 2022

Generating link ln -s ./molcas.OrdInt ORDINT 
 -------------------- alaska ------------------------
 --------------------------------------------------- 
 cartesian gradient by alaska (MOLCAS)

 === Gradient of DRT 2, state 3 === 
  -0.467725D+00  -0.227006D+00  -0.692523D+00
   0.595227D-01  -0.809877D-02   0.380087D-02
  -0.229800D-01   0.153349D-03   0.280787D-01
  -0.222799D-01  -0.282122D-02  -0.284003D-01
   0.179260D-01  -0.438711D-03   0.133323D-01
   0.198308D-01   0.115692D-02  -0.140895D-01
  -0.127904D-02   0.428148D-04   0.127783D-02
   0.403414D+00   0.242809D+00   0.703756D+00
   0.118977D-01  -0.594122D-02  -0.148819D-01
  -0.889076D-03  -0.912294D-04  -0.309971D-02
  -0.103695D-02   0.604178D-04   0.296448D-02
   0.147857D-02   0.118587D-03  -0.128437D-02
   0.156728D-02   0.131485D-03   0.106605D-02
   0.552482D-03  -0.751341D-04   0.169932D-05
===================================
 --- Computing gradient for DRT:2, State; 4

starting cigrd.x -m 200000 at Wed May 25 04:27:53 EDT 2022

 -------------------- cigrd.x ------------------------
 Total energy (ciudg) :  -285.749610122785 
  Effective energy     :  -285.749610139215 
[...]
   2.443889E-02  -8.555076E-02   6.840334E+00
   7.693954E-01   1.004286E-01  -3.064751E+00
  -1.086274E+00  -5.032208E-02  -3.148798E+00
   1.996211E+00  -2.701302E-02   2.985044E+00
  -1.699048E+00   6.293949E-02   2.904445E+00
  -1.014943E-01   4.968248E-03  -5.656196E+00
  -3.418190E-02  -3.406249E-02   2.720103E-03
   3.826862E-02   1.017636E-01  -9.975478E-03
   3.949603E-02  -3.376258E-03   1.347995E-02
  -4.685617E-02  -1.286353E-02   5.620895E-03
   3.500520E-02   4.658547E-04  -1.980655E-02
  -3.283385E-02  -8.310094E-03  -2.575998E-02
   2.351070E-03  -3.704568E-03  -1.156406E-01
===================================

 Norm of the nonadiabatic coupling vector: 
 |h(drt2.state1,drt2.state2)|= 11.1656712948407 

 Cross-check of the non-adiabatic coupling term:
  DeltaE= -0.0156135856000219

  <L>*dE form CIGRD   :    0.0001294522     0.0005073479     0.0008723466
  <L>*dE form NADCOUPL:    0.0002267256    -0.0169025388     0.0000873565
 -------------------------------------------------------------------------
  Difference          :   -0.0000972734     0.0174098867     0.0007849902

 NOTE: This test is meaningless at a point of conical intersection!


 -------- NAD. COUPLING for DRT:2 STATE:1 AND DRT:2 STATE:3 --------
opening file =ciudgls.drt2.sp
opening file =ciudgls.drt2.sp
extracted: energy1= -285.7770582603   energy2=-285.7560164210   deltae=-0.0210418392999827
starting cigrd.x -m 200000 at Wed May 25 07:09:20 EDT 2022

 -------------------- cigrd.x ------------------------
 Total energy (ciudg) :     0.000000002247 
  Effective energy     :     0.000000007262 
  Delta E              :    -0.000000005015 
  --------------------------------------------------- 
 starting tran.x -m 200000  at Wed May 25 07:20:04 EDT 2022

 -------------------- tran.x ------------------------
 --------------------------------------------------- 
  adding keyword NONUC to alaska input
starting pymolcas molcas.input.alaska > molcas.output.alaska  at Wed May 25 07:26:40 EDT 2022

Generating link ln -s ./molcas.OrdInt ORDINT 
 -------------------- alaska ------------------------
 --------------------------------------------------- 
 cartesian gradient by alaska (MOLCAS)

 Calculating the Dx(r,s) term of D[CSF] nonadiabatic coupling term.
dxcalc: INPUT LINE SEPARATOR 
 
starting tran.x -m 200000  at Wed May 25 07:27:46 EDT 2022

 -------------------- tran.x ------------------------
 --------------------------------------------------- 
 starting tdmrunfile.x > tdmrunfilels at Wed May 25 07:27:46 EDT 2022

 -------------------- tdmrunfile.x ------------------------
 --------------------------------------------------- 
 starting pymolcas molcas.input.alaska > molcas.output.alaska  at Wed May 25 07:27:46 EDT 2022

Generating link ln -s ./molcas.OrdInt ORDINT 
 -------------------- alaska ------------------------
 --------------------------------------------------- 
 
 === Non-adiabatic coupling for DRT 2 STATE 1 and DRT 2 STATE 3 === 
  -4.127919E-02  -2.643324E-01  -2.117040E-02
   1.899528E-01   9.720630E-01   2.779147E-01
  -3.006459E-01  -3.590390E-01  -2.748134E-02
  -3.839718E-01  -2.376836E-01  -2.252125E-01
   4.070421E-01  -2.408077E-01   1.649515E-01
   2.691935E-01  -2.397288E-01   6.300004E-02
  -4.565222E-02   2.868528E-01  -2.242794E-01
  -3.434365E-02   3.816952E-02  -1.133838E-01
  -6.581826E-02  -1.091142E-01   1.198777E-01
  -9.945988E-04   4.336202E-02  -3.595345E-03
  -5.765178E-03   3.270178E-02  -5.858054E-04
   8.074846E-03   1.780028E-02   1.916549E-04
   5.330322E-03   7.155092E-03  -2.354487E-03
   2.040807E-03   2.784122E-02  -4.860556E-03
===================================

 Norm of the nonadiabatic coupling vector: 
 |h(drt2.state1,drt2.state3)|= 1.47471096567499 

 Cross-check of the non-adiabatic coupling term:
  DeltaE= -0.0210418392999827

  <L>*dE form CIGRD   :    0.0001744579     0.0006837335     0.0011756286
  <L>*dE form NADCOUPL:   -0.0002662034    -0.0014495426    -0.0025076267
 -------------------------------------------------------------------------
  Difference          :    0.0004406612     0.0021332761     0.0036832553

 NOTE: This test is meaningless at a point of conical intersection!


 -------- NAD. COUPLING for DRT:2 STATE:1 AND DRT:2 STATE:4 --------
opening file =ciudgls.drt2.sp
opening file =ciudgls.drt2.sp
extracted: energy1= -285.7770582603   energy2=-285.7496101226   deltae=-0.0274481376999915
starting cigrd.x -m 200000 at Wed May 25 07:28:51 EDT 2022

 -------------------- cigrd.x ------------------------
 Total energy (ciudg) :    -0.000000000413 
  Effective energy     :    -0.000000006353 
  Delta E              :     0.000000005940 
  --------------------------------------------------- 
 starting tran.x -m 200000  at Wed May 25 07:39:14 EDT 2022

 -------------------- tran.x ------------------------
 --------------------------------------------------- 
  adding keyword NONUC to alaska input
starting pymolcas molcas.input.alaska > molcas.output.alaska  at Wed May 25 07:45:56 EDT 2022

Generating link ln -s ./molcas.OrdInt ORDINT 
 -------------------- alaska ------------------------
 --------------------------------------------------- 
 cartesian gradient by alaska (MOLCAS)

 Calculating the Dx(r,s) term of D[CSF] nonadiabatic coupling term.
dxcalc: INPUT LINE SEPARATOR 
 
starting tran.x -m 200000  at Wed May 25 07:47:07 EDT 2022

 -------------------- tran.x ------------------------
 --------------------------------------------------- 
 starting tdmrunfile.x > tdmrunfilels at Wed May 25 07:47:07 EDT 2022

 -------------------- tdmrunfile.x ------------------------
 --------------------------------------------------- 
 starting pymolcas molcas.input.alaska > molcas.output.alaska  at Wed May 25 07:47:07 EDT 2022

Generating link ln -s ./molcas.OrdInt ORDINT 
 -------------------- alaska ------------------------
 --------------------------------------------------- 
 
 === Non-adiabatic coupling for DRT 2 STATE 1 and DRT 2 STATE 4 === 
   2.682312E-02  -4.487205E-02   5.235928E-03
  -9.003063E-01  -7.048399E-03   3.466021E-02
   2.871828E+00   1.291346E-02  -9.520322E-01
   2.854100E+00   3.377502E-02   9.007034E-01
  -2.923402E+00   4.359023E-03  -9.653307E-01
  -2.922665E+00  -1.677852E-02   1.039705E+00
   1.098921E+00  -5.488810E-03  -5.403190E-02
  -4.283100E-02   2.630525E-02  -4.192604E-02
  -3.798156E-02  -4.870638E-03   3.533621E-02
   3.235165E-02  -5.947813E-03  -3.941968E-02
   3.134826E-02   1.059932E-03   3.996682E-02
  -3.281175E-02   2.669333E-03  -3.044670E-02
  -3.467543E-02  -2.963190E-03   2.915473E-02
  -1.768488E-02   3.642668E-03  -1.153719E-03
===================================

 Norm of the nonadiabatic coupling vector: 
 |h(drt2.state1,drt2.state4)|= 6.26541132095228 

 Cross-check of the non-adiabatic coupling term:
  DeltaE= -0.0274481376999915

  <L>*dE form CIGRD   :    0.0002275725     0.0008918998     0.0015335549
  <L>*dE form NADCOUPL:   -0.0000460451    -0.0002047287    -0.0003979063
 -------------------------------------------------------------------------
  Difference          :    0.0002736177     0.0010966285     0.0019314612

 NOTE: This test is meaningless at a point of conical intersection!


 -------- NAD. COUPLING for DRT:2 STATE:2 AND DRT:2 STATE:3 --------
opening file =ciudgls.drt2.sp
opening file =ciudgls.drt2.sp
extracted: energy1= -285.7614446747   energy2=-285.7560164210   deltae=-0.00542825369996081
starting cigrd.x -m 200000 at Wed May 25 07:48:16 EDT 2022

 -------------------- cigrd.x ------------------------
 Total energy (ciudg) :     0.000000000223 
  Effective energy     :    -0.000000000268 
  Delta E              :     0.000000000491 
  --------------------------------------------------- 
 starting tran.x -m 200000  at Wed May 25 07:58:26 EDT 2022

 -------------------- tran.x ------------------------
 --------------------------------------------------- 
  adding keyword NONUC to alaska input
starting pymolcas molcas.input.alaska > molcas.output.alaska  at Wed May 25 08:05:04 EDT 2022

Generating link ln -s ./molcas.OrdInt ORDINT 
 -------------------- alaska ------------------------
 --------------------------------------------------- 
 cartesian gradient by alaska (MOLCAS)

 Calculating the Dx(r,s) term of D[CSF] nonadiabatic coupling term.
dxcalc: INPUT LINE SEPARATOR 
 
starting tran.x -m 200000  at Wed May 25 08:06:09 EDT 2022

 -------------------- tran.x ------------------------
 --------------------------------------------------- 
 starting tdmrunfile.x > tdmrunfilels at Wed May 25 08:06:09 EDT 2022

 -------------------- tdmrunfile.x ------------------------
 --------------------------------------------------- 
 starting pymolcas molcas.input.alaska > molcas.output.alaska  at Wed May 25 08:06:10 EDT 2022

Generating link ln -s ./molcas.OrdInt ORDINT 
 -------------------- alaska ------------------------
 --------------------------------------------------- 
 
 === Non-adiabatic coupling for DRT 2 STATE 2 and DRT 2 STATE 3 === 
  -5.355728E-01  -9.796733E-02   3.780022E-02
   2.944290E-01  -1.834086E-01   1.322600E+00
  -2.981959E-01  -1.135558E+00  -5.766066E-01
  -7.038420E-01   1.468548E+00  -5.133914E-01
   7.410436E-01   9.396551E-01   2.050973E-01
   2.704075E-01  -9.616523E-01   4.390010E-01
  -6.180310E-02   7.908147E-03  -6.793211E-01
   1.250112E-01  -2.071831E-01   7.069854E-02
   1.586470E-01   2.766825E-01  -3.192969E-01
  -3.485526E-03   3.539315E-01   1.996194E-03
  -1.384894E-02  -3.581250E-01   2.733598E-02
   4.791956E-03  -1.431740E-01   3.351176E-03
   1.492013E-02   4.619982E-02  -9.264084E-03
   8.177738E-03  -4.437649E-03  -1.069614E-02
===================================

 Norm of the nonadiabatic coupling vector: 
 |h(drt2.state2,drt2.state3)|= 3.23557771121679 

 Cross-check of the non-adiabatic coupling term:
  DeltaE= -0.00542825369996081

  <L>*dE form CIGRD   :    0.0000450057     0.0001763857     0.0003032820
  <L>*dE form NADCOUPL:    0.0005460851     0.0000661423     0.0000432004
 -------------------------------------------------------------------------
  Difference          :   -0.0005010795     0.0001102434     0.0002600816

 NOTE: This test is meaningless at a point of conical intersection!


 -------- NAD. COUPLING for DRT:2 STATE:2 AND DRT:2 STATE:4 --------
opening file =ciudgls.drt2.sp
opening file =ciudgls.drt2.sp
extracted: energy1= -285.7614446747   energy2=-285.7496101226   deltae=-0.0118345520999696
starting cigrd.x -m 200000 at Wed May 25 08:07:18 EDT 2022

 -------------------- cigrd.x ------------------------
 Total energy (ciudg) :     0.000000002418 
  Effective energy     :     0.000000010904 
  Delta E              :    -0.000000008486 
  --------------------------------------------------- 
 starting tran.x -m 200000  at Wed May 25 08:21:04 EDT 2022

 -------------------- tran.x ------------------------
 --------------------------------------------------- 
  adding keyword NONUC to alaska input
starting pymolcas molcas.input.alaska > molcas.output.alaska  at Wed May 25 08:28:09 EDT 2022

Generating link ln -s ./molcas.OrdInt ORDINT 
 -------------------- alaska ------------------------
 --------------------------------------------------- 
 cartesian gradient by alaska (MOLCAS)

 Calculating the Dx(r,s) term of D[CSF] nonadiabatic coupling term.
dxcalc: INPUT LINE SEPARATOR 
 
starting tran.x -m 200000  at Wed May 25 08:29:19 EDT 2022

 -------------------- tran.x ------------------------
 --------------------------------------------------- 
 starting tdmrunfile.x > tdmrunfilels at Wed May 25 08:29:19 EDT 2022

 -------------------- tdmrunfile.x ------------------------
 --------------------------------------------------- 
 starting pymolcas molcas.input.alaska > molcas.output.alaska  at Wed May 25 08:29:19 EDT 2022

Generating link ln -s ./molcas.OrdInt ORDINT 
 -------------------- alaska ------------------------
 --------------------------------------------------- 
 
 === Non-adiabatic coupling for DRT 2 STATE 2 and DRT 2 STATE 4 === 
   1.399401E-02  -3.624994E-03   3.014927E-01
   7.554742E-02  -2.213202E-02  -2.037569E+00
  -5.147547E-01  -4.368728E-02   4.031760E-01
   1.090420E-01   6.944601E-02   2.794875E-01
  -8.241772E-01   4.991288E-02   3.673809E-02
   1.217442E+00  -2.675266E-02  -3.841256E-02
  -8.506775E-02  -1.672056E-02   1.123895E+00
   3.719623E-02  -1.096672E-02  -1.636103E-02
  -2.975857E-02   1.622458E-02  -4.153412E-02
   2.170009E-02   1.302191E-02   3.738726E-02
  -2.742453E-02  -1.890827E-02   3.097143E-02
   4.036008E-02  -7.506350E-03  -2.936738E-02
  -3.632535E-02   5.309292E-03  -3.589409E-02
   2.502562E-03  -4.212145E-03  -1.453877E-02
===================================

 Norm of the nonadiabatic coupling vector: 
 |h(drt2.state2,drt2.state4)|= 2.86802023595678 

 Cross-check of the non-adiabatic coupling term:
  DeltaE= -0.0118345520999696

  <L>*dE form CIGRD   :    0.0000981203     0.0003845519     0.0006612083
  <L>*dE form NADCOUPL:    0.0001052353     0.0052590036    -0.0000308634
 -------------------------------------------------------------------------
  Difference          :   -0.0000071150    -0.0048744517     0.0006920716

 NOTE: This test is meaningless at a point of conical intersection!


 -------- NAD. COUPLING for DRT:2 STATE:3 AND DRT:2 STATE:4 --------
opening file =ciudgls.drt2.sp
opening file =ciudgls.drt2.sp
extracted: energy1= -285.7560164210   energy2=-285.7496101226   deltae=-0.00640629840000884
starting cigrd.x -m 200000 at Wed May 25 08:30:28 EDT 2022

 -------------------- cigrd.x ------------------------
 Total energy (ciudg) :    -0.000000001510 
  Effective energy     :    -0.000000004449 
  Delta E              :     0.000000002939 
  --------------------------------------------------- 
 starting tran.x -m 200000  at Wed May 25 08:40:52 EDT 2022

 -------------------- tran.x ------------------------
 --------------------------------------------------- 
  adding keyword NONUC to alaska input
starting pymolcas molcas.input.alaska > molcas.output.alaska  at Wed May 25 08:47:44 EDT 2022

Generating link ln -s ./molcas.OrdInt ORDINT 
 -------------------- alaska ------------------------
 --------------------------------------------------- 
 cartesian gradient by alaska (MOLCAS)

 Calculating the Dx(r,s) term of D[CSF] nonadiabatic coupling term.
dxcalc: INPUT LINE SEPARATOR 
 
starting tran.x -m 200000  at Wed May 25 08:48:51 EDT 2022

 -------------------- tran.x ------------------------
 --------------------------------------------------- 
 starting tdmrunfile.x > tdmrunfilels at Wed May 25 08:48:51 EDT 2022

 -------------------- tdmrunfile.x ------------------------
 --------------------------------------------------- 
 starting pymolcas molcas.input.alaska > molcas.output.alaska  at Wed May 25 08:48:51 EDT 2022

Generating link ln -s ./molcas.OrdInt ORDINT 
 -------------------- alaska ------------------------
 --------------------------------------------------- 
 
 === Non-adiabatic coupling for DRT 2 STATE 3 and DRT 2 STATE 4 === 
   1.138693E+00  -9.020334E-01   7.372446E-02
  -6.003016E-01   2.006813E+00  -2.425277E-01
   1.314902E+00  -6.725688E-01  -2.939648E-01
   1.357005E+00  -3.984466E-01   3.616914E-01
  -1.368291E+00  -6.047886E-01  -1.663157E-01
  -1.221116E+00  -6.100944E-01   1.719232E-01
  -1.916369E-02   6.893485E-01   7.438568E-02
  -2.578411E-01   2.495987E-01  -4.648897E-01
  -3.434295E-01  -1.230490E-01   4.908305E-01
   1.854230E-02   1.348974E-01   1.902448E-02
   1.363031E-02   1.191818E-01  -2.087647E-02
  -1.438090E-02   4.213853E-02  -6.841141E-03
  -2.275472E-02   1.212390E-02   4.337477E-03
   3.347279E-03   7.445771E-02  -2.169953E-03
===================================

 Norm of the nonadiabatic coupling vector: 
 |h(drt2.state3,drt2.state4)|= 4.04493886236455 

 Cross-check of the non-adiabatic coupling term:
  DeltaE= -0.00640629840000884

  <L>*dE form CIGRD   :    0.0000531146     0.0002081663     0.0003579263
  <L>*dE form NADCOUPL:    0.0000535398     0.0002099656     0.0003645000
 -------------------------------------------------------------------------
  Difference          :   -0.0000004252    -0.0000017993    -0.0000065737

 NOTE: This test is meaningless at a point of conical intersection!



============== timings ===================

   unik.gets.x    
   mcdrt.x        
   mcuft.x        
 * mcscf.x          walltime    0:03:01
   mcpc.x         
   mcpc.x         
   mcpc.x         
   mcpc.x         
   exptvl.x       
   exptvl.x       
   exptvl.x       
   exptvl.x       
   cidrt.x        
 * cidrt.x          walltime    0:00:05
 * tran.x           walltime    0:07:48
 * pciudg.x -m 19000   walltime   16:49:55
 * cipc.x           walltime    0:00:13
 * pciudg.x -m 19000   walltime   37:51:22
 * cipc.x           walltime    0:00:25
 * reindex.x        walltime    0:04:16
 * pciudg.x -m 19000   walltime    1:48:24
 * transci.x        walltime    0:02:14
 * transci.x        walltime    0:02:11
 * transci.x        walltime    0:02:18
 * transci.x        walltime    0:02:13
 * transci.x        walltime    0:02:11
 * transci.x        walltime    0:02:09
 * transci.x        walltime    0:04:06
 * transci.x        walltime    0:04:09
 * transci.x        walltime    0:04:06
 * transci.x        walltime    0:04:03
 * transci.x        walltime    0:04:11
 * transci.x        walltime    0:04:03
   exptvl.x       
   exptvl.x       
   exptvl.x       
   exptvl.x       
   exptvl.x       
   exptvl.x       
   exptvl.x       
   exptvl.x       
   mo_convert.x   
   mo_convert.x   
   mo_convert.x   
   mo_convert.x   
   mo_convert.x   
   mo_convert.x   
   mo_convert.x   
   mo_convert.x   
   mo_convert.x   
   mo_convert.x   
   mo_convert.x   
   mo_convert.x   
   mo_convert.x   
   mo_convert.x   
 * cidrt.x          walltime    0:00:07
 * tran.x           walltime    0:08:15
 * cigrd.x          walltime    0:11:11
 * tran.x           walltime    0:07:09
 * cigrd.x          walltime    0:13:56
 * tran.x           walltime    0:07:08
 * cigrd.x          walltime    0:10:50
 * tran.x           walltime    0:07:19
 * cigrd.x          walltime    0:11:10
 * tran.x           walltime    0:07:00
 * cigrd.x          walltime    0:10:00
 * tran.x           walltime    0:06:58
 * cigrd.x          walltime    0:10:34
 * tran.x           walltime    0:07:00
 * cigrd.x          walltime    0:13:39
 * tran.x           walltime    0:07:23
 * cigrd.x          walltime    0:10:23
 * tran.x           walltime    0:07:09
 * cigrd.x          walltime    0:10:52
 * tran.x           walltime    0:06:45
   tran.x         
   tdmrunfile.x   
 * cigrd.x          walltime    0:09:41
 * tran.x           walltime    0:07:02
   tran.x         
   tdmrunfile.x   
 * cigrd.x          walltime    0:15:37
 * tran.x           walltime    0:06:28
   tran.x         
   tdmrunfile.x   
 * cigrd.x          walltime    0:10:13
 * tran.x           walltime    0:06:32
   tran.x         
   tdmrunfile.x   
 * cigrd.x          walltime    0:11:14
 * tran.x           walltime    0:06:54
   tran.x         
   tdmrunfile.x   
 * cigrd.x          walltime    0:10:52
 * tran.x           walltime    0:06:38
   tran.x         
   tdmrunfile.x   
 * cigrd.x          walltime    0:09:56
 * tran.x           walltime    0:07:06
   tran.x         
   tdmrunfile.x   
 * cigrd.x          walltime    0:10:43
 * tran.x           walltime    0:06:35
   tran.x         
   tdmrunfile.x   
 * cigrd.x          walltime    0:10:22
 * tran.x           walltime    0:06:41
   tran.x         
   tdmrunfile.x   
 * cigrd.x          walltime    0:10:09
 * tran.x           walltime    0:06:38
   tran.x         
   tdmrunfile.x   
 * cigrd.x          walltime    0:13:45
 * tran.x           walltime    0:07:04
   tran.x         
   tdmrunfile.x   
 * cigrd.x          walltime    0:10:22
 * tran.x           walltime    0:06:51
   tran.x         
   tdmrunfile.x   

==========================================

