[Molden Format]
[Atoms] AU
  N     1    7     0.0364027500   -4.2533596700    0.0000000000        
  C     2    6     0.1375995500   -1.7109742600   -0.0000000100        
  C     3    6    -2.2056350300   -0.3594812200    0.0000000100        
  C     4    6     2.4220648200   -0.2490576500   -0.0000000300        
  C     5    6    -2.2317425700    2.2213030700   -0.0000000100        
  C     6    6     2.3473557600    2.3263014000    0.0000000000        
  C     7    6     0.0325945800    3.5930318400    0.0000000000        
  H     8    1    -4.2893100900   -7.6180088200    0.0000000200        
  H     9    1     1.8496456200   -4.9751596300    0.0000000000        
  H    10    1    -3.9246478800   -1.4298107700    0.0000000100        
  H    11    1     4.2002260100   -1.2284005400   -0.0000000200        
  H    12    1    -3.9993430400    3.2180974500   -0.0000000300        
  H    13    1     4.0707249800    3.3981636300    0.0000000300        
  H    14    1    -0.0131676700    5.6206795600    0.0000000000        
[5D]
[7F]
[GTO]
  1  0
   s    12 1.00
  0.114200D+05  0.172695D-04
  0.171200D+04  0.134411D-03
  0.389300D+03  0.694561D-03
  0.110000D+03  0.278531D-02
  0.355700D+02  0.863457D-02
  0.125400D+02  0.199805D-01
  0.464400D+01  0.262908D-01
  0.129300D+01 -0.243845D-01
  0.511800D+00 -0.924934D-01
  0.178700D+00 -0.339683D+00
  0.246240D-01  0.345111D+00
  0.112530D-01  0.752750D+00
   s    10 1.00
  0.114200D+05  0.523000D-03
  0.171200D+04  0.404500D-02
  0.389300D+03  0.207750D-01
  0.110000D+03  0.807269D-01
  0.355700D+02  0.233074D+00
  0.125400D+02  0.433501D+00
  0.464400D+01  0.347472D+00
  0.129300D+01  0.412620D-01
  0.511800D+00 -0.850799D-02
  0.178700D+00  0.238400D-02
   s    10 1.00
  0.114200D+05 -0.115000D-03
  0.171200D+04 -0.895000D-03
  0.389300D+03 -0.462400D-02
  0.110000D+03 -0.185280D-01
  0.355700D+02 -0.573390D-01
  0.125400D+02 -0.132076D+00
  0.464400D+01 -0.172510D+00
  0.129300D+01  0.151814D+00
  0.511800D+00  0.599944D+00
  0.178700D+00  0.387462D+00
   s     1 1.00
  0.129300D+01  0.100000D+01
   s     1 1.00
  0.178700D+00  0.100000D+01
   p     5 1.00
  0.266300D+02  0.146700D-01
  0.594800D+01  0.917640D-01
  0.174200D+01  0.298683D+00
  0.555000D+00  0.498487D+00
  0.172500D+00  0.337023D+00
   p     1 1.00
  0.174200D+01  0.100000D+01
   p     1 1.00
  0.555000D+00  0.100000D+01
   d     1 1.00
  0.165400D+01  0.100000D+01
   d     1 1.00
  0.469000D+00  0.100000D+01
   f     1 1.00
  0.109300D+01  0.100000D+01
  
  2  0
   s    10 1.00
  0.823600D+04  0.531000D-03
  0.123500D+04  0.410800D-02
  0.280800D+03  0.210870D-01
  0.792700D+02  0.818530D-01
  0.255900D+02  0.234817D+00
  0.899700D+01  0.434401D+00
  0.331900D+01  0.346129D+00
  0.905900D+00  0.393780D-01
  0.364300D+00 -0.898300D-02
  0.128500D+00  0.238500D-02
   s    10 1.00
  0.823600D+04 -0.113000D-03
  0.123500D+04 -0.878000D-03
  0.280800D+03 -0.454000D-02
  0.792700D+02 -0.181330D-01
  0.255900D+02 -0.557600D-01
  0.899700D+01 -0.126895D+00
  0.331900D+01 -0.170352D+00
  0.905900D+00  0.140382D+00
  0.364300D+00  0.598684D+00
  0.128500D+00  0.395389D+00
   s     1 1.00
  0.905900D+00  0.100000D+01
   s     1 1.00
  0.364300D+00  0.100000D+01
   p     5 1.00
  0.187100D+02  0.140310D-01
  0.413300D+01  0.868660D-01
  0.120000D+01  0.290216D+00
  0.382700D+00  0.501008D+00
  0.120900D+00  0.343406D+00
   p     1 1.00
  0.382700D+00  0.100000D+01
   p     1 1.00
  0.120900D+00  0.100000D+01
   d     1 1.00
  0.109700D+01  0.100000D+01
   d     1 1.00
  0.318000D+00  0.100000D+01
   f     1 1.00
  0.761000D+00  0.100000D+01
  
  3  0
   s    10 1.00
  0.823600D+04  0.531000D-03
  0.123500D+04  0.410800D-02
  0.280800D+03  0.210870D-01
  0.792700D+02  0.818530D-01
  0.255900D+02  0.234817D+00
  0.899700D+01  0.434401D+00
  0.331900D+01  0.346129D+00
  0.905900D+00  0.393780D-01
  0.364300D+00 -0.898300D-02
  0.128500D+00  0.238500D-02
   s    10 1.00
  0.823600D+04 -0.113000D-03
  0.123500D+04 -0.878000D-03
  0.280800D+03 -0.454000D-02
  0.792700D+02 -0.181330D-01
  0.255900D+02 -0.557600D-01
  0.899700D+01 -0.126895D+00
  0.331900D+01 -0.170352D+00
  0.905900D+00  0.140382D+00
  0.364300D+00  0.598684D+00
  0.128500D+00  0.395389D+00
   s     1 1.00
  0.905900D+00  0.100000D+01
   s     1 1.00
  0.364300D+00  0.100000D+01
   p     5 1.00
  0.187100D+02  0.140310D-01
  0.413300D+01  0.868660D-01
  0.120000D+01  0.290216D+00
  0.382700D+00  0.501008D+00
  0.120900D+00  0.343406D+00
   p     1 1.00
  0.382700D+00  0.100000D+01
   p     1 1.00
  0.120900D+00  0.100000D+01
   d     1 1.00
  0.109700D+01  0.100000D+01
   d     1 1.00
  0.318000D+00  0.100000D+01
   f     1 1.00
  0.761000D+00  0.100000D+01
  
  4  0
   s    10 1.00
  0.823600D+04  0.531000D-03
  0.123500D+04  0.410800D-02
  0.280800D+03  0.210870D-01
  0.792700D+02  0.818530D-01
  0.255900D+02  0.234817D+00
  0.899700D+01  0.434401D+00
  0.331900D+01  0.346129D+00
  0.905900D+00  0.393780D-01
  0.364300D+00 -0.898300D-02
  0.128500D+00  0.238500D-02
   s    10 1.00
  0.823600D+04 -0.113000D-03
  0.123500D+04 -0.878000D-03
  0.280800D+03 -0.454000D-02
  0.792700D+02 -0.181330D-01
  0.255900D+02 -0.557600D-01
  0.899700D+01 -0.126895D+00
  0.331900D+01 -0.170352D+00
  0.905900D+00  0.140382D+00
  0.364300D+00  0.598684D+00
  0.128500D+00  0.395389D+00
   s     1 1.00
  0.905900D+00  0.100000D+01
   s     1 1.00
  0.364300D+00  0.100000D+01
   p     5 1.00
  0.187100D+02  0.140310D-01
  0.413300D+01  0.868660D-01
  0.120000D+01  0.290216D+00
  0.382700D+00  0.501008D+00
  0.120900D+00  0.343406D+00
   p     1 1.00
  0.382700D+00  0.100000D+01
   p     1 1.00
  0.120900D+00  0.100000D+01
   d     1 1.00
  0.109700D+01  0.100000D+01
   d     1 1.00
  0.318000D+00  0.100000D+01
   f     1 1.00
  0.761000D+00  0.100000D+01
  
  5  0
   s    10 1.00
  0.823600D+04  0.531000D-03
  0.123500D+04  0.410800D-02
  0.280800D+03  0.210870D-01
  0.792700D+02  0.818530D-01
  0.255900D+02  0.234817D+00
  0.899700D+01  0.434401D+00
  0.331900D+01  0.346129D+00
  0.905900D+00  0.393780D-01
  0.364300D+00 -0.898300D-02
  0.128500D+00  0.238500D-02
   s    10 1.00
  0.823600D+04 -0.113000D-03
  0.123500D+04 -0.878000D-03
  0.280800D+03 -0.454000D-02
  0.792700D+02 -0.181330D-01
  0.255900D+02 -0.557600D-01
  0.899700D+01 -0.126895D+00
  0.331900D+01 -0.170352D+00
  0.905900D+00  0.140382D+00
  0.364300D+00  0.598684D+00
  0.128500D+00  0.395389D+00
   s     1 1.00
  0.905900D+00  0.100000D+01
   s     1 1.00
  0.364300D+00  0.100000D+01
   p     5 1.00
  0.187100D+02  0.140310D-01
  0.413300D+01  0.868660D-01
  0.120000D+01  0.290216D+00
  0.382700D+00  0.501008D+00
  0.120900D+00  0.343406D+00
   p     1 1.00
  0.382700D+00  0.100000D+01
   p     1 1.00
  0.120900D+00  0.100000D+01
   d     1 1.00
  0.109700D+01  0.100000D+01
   d     1 1.00
  0.318000D+00  0.100000D+01
   f     1 1.00
  0.761000D+00  0.100000D+01
  
  6  0
   s    10 1.00
  0.823600D+04  0.531000D-03
  0.123500D+04  0.410800D-02
  0.280800D+03  0.210870D-01
  0.792700D+02  0.818530D-01
  0.255900D+02  0.234817D+00
  0.899700D+01  0.434401D+00
  0.331900D+01  0.346129D+00
  0.905900D+00  0.393780D-01
  0.364300D+00 -0.898300D-02
  0.128500D+00  0.238500D-02
   s    10 1.00
  0.823600D+04 -0.113000D-03
  0.123500D+04 -0.878000D-03
  0.280800D+03 -0.454000D-02
  0.792700D+02 -0.181330D-01
  0.255900D+02 -0.557600D-01
  0.899700D+01 -0.126895D+00
  0.331900D+01 -0.170352D+00
  0.905900D+00  0.140382D+00
  0.364300D+00  0.598684D+00
  0.128500D+00  0.395389D+00
   s     1 1.00
  0.905900D+00  0.100000D+01
   s     1 1.00
  0.364300D+00  0.100000D+01
   p     5 1.00
  0.187100D+02  0.140310D-01
  0.413300D+01  0.868660D-01
  0.120000D+01  0.290216D+00
  0.382700D+00  0.501008D+00
  0.120900D+00  0.343406D+00
   p     1 1.00
  0.382700D+00  0.100000D+01
   p     1 1.00
  0.120900D+00  0.100000D+01
   d     1 1.00
  0.109700D+01  0.100000D+01
   d     1 1.00
  0.318000D+00  0.100000D+01
   f     1 1.00
  0.761000D+00  0.100000D+01
  
  7  0
   s    10 1.00
  0.823600D+04  0.531000D-03
  0.123500D+04  0.410800D-02
  0.280800D+03  0.210870D-01
  0.792700D+02  0.818530D-01
  0.255900D+02  0.234817D+00
  0.899700D+01  0.434401D+00
  0.331900D+01  0.346129D+00
  0.905900D+00  0.393780D-01
  0.364300D+00 -0.898300D-02
  0.128500D+00  0.238500D-02
   s    10 1.00
  0.823600D+04 -0.113000D-03
  0.123500D+04 -0.878000D-03
  0.280800D+03 -0.454000D-02
  0.792700D+02 -0.181330D-01
  0.255900D+02 -0.557600D-01
  0.899700D+01 -0.126895D+00
  0.331900D+01 -0.170352D+00
  0.905900D+00  0.140382D+00
  0.364300D+00  0.598684D+00
  0.128500D+00  0.395389D+00
   s     1 1.00
  0.905900D+00  0.100000D+01
   s     1 1.00
  0.364300D+00  0.100000D+01
   p     5 1.00
  0.187100D+02  0.140310D-01
  0.413300D+01  0.868660D-01
  0.120000D+01  0.290216D+00
  0.382700D+00  0.501008D+00
  0.120900D+00  0.343406D+00
   p     1 1.00
  0.382700D+00  0.100000D+01
   p     1 1.00
  0.120900D+00  0.100000D+01
   d     1 1.00
  0.109700D+01  0.100000D+01
   d     1 1.00
  0.318000D+00  0.100000D+01
   f     1 1.00
  0.761000D+00  0.100000D+01
  
  8  0
   s     4 1.00
  0.130100D+02  0.196850D-01
  0.196200D+01  0.137977D+00
  0.444600D+00  0.478148D+00
  0.122000D+00  0.501240D+00
   s     1 1.00
  0.122000D+00  0.100000D+01
   p     1 1.00
  0.727000D+00  0.100000D+01
  
  9  0
   s     4 1.00
  0.130100D+02  0.196850D-01
  0.196200D+01  0.137977D+00
  0.444600D+00  0.478148D+00
  0.122000D+00  0.501240D+00
   s     1 1.00
  0.122000D+00  0.100000D+01
   p     1 1.00
  0.727000D+00  0.100000D+01
  
 10  0
   s     4 1.00
  0.130100D+02  0.196850D-01
  0.196200D+01  0.137977D+00
  0.444600D+00  0.478148D+00
  0.122000D+00  0.501240D+00
   s     1 1.00
  0.122000D+00  0.100000D+01
   p     1 1.00
  0.727000D+00  0.100000D+01
  
 11  0
   s     4 1.00
  0.130100D+02  0.196850D-01
  0.196200D+01  0.137977D+00
  0.444600D+00  0.478148D+00
  0.122000D+00  0.501240D+00
   s     1 1.00
  0.122000D+00  0.100000D+01
   p     1 1.00
  0.727000D+00  0.100000D+01
  
 12  0
   s     4 1.00
  0.130100D+02  0.196850D-01
  0.196200D+01  0.137977D+00
  0.444600D+00  0.478148D+00
  0.122000D+00  0.501240D+00
   s     1 1.00
  0.122000D+00  0.100000D+01
   p     1 1.00
  0.727000D+00  0.100000D+01
  
 13  0
   s     4 1.00
  0.130100D+02  0.196850D-01
  0.196200D+01  0.137977D+00
  0.444600D+00  0.478148D+00
  0.122000D+00  0.501240D+00
   s     1 1.00
  0.122000D+00  0.100000D+01
   p     1 1.00
  0.727000D+00  0.100000D+01
  
 14  0
   s     4 1.00
  0.130100D+02  0.196850D-01
  0.196200D+01  0.137977D+00
  0.444600D+00  0.478148D+00
  0.122000D+00  0.501240D+00
   s     1 1.00
  0.122000D+00  0.100000D+01
   p     1 1.00
  0.727000D+00  0.100000D+01
  
[MO]
 Sym= __1_A__
 Ene=   1.00000000000000     
 Spin= Alpha
 Occup=    1.00000000000000     
                     1  1.100159368007951E-004
                     2  0.998346097322248     
                     3 -2.659819683566105E-003
                     4  1.838065636231498E-003
                     5  6.559738797677615E-003
                     6  2.767748973500032E-003
                     7  6.001512343005585E-003
                     8  1.322084401968857E-010
                     9 -7.017945339090799E-004
                    10 -7.430235201988609E-004
                    11 -5.673848825559102E-011
                    12 -2.472904798195238E-003
                    13 -1.952230380777879E-003
                    14  7.630739978764863E-011
                    15 -3.084695961548745E-005
                    16 -4.323075609370625E-013
                    17 -1.330049992736828E-011
                    18 -1.549398851852861E-004
                    19 -6.391805641574628E-005
                    20  8.910415046670327E-005
                    21  1.291861854160886E-011
                    22  1.459496155784937E-010
                    23 -2.277828351182030E-004
                    24  5.020677262451859E-004
                    25  1.626526476410727E-010
                    26 -4.754662365780516E-006
                    27 -5.035344964015895E-005
                    28 -1.582025673581432E-010
                    29  1.918734541106861E-010
                    30  3.337055442396942E-005
                    31 -1.110011700344114E-004
                    32 -3.790561238850279E-004
                    33  1.796276252778408E-004
                    34  3.278474398409298E-004
                    35 -1.226375067838318E-004
                    36 -3.553500740139782E-005
                    37 -2.701289880246943E-003
                    38  1.398657774727923E-010
                    39  3.713441670845757E-004
                    40  2.263334013093660E-004
                    41 -2.396865844184573E-010
                    42 -2.185101304313946E-003
                    43  5.072077013091993E-003
                    44  4.594341292761663E-011
                    45  5.065915941675010E-006
                    46  2.618020580286874E-012
                    47  4.999514239641656E-011
                    48 -1.316721269544467E-004
                    49  1.399252946371944E-005
                    50 -1.969252931259434E-004
                    51 -2.601859237412607E-011
                    52  9.086952285645696E-011
                    53  2.226382776860194E-005
                    54  7.828151560265942E-004
                    55 -9.669567483357132E-011
                    56 -2.247658153340817E-006
                    57 -7.364955661823786E-005
                    58  7.528609564025254E-011
                    59  3.655990180390895E-011
                    60  1.695051904189775E-005
                    61 -1.280497345483141E-004
                    62 -5.554555271557644E-004
                    63 -2.216005822033813E-003
                    64 -8.794639702245552E-005
                    65  2.262948596294385E-003
                    66 -5.029368519228841E-004
                    67  1.396619641292464E-004
                    68 -2.619501026793098E-011
                    69  3.824348305941846E-004
                    70  9.053441966950524E-004
                    71 -4.038572411274815E-012
                    72 -1.794313711917678E-003
                    73  6.857805838231909E-004
                    74 -1.140426163338209E-010
                    75 -4.456537448640463E-005
                    76  1.023133540599914E-011
                    77  1.661992874434440E-011
                    78 -6.311378539213326E-005
                    79 -2.324196163051868E-005
                    80 -1.340051347579989E-004
                    81  3.457793169766052E-012
                    82 -6.193955365200847E-011
                    83  3.159459013807400E-005
                    84  1.234016477538958E-005
                    85  6.315151414068980E-011
                    86  9.714248177140560E-006
                    87 -4.665896651871115E-005
                    88 -4.593325765761698E-011
                    89 -9.212627267330839E-012
                    90 -3.013926922261121E-005
                    91 -1.548064155236551E-004
                    92 -1.782861268716896E-004
                    93 -6.569923765288582E-004
                    94  1.614579327110232E-004
                    95 -7.876799640704260E-005
                    96  2.206110768695622E-004
                    97  2.804766377690186E-005
                    98 -3.608131179988790E-011
                    99  3.388193716822544E-004
                   100  3.852290857894082E-004
                   101  2.657871282854725E-011
                   102  6.354564727999218E-004
                   103 -1.773888309121639E-003
                   104 -8.980852033133025E-011
                   105 -1.149268610551278E-005
                   106 -3.960530989900638E-012
                   107  2.217653233254705E-011
                   108 -4.498750347438196E-005
                   109 -1.512999549981636E-005
                   110  8.580368550861765E-005
                   111  3.051283611167114E-012
                   112 -7.857849769043067E-011
                   113 -1.657332040268529E-004
                   114  8.063498140750346E-005
                   115  4.804536733287700E-011
                   116 -1.931693364869038E-005
                   117 -2.258094129825285E-005
                   118 -4.713659886311808E-011
                   119 -2.311591521689048E-012
                   120 -1.302019877075462E-005
                   121 -3.635419559381430E-005
                   122 -2.459386678454500E-004
                   123 -6.005075016234353E-004
                   124  1.718786518306778E-004
                   125  3.088944592162135E-004
                   126 -2.816270518794822E-005
                   127 -3.355885906726374E-004
                   128 -1.357801890027382E-011
                   129  2.310935498219930E-004
                   130  6.630971642204317E-004
                   131 -4.357615533586035E-012
                   132  4.185568704687028E-004
                   133  2.043260862062186E-003
                   134  1.125455456137068E-010
                   135  1.418780973851518E-005
                   136  7.867974407151876E-012
                   137  3.567698945036486E-010
                   138  4.664369106423356E-005
                   139 -3.745737551188088E-007
                   140  2.068968896070769E-004
                   141  2.225014923211919E-011
                   142 -2.405960636613769E-010
                   143  4.018303074091158E-004
                   144  2.414168284756386E-004
                   145 -4.359635037667856E-012
                   146 -1.142741243008972E-005
                   147 -6.515706603409875E-005
                   148  1.617981987942330E-011
                   149  7.482274518968307E-012
                   150 -1.621211186111209E-005
                   151 -5.377279896555086E-005
                   152 -1.331335440475168E-004
                   153 -3.611946291319868E-004
                   154  5.491631811877292E-005
                   155  1.946045929263856E-004
                   156  8.129417863396967E-006
                   157 -9.279612722023321E-005
                   158 -5.017041410100173E-011
                   159  1.191684748908172E-005
                   160  5.052186226484501E-005
                   161  7.840162097787762E-011
                   162  7.552565416474005E-004
                   163 -3.846875320001456E-004
                   164  8.974706830819267E-011
                   165  1.689685001194937E-006
                   166 -1.119903867547328E-011
                   167  2.727009546699057E-010
                   168  2.126594917412036E-006
                   169  9.995389255997855E-006
                   170  1.047393787518949E-004
                   171 -3.421920431521570E-011
                   172 -1.564306609519537E-010
                   173  4.598146348411792E-005
                   174  3.065153364329838E-005
                   175  4.533792850409487E-012
                   176  3.437761582420849E-006
                   177 -1.361683503830086E-005
                   178  2.045745602225348E-011
                   179 -1.965506043742282E-011
                   180 -2.315244829483549E-005
                   181 -2.836438798063537E-005
                   182 -1.382192636696663E-004
                   183 -4.034721790350978E-004
                   184  3.258816329911612E-005
                   185  2.020279831081915E-004
                   186 -4.861894194088232E-005
                   187 -6.418130664515285E-005
                   188  1.429206495891352E-011
                   189  2.684812237983284E-004
                   190  1.238221566354864E-004
                   191 -2.395600703354935E-011
                   192  1.378801009443474E-003
                   193 -3.134559438351999E-004
                   194 -5.997425893982588E-011
                   195  1.350835866419704E-006
                   196  2.243044763693991E-012
                   197  8.176990653615552E-012
                   198 -3.826667230095678E-006
                   199  4.359739414438506E-006
                   200 -9.113473491862937E-006
                   201 -4.517300226288603E-011
                   202  1.000726848157076E-010
                   203 -7.126738985152597E-005
                   204 -2.081164377767804E-004
                   205 -4.453154520310228E-011
                   206 -1.005917183298239E-005
                   207 -4.223547493565032E-006
                   208 -3.210003224237334E-011
                   209  2.422393669424004E-012
                   210  8.063428539854860E-006
                   211 -4.389847318172562E-006
                   212 -5.202704287094832E-005
                   213  9.822892023068764E-005
                   214  1.986826485927636E-005
                   215  2.314642977323815E-005
                   216 -4.067391392762885E-013
                   217 -8.675725119197703E-004
                   218 -6.352311756070580E-004
                   219 -2.442411741817066E-004
                   220  5.918787771563313E-005
                   221  3.278936815730390E-011
                   222 -2.129549082104040E-004
                   223 -6.080903946954233E-004
                   224  2.455042482353602E-005
                   225 -5.953829204360288E-005
                   226 -2.213813139445460E-012
                   227  6.409913345739676E-005
                   228 -6.731645618353702E-004
                   229 -4.469101866475244E-005
                   230 -1.348382932387679E-005
                   231 -9.771137382850749E-012
                   232  5.680434036402748E-006
                   233 -5.034267592624925E-004
                   234  1.235584902189323E-005
                   235 -4.011059836342135E-006
                   236  1.398018814113580E-011
                   237  3.228374094364911E-006
                   238 -3.659464951070052E-004
                   239 -6.495868293773599E-006
                   240 -2.081799335768769E-006
                   241  5.150395855364152E-012
                   242 -6.261297426033841E-005
                   243  9.329209422301082E-005
                   244 -1.962014936977939E-007
                   245  3.091372304882056E-005
                   246 -3.664740797316113E-011
 Sym= __2_A__
 Ene=   2.00000000000000     
 Spin= Alpha
 Occup=    1.00000000000000     
                     1  4.243205192081560E-005
                     2  2.974232613109192E-004
                     3 -3.588533615372275E-003
                     4 -1.025491004691368E-004
                     5 -1.433865125248564E-003
                     6  8.645925889747002E-004
                     7 -3.728274278227965E-003
                     8 -5.932110348512611E-010
                     9  7.848161724971860E-006
                    10  9.906362322221938E-005
                    11  3.170936835624343E-010
                    12 -5.843617103044208E-007
                    13  2.689887683903829E-004
                    14 -8.032344678438677E-011
                    15 -1.925966230278196E-005
                    16 -4.721011617269578E-013
                    17  4.886269907783503E-011
                    18  7.358163912228975E-005
                    19 -2.771690153698503E-005
                    20  1.399534562888226E-004
                    21 -6.762474436680066E-012
                    22 -4.807932196833076E-010
                    23 -4.637885003575500E-005
                    24  1.469956149547230E-004
                    25 -4.058254919571977E-010
                    26  1.548279352087027E-005
                    27 -8.247123959907775E-005
                    28  4.833443710466792E-010
                    29 -6.716370616234725E-011
                    30  6.486149769023690E-005
                    31 -1.376909437774939E-004
                    32  -1.00078609425396     
                    33 -9.330942658999046E-003
                    34 -2.830246952027736E-003
                    35  8.151502134296756E-003
                    36  2.748920847026684E-004
                    37  4.297835129682606E-003
                    38 -2.773093494476183E-010
                    39  2.313202613518764E-004
                    40 -3.253701292403131E-004
                    41  6.092595963326772E-010
                    42  1.176268509057627E-004
                    43 -4.416766918856872E-003
                    44  3.602669848921783E-010
                    45  5.188834474218846E-004
                    46 -2.856267759498729E-011
                    47 -1.310972034128538E-010
                    48  2.222536126395566E-004
                    49 -3.645828295361563E-005
                    50 -5.544824046791713E-004
                    51 -1.165200346582686E-010
                    52 -3.027379470161766E-010
                    53  6.602967478288230E-004
                    54  4.864210493661963E-004
                    55  2.361194333235994E-010
                    56 -1.991193857093962E-005
                    57 -1.041064611265592E-004
                    58 -3.027104762195824E-010
                    59  2.467199415758809E-011
                    60  2.412387498735299E-005
                    61 -3.791107810303328E-004
                    62 -1.396752230905238E-002
                    63  2.234838350606062E-003
                    64  2.122264502963050E-004
                    65 -2.659860044825862E-003
                    66  1.179287672985322E-004
                    67 -3.201142117630012E-004
                    68  9.515187070939150E-011
                    69 -4.675523996468672E-004
                    70 -1.781771701049001E-004
                    71 -2.143865450836417E-010
                    72  2.130354466519341E-003
                    73 -2.438383036958462E-004
                    74 -4.031238921491300E-010
                    75 -3.762489945680023E-005
                    76  1.325122525757145E-011
                    77 -5.341127028018375E-012
                    78  2.650042703374396E-005
                    79 -3.998791763405791E-006
                    80  4.223317980345761E-004
                    81 -1.807007622247484E-010
                    82 -1.019917049834207E-010
                    83  6.966212244844430E-004
                    84  2.488539169347417E-004
                    85 -5.256949798752323E-011
                    86 -3.150128438916238E-005
                    87  5.812055536560982E-005
                    88  1.723204933798463E-011
                    89 -3.292611232446540E-011
                    90 -5.713997359730591E-005
                    91 -1.493702377212685E-004
                    92 -1.773239538046210E-002
                    93  2.314846513238206E-003
                    94  2.951171504538671E-004
                    95 -3.224258514847305E-003
                    96 -5.057508263301018E-004
                    97 -5.077996922053253E-004
                    98  5.500289302327256E-011
                    99  9.913936886322939E-004
                   100  3.162666909503313E-005
                   101 -2.048649121895068E-010
                   102 -1.749109247264481E-003
                   103  4.221989799611792E-005
                   104 -4.015990543621342E-010
                   105 -2.211684297866013E-005
                   106 -5.183292902869123E-012
                   107 -1.808698244163389E-012
                   108  2.240538270752836E-005
                   109 -4.990532597722006E-008
                   110  4.147576733122839E-004
                   111  1.512117059977899E-010
                   112 -1.802100537123732E-010
                   113  3.891632980308194E-004
                   114 -2.299913670313369E-004
                   115 -4.203860665908832E-011
                   116  3.296729524480115E-005
                   117  7.516326374052740E-005
                   118  4.311824151320540E-012
                   119  6.214934663167616E-011
                   120  3.695744665372200E-006
                   121 -1.375182106474397E-004
                   122 -1.200224037157129E-004
                   123  5.824714486377152E-004
                   124 -2.293834282274254E-004
                   125  1.219244047705434E-004
                   126 -9.953196013625643E-007
                   127  5.517325175819603E-004
                   128 -2.833702392010793E-010
                   129  8.152096674497810E-005
                   130 -6.370243234136489E-004
                   131  6.484603879072209E-010
                   132 -3.526775130506534E-004
                   133 -9.780313038341474E-004
                   134  8.622236297717477E-010
                   135 -1.783193825084687E-005
                   136 -6.734844049970239E-011
                   137  4.223505406159433E-011
                   138  9.339450801368024E-007
                   139 -4.834143752236707E-005
                   140 -1.265961337041475E-004
                   141  8.375997469899019E-010
                   142 -8.494039801091863E-011
                   143 -2.640130123972932E-004
                   144  8.967240991279573E-005
                   145  1.403435440458187E-010
                   146 -9.792633624420229E-006
                   147  3.566226348434031E-005
                   148  1.131177853558426E-010
                   149  9.683303043655843E-011
                   150  4.512119260752969E-005
                   151 -4.069114669431075E-005
                   152 -4.884607364964955E-004
                   153  5.280455423724640E-004
                   154 -2.281326807666562E-004
                   155  2.588797241999014E-005
                   156  5.979397501004002E-005
                   157  6.291042049507454E-004
                   158 -2.450124652501906E-010
                   159 -1.431395178457756E-004
                   160 -5.529065720851352E-004