[Molden Format]
[Atoms] AU
  N     1    7     0.0364027500   -4.2533596700    0.0000000000        
  C     2    6     0.1375995500   -1.7109742600   -0.0000000100        
  C     3    6    -2.2056350300   -0.3594812200    0.0000000100        
  C     4    6     2.4220648200   -0.2490576500   -0.0000000300        
  C     5    6    -2.2317425700    2.2213030700   -0.0000000100        
  C     6    6     2.3473557600    2.3263014000    0.0000000000        
  C     7    6     0.0325945800    3.5930318400    0.0000000000        
  H     8    1    -4.2893100900   -7.6180088200    0.0000000200        
  H     9    1     1.8496456200   -4.9751596300    0.0000000000        
  H    10    1    -3.9246478800   -1.4298107700    0.0000000100        
  H    11    1     4.2002260100   -1.2284005400   -0.0000000200        
  H    12    1    -3.9993430400    3.2180974500   -0.0000000300        
  H    13    1     4.0707249800    3.3981636300    0.0000000300        
  H    14    1    -0.0131676700    5.6206795600    0.0000000000        
[5D]
[7F]
[GTO]
  1  0
   s    12 1.00
  0.114200D+05  0.172695D-04
  0.171200D+04  0.134411D-03
  0.389300D+03  0.694561D-03
  0.110000D+03  0.278531D-02
  0.355700D+02  0.863457D-02
  0.125400D+02  0.199805D-01
  0.464400D+01  0.262908D-01
  0.129300D+01 -0.243845D-01
  0.511800D+00 -0.924934D-01
  0.178700D+00 -0.339683D+00
  0.246240D-01  0.345111D+00
  0.112530D-01  0.752750D+00
   s    10 1.00
  0.114200D+05  0.523000D-03
  0.171200D+04  0.404500D-02
  0.389300D+03  0.207750D-01
  0.110000D+03  0.807269D-01
  0.355700D+02  0.233074D+00
  0.125400D+02  0.433501D+00
  0.464400D+01  0.347472D+00
  0.129300D+01  0.412620D-01
  0.511800D+00 -0.850799D-02
  0.178700D+00  0.238400D-02
   s    10 1.00
  0.114200D+05 -0.115000D-03
  0.171200D+04 -0.895000D-03
  0.389300D+03 -0.462400D-02
  0.110000D+03 -0.185280D-01
  0.355700D+02 -0.573390D-01
  0.125400D+02 -0.132076D+00
  0.464400D+01 -0.172510D+00
  0.129300D+01  0.151814D+00
  0.511800D+00  0.599944D+00
  0.178700D+00  0.387462D+00
   s     1 1.00
  0.129300D+01  0.100000D+01
   s     1 1.00
  0.178700D+00  0.100000D+01
   p     5 1.00
  0.266300D+02  0.146700D-01
  0.594800D+01  0.917640D-01
  0.174200D+01  0.298683D+00
  0.555000D+00  0.498487D+00
  0.172500D+00  0.337023D+00
   p     1 1.00
  0.174200D+01  0.100000D+01
   p     1 1.00
  0.555000D+00  0.100000D+01
   d     1 1.00
  0.165400D+01  0.100000D+01
   d     1 1.00
  0.469000D+00  0.100000D+01
   f     1 1.00
  0.109300D+01  0.100000D+01
  
  2  0
   s    10 1.00
  0.823600D+04  0.531000D-03
  0.123500D+04  0.410800D-02
  0.280800D+03  0.210870D-01
  0.792700D+02  0.818530D-01
  0.255900D+02  0.234817D+00
  0.899700D+01  0.434401D+00
  0.331900D+01  0.346129D+00
  0.905900D+00  0.393780D-01
  0.364300D+00 -0.898300D-02
  0.128500D+00  0.238500D-02
   s    10 1.00
  0.823600D+04 -0.113000D-03
  0.123500D+04 -0.878000D-03
  0.280800D+03 -0.454000D-02
  0.792700D+02 -0.181330D-01
  0.255900D+02 -0.557600D-01
  0.899700D+01 -0.126895D+00
  0.331900D+01 -0.170352D+00
  0.905900D+00  0.140382D+00
  0.364300D+00  0.598684D+00
  0.128500D+00  0.395389D+00
   s     1 1.00
  0.905900D+00  0.100000D+01
   s     1 1.00
  0.364300D+00  0.100000D+01
   p     5 1.00
  0.187100D+02  0.140310D-01
  0.413300D+01  0.868660D-01
  0.120000D+01  0.290216D+00
  0.382700D+00  0.501008D+00
  0.120900D+00  0.343406D+00
   p     1 1.00
  0.382700D+00  0.100000D+01
   p     1 1.00
  0.120900D+00  0.100000D+01
   d     1 1.00
  0.109700D+01  0.100000D+01
   d     1 1.00
  0.318000D+00  0.100000D+01
   f     1 1.00
  0.761000D+00  0.100000D+01
  
  3  0
   s    10 1.00
  0.823600D+04  0.531000D-03
  0.123500D+04  0.410800D-02
  0.280800D+03  0.210870D-01
  0.792700D+02  0.818530D-01
  0.255900D+02  0.234817D+00
  0.899700D+01  0.434401D+00
  0.331900D+01  0.346129D+00
  0.905900D+00  0.393780D-01
  0.364300D+00 -0.898300D-02
  0.128500D+00  0.238500D-02
   s    10 1.00
  0.823600D+04 -0.113000D-03
  0.123500D+04 -0.878000D-03
  0.280800D+03 -0.454000D-02
  0.792700D+02 -0.181330D-01
  0.255900D+02 -0.557600D-01
  0.899700D+01 -0.126895D+00
  0.331900D+01 -0.170352D+00
  0.905900D+00  0.140382D+00
  0.364300D+00  0.598684D+00
  0.128500D+00  0.395389D+00
   s     1 1.00
  0.905900D+00  0.100000D+01
   s     1 1.00
  0.364300D+00  0.100000D+01
   p     5 1.00
  0.187100D+02  0.140310D-01
  0.413300D+01  0.868660D-01
  0.120000D+01  0.290216D+00
  0.382700D+00  0.501008D+00
  0.120900D+00  0.343406D+00
   p     1 1.00
  0.382700D+00  0.100000D+01
   p     1 1.00
  0.120900D+00  0.100000D+01
   d     1 1.00
  0.109700D+01  0.100000D+01
   d     1 1.00
  0.318000D+00  0.100000D+01
   f     1 1.00
  0.761000D+00  0.100000D+01
  
  4  0
   s    10 1.00
  0.823600D+04  0.531000D-03
  0.123500D+04  0.410800D-02
  0.280800D+03  0.210870D-01
  0.792700D+02  0.818530D-01
  0.255900D+02  0.234817D+00
  0.899700D+01  0.434401D+00
  0.331900D+01  0.346129D+00
  0.905900D+00  0.393780D-01
  0.364300D+00 -0.898300D-02
  0.128500D+00  0.238500D-02
   s    10 1.00
  0.823600D+04 -0.113000D-03
  0.123500D+04 -0.878000D-03
  0.280800D+03 -0.454000D-02
  0.792700D+02 -0.181330D-01
  0.255900D+02 -0.557600D-01
  0.899700D+01 -0.126895D+00
  0.331900D+01 -0.170352D+00
  0.905900D+00  0.140382D+00
  0.364300D+00  0.598684D+00
  0.128500D+00  0.395389D+00
   s     1 1.00
  0.905900D+00  0.100000D+01
   s     1 1.00
  0.364300D+00  0.100000D+01
   p     5 1.00
  0.187100D+02  0.140310D-01
  0.413300D+01  0.868660D-01
  0.120000D+01  0.290216D+00
  0.382700D+00  0.501008D+00
  0.120900D+00  0.343406D+00
   p     1 1.00
  0.382700D+00  0.100000D+01
   p     1 1.00
  0.120900D+00  0.100000D+01
   d     1 1.00
  0.109700D+01  0.100000D+01
   d     1 1.00
  0.318000D+00  0.100000D+01
   f     1 1.00
  0.761000D+00  0.100000D+01
  
  5  0
   s    10 1.00
  0.823600D+04  0.531000D-03
  0.123500D+04  0.410800D-02
  0.280800D+03  0.210870D-01
  0.792700D+02  0.818530D-01
  0.255900D+02  0.234817D+00
  0.899700D+01  0.434401D+00
  0.331900D+01  0.346129D+00
  0.905900D+00  0.393780D-01
  0.364300D+00 -0.898300D-02
  0.128500D+00  0.238500D-02
   s    10 1.00
  0.823600D+04 -0.113000D-03
  0.123500D+04 -0.878000D-03
  0.280800D+03 -0.454000D-02
  0.792700D+02 -0.181330D-01
  0.255900D+02 -0.557600D-01
  0.899700D+01 -0.126895D+00
  0.331900D+01 -0.170352D+00
  0.905900D+00  0.140382D+00
  0.364300D+00  0.598684D+00
  0.128500D+00  0.395389D+00
   s     1 1.00
  0.905900D+00  0.100000D+01
   s     1 1.00
  0.364300D+00  0.100000D+01
   p     5 1.00
  0.187100D+02  0.140310D-01
  0.413300D+01  0.868660D-01
  0.120000D+01  0.290216D+00
  0.382700D+00  0.501008D+00
  0.120900D+00  0.343406D+00
   p     1 1.00
  0.382700D+00  0.100000D+01
   p     1 1.00
  0.120900D+00  0.100000D+01
   d     1 1.00
  0.109700D+01  0.100000D+01
   d     1 1.00
  0.318000D+00  0.100000D+01
   f     1 1.00
  0.761000D+00  0.100000D+01
  
  6  0
   s    10 1.00
  0.823600D+04  0.531000D-03
  0.123500D+04  0.410800D-02
  0.280800D+03  0.210870D-01
  0.792700D+02  0.818530D-01
  0.255900D+02  0.234817D+00
  0.899700D+01  0.434401D+00
  0.331900D+01  0.346129D+00
  0.905900D+00  0.393780D-01
  0.364300D+00 -0.898300D-02
  0.128500D+00  0.238500D-02
   s    10 1.00
  0.823600D+04 -0.113000D-03
  0.123500D+04 -0.878000D-03
  0.280800D+03 -0.454000D-02
  0.792700D+02 -0.181330D-01
  0.255900D+02 -0.557600D-01
  0.899700D+01 -0.126895D+00
  0.331900D+01 -0.170352D+00
  0.905900D+00  0.140382D+00
  0.364300D+00  0.598684D+00
  0.128500D+00  0.395389D+00
   s     1 1.00
  0.905900D+00  0.100000D+01
   s     1 1.00
  0.364300D+00  0.100000D+01
   p     5 1.00
  0.187100D+02  0.140310D-01
  0.413300D+01  0.868660D-01
  0.120000D+01  0.290216D+00
  0.382700D+00  0.501008D+00
  0.120900D+00  0.343406D+00
   p     1 1.00
  0.382700D+00  0.100000D+01
   p     1 1.00
  0.120900D+00  0.100000D+01
   d     1 1.00
  0.109700D+01  0.100000D+01
   d     1 1.00
  0.318000D+00  0.100000D+01
   f     1 1.00
  0.761000D+00  0.100000D+01
  
  7  0
   s    10 1.00
  0.823600D+04  0.531000D-03
  0.123500D+04  0.410800D-02
  0.280800D+03  0.210870D-01
  0.792700D+02  0.818530D-01
  0.255900D+02  0.234817D+00
  0.899700D+01  0.434401D+00
  0.331900D+01  0.346129D+00
  0.905900D+00  0.393780D-01
  0.364300D+00 -0.898300D-02
  0.128500D+00  0.238500D-02
   s    10 1.00
  0.823600D+04 -0.113000D-03
  0.123500D+04 -0.878000D-03
  0.280800D+03 -0.454000D-02
  0.792700D+02 -0.181330D-01
  0.255900D+02 -0.557600D-01
  0.899700D+01 -0.126895D+00
  0.331900D+01 -0.170352D+00
  0.905900D+00  0.140382D+00
  0.364300D+00  0.598684D+00
  0.128500D+00  0.395389D+00
   s     1 1.00
  0.905900D+00  0.100000D+01
   s     1 1.00
  0.364300D+00  0.100000D+01
   p     5 1.00
  0.187100D+02  0.140310D-01
  0.413300D+01  0.868660D-01
  0.120000D+01  0.290216D+00
  0.382700D+00  0.501008D+00
  0.120900D+00  0.343406D+00
   p     1 1.00
  0.382700D+00  0.100000D+01
   p     1 1.00
  0.120900D+00  0.100000D+01
   d     1 1.00
  0.109700D+01  0.100000D+01
   d     1 1.00
  0.318000D+00  0.100000D+01
   f     1 1.00
  0.761000D+00  0.100000D+01
  
  8  0
   s     4 1.00
  0.130100D+02  0.196850D-01
  0.196200D+01  0.137977D+00
  0.444600D+00  0.478148D+00
  0.122000D+00  0.501240D+00
   s     1 1.00
  0.122000D+00  0.100000D+01
   p     1 1.00
  0.727000D+00  0.100000D+01
  
  9  0
   s     4 1.00
  0.130100D+02  0.196850D-01
  0.196200D+01  0.137977D+00
  0.444600D+00  0.478148D+00
  0.122000D+00  0.501240D+00
   s     1 1.00
  0.122000D+00  0.100000D+01
   p     1 1.00
  0.727000D+00  0.100000D+01
  
 10  0
   s     4 1.00
  0.130100D+02  0.196850D-01
  0.196200D+01  0.137977D+00
  0.444600D+00  0.478148D+00
  0.122000D+00  0.501240D+00
   s     1 1.00
  0.122000D+00  0.100000D+01
   p     1 1.00
  0.727000D+00  0.100000D+01
  
 11  0
   s     4 1.00
  0.130100D+02  0.196850D-01
  0.196200D+01  0.137977D+00
  0.444600D+00  0.478148D+00
  0.122000D+00  0.501240D+00
   s     1 1.00
  0.122000D+00  0.100000D+01
   p     1 1.00
  0.727000D+00  0.100000D+01
  
 12  0
   s     4 1.00
  0.130100D+02  0.196850D-01
  0.196200D+01  0.137977D+00
  0.444600D+00  0.478148D+00
  0.122000D+00  0.501240D+00
   s     1 1.00
  0.122000D+00  0.100000D+01
   p     1 1.00
  0.727000D+00  0.100000D+01
  
 13  0
   s     4 1.00
  0.130100D+02  0.196850D-01
  0.196200D+01  0.137977D+00
  0.444600D+00  0.478148D+00
  0.122000D+00  0.501240D+00
   s     1 1.00
  0.122000D+00  0.100000D+01
   p     1 1.00
  0.727000D+00  0.100000D+01
  
 14  0
   s     4 1.00
  0.130100D+02  0.196850D-01
  0.196200D+01  0.137977D+00
  0.444600D+00  0.478148D+00
  0.122000D+00  0.501240D+00
   s     1 1.00
  0.122000D+00  0.100000D+01
   p     1 1.00
  0.727000D+00  0.100000D+01
  
[MO]
 Sym= __1_a__
 Ene=  0.000000000000000E+000
 Spin= Alpha
 Occup=    2.00000000000000     
                     1  1.100159369253480E-004
                     2  0.998346097321512     
                     3 -2.659819651990850E-003
                     4  1.838065636854420E-003
                     5  6.559738790782870E-003
                     6  2.767748996275630E-003
                     7  6.001512312927330E-003
                     8  1.420626605361220E-010
                     9 -7.017945333037009E-004
                    10 -7.430235204838810E-004
                    11 -5.575718180066050E-011
                    12 -2.472904799836990E-003
                    13 -1.952230379347070E-003
                    14  9.680765518503720E-011
                    15 -3.084695985925871E-005
                    16 -1.516639343340820E-012
                    17 -1.315260991868590E-011
                    18 -1.549398843250826E-004
                    19 -6.391805706260630E-005
                    20  8.910415083915228E-005
                    21  1.182819643854140E-011
                    22  1.443268872087630E-010
                    23 -2.277828341277440E-004
                    24  5.020677264772150E-004
                    25  1.626002744484399E-010
                    26 -4.754662565501700E-006
                    27 -5.035344942207710E-005
                    28 -1.580234562464942E-010
                    29  1.917265647589080E-010
                    30  3.337055438400775E-005
                    31 -1.110011701472054E-004
                    32 -3.790561257132280E-004
                    33  1.796276096094790E-004
                    34  3.278474397677150E-004
                    35 -1.226375055923020E-004
                    36 -3.553501821582630E-005
                    37 -2.701289867863260E-003
                    38  1.795725095242470E-010
                    39  3.713441690696710E-004
                    40  2.263334003822320E-004
                    41 -2.440964361507950E-010
                    42 -2.185101307942060E-003
                    43  5.072077004210650E-003
                    44  5.123110516436690E-011
                    45  5.065916135934062E-006
                    46  2.749916032269610E-012
                    47  5.033343604647790E-011
                    48 -1.316721267959288E-004
                    49  1.399252864141280E-005
                    50 -1.969252930032834E-004
                    51 -2.746435017904420E-011
                    52  8.764286856950630E-011
                    53  2.226382815705800E-005
                    54  7.828151566759390E-004
                    55 -9.629233038750029E-011
                    56 -2.247658133249767E-006
                    57 -7.364955671137395E-005
                    58  7.597382188046000E-011
                    59  3.527111178401070E-011
                    60  1.695051932063912E-005
                    61 -1.280497348959920E-004
                    62 -5.554555271168330E-004
                    63 -2.216005817158050E-003
                    64 -8.794639753095520E-005
                    65  2.262948598005120E-003
                    66 -5.029368445872880E-004
                    67  1.396619605858840E-004
                    68 -6.168707639607930E-012
                    69  3.824348312129230E-004
                    70  9.053441968492150E-004
                    71 -1.693324427826510E-012
                    72 -1.794313710831760E-003
                    73  6.857805868257610E-004
                    74 -1.170118356729630E-010
                    75 -4.456537457115769E-005
                    76  1.121848968872810E-011
                    77  1.644670895315010E-011
                    78 -6.311378520957260E-005
                    79 -2.324196181761010E-005
                    80 -1.340051350296653E-004
                    81  2.287499504354670E-012
                    82 -6.247363101209250E-011
                    83  3.159459118566520E-005
                    84  1.234016479887410E-005
                    85  6.346292394820375E-011
                    86  9.714248101608738E-006
                    87 -4.665896652817165E-005
                    88 -4.567885329172280E-011
                    89 -8.992336551867481E-012
                    90 -3.013926938811291E-005
                    91 -1.548064157112012E-004
                    92 -1.782861267388700E-004
                    93 -6.569923818472520E-004
                    94  1.614579329916580E-004
                    95 -7.876799819047720E-005
                    96  2.206110810459980E-004
                    97  2.804767368376460E-005
                    98 -1.941457297543350E-011
                    99  3.388193726419190E-004
                   100  3.852290850163870E-004
                   101  2.974202184429240E-011
                   102  6.354564675115680E-004
                   103 -1.773888314613650E-003
                   104 -9.475765614470651E-011
                   105 -1.149268597149428E-005
                   106 -5.354179687791870E-012
                   107  2.235911006679090E-011
                   108 -4.498750356888600E-005
                   109 -1.512999581725570E-005
                   110  8.580368576060715E-005
                   111  1.445459670633840E-012
                   112 -7.797321214401360E-011
                   113 -1.657332041697298E-004
                   114  8.063498074144940E-005
                   115  4.930294005999187E-011
                   116 -1.931693372412922E-005
                   117 -2.258094134775750E-005
                   118 -4.673802675761760E-011
                   119 -2.192142927395600E-012
                   120 -1.302019869165329E-005
                   121 -3.635419542318101E-005
                   122 -2.459386676399070E-004
                   123 -6.005075024248450E-004
                   124  1.718786518548600E-004
                   125  3.088944590439960E-004
                   126 -2.816270620040090E-005
                   127 -3.355885891625270E-004
                   128 -3.707079227170460E-012
                   129  2.310935500819120E-004
                   130  6.630971643448379E-004
                   131 -3.800051940766150E-012
                   132  4.185568715390680E-004
                   133  2.043260863698620E-003
                   134  1.114163489489120E-010
                   135  1.418780974773392E-005
                   136  7.849344458816901E-012
                   137  3.568979355289300E-010
                   138  4.664369112159600E-005
                   139 -3.745739397343600E-007
                   140  2.068968897129164E-004
                   141  2.197571106355720E-011
                   142 -2.422821050616170E-010
                   143  4.018303074748940E-004
                   144  2.414168285428420E-004
                   145 -3.999958739828013E-012
                   146 -1.142741245052373E-005
                   147 -6.515706608479436E-005
                   148  1.625286435832756E-011
                   149  7.900747537797449E-012
                   150 -1.621211181423335E-005
                   151 -5.377279904071903E-005
                   152 -1.331335438651590E-004
                   153 -3.611946262744720E-004
                   154  5.491631798978180E-005
                   155  1.946045920983560E-004
                   156  8.129417144670910E-006
                   157 -9.279613189779801E-005
                   158 -4.051746751402110E-011
                   159  1.191684803519290E-005
                   160  5.052186231453230E-005
                   161  7.686764709020740E-011
                   162  7.552565428869930E-004
                   163 -3.846875362011150E-004
                   164  9.141253773168880E-011
                   165  1.689684965387540E-006
                   166 -1.121613847744410E-011
                   167  2.727976181075170E-010
                   168  2.126594743469380E-006
                   169  9.995389184251510E-006
                   170  1.047393785174284E-004
                   171 -3.486637784188270E-011
                   172 -1.568715312205080E-010
                   173  4.598146299278500E-005
                   174  3.065153381751220E-005
                   175  4.453601486293080E-012
                   176  3.437761589713242E-006
                   177 -1.361683494322083E-005
                   178  2.125839724353740E-011
                   179 -1.885792632487770E-011
                   180 -2.315244833624501E-005
                   181 -2.836438793247905E-005
                   182 -1.382192634380840E-004
                   183 -4.034721791377510E-004
                   184  3.258816324840310E-005
                   185  2.020279828966530E-004
                   186 -4.861894175222910E-005
                   187 -6.418130543628811E-005
                   188  1.579312661469610E-011
                   189  2.684812241827000E-004
                   190  1.238221564832440E-004
                   191 -2.275411502160990E-011
                   192  1.378801013206550E-003
                   193 -3.134559435042070E-004
                   194 -6.353772717506300E-011
                   195  1.350835867329984E-006
                   196  2.930819033338940E-012
                   197  7.684381229904770E-012
                   198 -3.826667308541260E-006
                   199  4.359739378933670E-006
                   200 -9.113473463396255E-006
                   201 -4.541891941949130E-011
                   202  1.007141305858530E-010
                   203 -7.126738977053861E-005
                   204 -2.081164382420490E-004
                   205 -4.435343371237371E-011
                   206 -1.005917184414712E-005
                   207 -4.223547478109364E-006
                   208 -3.225185001465160E-011
                   209  1.839411730726510E-012
                   210  8.063428577098871E-006
                   211 -4.389847288938548E-006
                   212 -5.202704295076320E-005
                   213  9.822892007194360E-005
                   214  1.986826488946940E-005
                   215  2.314642977626770E-005
                   216 -8.614134035170740E-013
                   217 -8.675724647904530E-004
                   218 -6.352311943374300E-004
                   219 -2.442411773188070E-004
                   220  5.918787861190140E-005
                   221  3.470921311991190E-011
                   222 -2.129549104291160E-004
                   223 -6.080903923829540E-004
                   224  2.455042483717730E-005
                   225 -5.953829222888040E-005
                   226 -3.251940594308050E-012
                   227  6.409913145294560E-005
                   228 -6.731645578145640E-004
                   229 -4.469101841064350E-005
                   230 -1.348382926298600E-005
                   231 -8.815346299347221E-012
                   232  5.680436155841090E-006
                   233 -5.034267586980490E-004
                   234  1.235584914750090E-005
                   235 -4.011059849659110E-006
                   236  1.382200928364450E-011
                   237  3.228371496172710E-006
                   238 -3.659464932251610E-004
                   239 -6.495868192516130E-006
                   240 -2.081799315781360E-006
                   241  5.143542115239250E-012
                   242 -6.261297305691901E-005
                   243  9.329209433452210E-005
                   244 -1.962015028609740E-007
                   245  3.091372294374390E-005
                   246 -3.733682054169100E-011
 Sym= __2_a__
 Ene=  0.000000000000000E+000
 Spin= Alpha
 Occup=    2.00000000000000     
                     1  4.243205175478730E-005
                     2  2.974232592619230E-004
                     3 -3.588533659831230E-003
                     4 -1.025491001603100E-004
                     5 -1.433865112448360E-003
                     6  8.645925513640490E-004
                     7 -3.728274224506560E-003
                     8 -6.178161599449360E-010
                     9  7.848160592272150E-006
                    10  9.906362355680979E-005
                    11  3.172936298348720E-010
                    12 -5.843592065236360E-007
                    13  2.689887655334590E-004
                    14 -8.139509245281970E-011
                    15 -1.925966195778579E-005
                    16 -9.272265167793231E-013
                    17  4.828981573403800E-011
                    18  7.358163764442100E-005
                    19 -2.771690052199480E-005
                    20  1.399534556005498E-004
                    21 -6.932638434038870E-012
                    22 -4.810317560228240E-010
                    23 -4.637885202017100E-005
                    24  1.469956147346880E-004
                    25 -4.058259684744936E-010
                    26  1.548279384527664E-005
                    27 -8.247124004688428E-005
                    28  4.833507868356300E-010
                    29 -6.702838243873760E-011
                    30  6.486149776331364E-005
                    31 -1.376909436942035E-004
                    32  -1.00078609425783     
                    33 -9.330942632174681E-003
                    34 -2.830246950941170E-003
                    35  8.151502132678280E-003
                    36  2.748920999149580E-004
                    37  4.297835104526260E-003
                    38 -3.276900275062460E-010
                    39  2.313202567623050E-004
                    40 -3.253701282033300E-004
                    41  6.263056382259450E-010
                    42  1.176268565731640E-004
                    43 -4.416766901364440E-003
                    44  3.682854807866580E-010
                    45  5.188834470763332E-004
                    46 -2.874148939919070E-011
                    47 -1.311941920699630E-010
                    48  2.222536121698240E-004
                    49 -3.645828169109140E-005
                    50 -5.544824049852375E-004
                    51 -1.170293110121330E-010
                    52 -3.005898305054990E-010
                    53  6.602967469431280E-004
                    54  4.864210480088150E-004
                    55  2.360021600371111E-010
                    56 -1.991193854676930E-005
                    57 -1.041064608391594E-004
                    58 -3.021570932042260E-010
                    59  2.433602864735790E-011
                    60  2.412387451873539E-005
                    61 -3.791107804040466E-004
                    62 -1.396752224493640E-002
                    63  2.234838343111620E-003
                    64  2.122264513488360E-004
                    65 -2.659860047807940E-003
                    66  1.179287562723260E-004
                    67 -3.201142076228230E-004
                    68  8.018907977802161E-011
                    69 -4.675524007232290E-004
                    70 -1.781771699863700E-004
                    71 -2.169912241957200E-010
                    72  2.130354463929720E-003
                    73 -2.438383078536190E-004
                    74 -4.025161745035540E-010
                    75 -3.762489935141772E-005
                    76  1.302788819136610E-011
                    77 -5.339568844335130E-012
                    78  2.650042668465300E-005
                    79 -3.998791547826180E-006
                    80  4.223317984888979E-004
                    81 -1.832438473225790E-010
                    82 -1.019412216755180E-010
                    83  6.966212227728320E-004
                    84  2.488539170323100E-004
                    85 -5.321354423671013E-011
                    86 -3.150128427548352E-005
                    87  5.812055537860894E-005
                    88  1.695923203551936E-011
                    89 -3.235452144109350E-011
                    90 -5.713997329490888E-005
                    91 -1.493702374612574E-004
                    92 -1.773239529369160E-002
                    93  2.314846519467230E-003
                    94  2.951171502730960E-004
                    95 -3.224258512392860E-003
                    96 -5.057508300968971E-004
                    97 -5.077997067650431E-004
                    98  4.084276434668780E-011
                    99  9.913936865757081E-004
                   100  3.162666991137490E-005
                   101 -2.064992782904810E-010
                   102 -1.749109238705630E-003
                   103  4.221990612630930E-005
                   104 -3.992840885233750E-010
                   105 -2.211684320637951E-005
                   106 -4.751447779465570E-012
                   107 -1.526671395059740E-012
                   108  2.240538282651820E-005
                   109 -4.990485750089100E-008
                   110  4.147576729839321E-004
                   111  1.533284398956170E-010
                   112 -1.804748734755280E-010
                   113  3.891632983473760E-004
                   114 -2.299913660180390E-004
                   115 -4.275397644213369E-011
                   116  3.296729535124458E-005
                   117  7.516326381986901E-005
                   118  3.815198827519100E-012
                   119  6.234694050722240E-011
                   120  3.695744518319447E-006
                   121 -1.375182108362070E-004
                   122 -1.200224058367230E-004
                   123  5.824714497023730E-004
                   124 -2.293834282677030E-004
                   125  1.219244054061200E-004
                   126 -9.953184921526950E-007
                   127  5.517325159435310E-004
                   128 -2.912422602840970E-010
                   129  8.152096641757429E-005
                   130 -6.370243235604490E-004
                   131  6.480501769064911E-010
                   132 -3.526775147744700E-004
                   133 -9.780313056924430E-004
                   134  8.635095441678050E-010
                   135 -1.783193825923695E-005
                   136 -6.756155860160450E-011
                   137  4.259273840536170E-011
                   138  9.339450275702560E-007
                   139 -4.834143724765700E-005
                   140 -1.265961338353056E-004
                   141  8.379848845181840E-010
                   142 -8.534024207226779E-011
                   143 -2.640130124425380E-004
                   144  8.967241007454480E-005
                   145  1.402197558497015E-010
                   146 -9.792633583728799E-006
                   147  3.566226353034578E-005
                   148  1.128642137668570E-010
                   149  9.696988703111340E-011
                   150  4.512119251230866E-005
                   151 -4.069114657876877E-005
                   152 -4.884607167273550E-004
                   153  5.280455378369380E-004
                   154 -2.281326805860060E-004
                   155  2.588797408671610E-005
                   156  5.979397626332890E-005
                   157  6.291042124605570E-004
                   158 -2.526842779844250E-010
                   159 -1.431395185814250E-004
                   160 -5.529065724049890E-004