[Molden Format]
[Atoms] AU
  N     1    7     0.0364027500   -4.2533596700    0.0000000000        
  C     2    6     0.1375995500   -1.7109742600   -0.0000000100        
  C     3    6    -2.2056350300   -0.3594812200    0.0000000100        
  C     4    6     2.4220648200   -0.2490576500   -0.0000000300        
  C     5    6    -2.2317425700    2.2213030700   -0.0000000100        
  C     6    6     2.3473557600    2.3263014000    0.0000000000        
  C     7    6     0.0325945800    3.5930318400    0.0000000000        
  H     8    1    -4.2893100900   -7.6180088200    0.0000000200        
  H     9    1     1.8496456200   -4.9751596300    0.0000000000        
  H    10    1    -3.9246478800   -1.4298107700    0.0000000100        
  H    11    1     4.2002260100   -1.2284005400   -0.0000000200        
  H    12    1    -3.9993430400    3.2180974500   -0.0000000300        
  H    13    1     4.0707249800    3.3981636300    0.0000000300        
  H    14    1    -0.0131676700    5.6206795600    0.0000000000        
[5D]
[7F]
[GTO]
  1  0
   s    12 1.00
  0.114200D+05  0.172695D-04
  0.171200D+04  0.134411D-03
  0.389300D+03  0.694561D-03
  0.110000D+03  0.278531D-02
  0.355700D+02  0.863457D-02
  0.125400D+02  0.199805D-01
  0.464400D+01  0.262908D-01
  0.129300D+01 -0.243845D-01
  0.511800D+00 -0.924934D-01
  0.178700D+00 -0.339683D+00
  0.246240D-01  0.345111D+00
  0.112530D-01  0.752750D+00
   s    10 1.00
  0.114200D+05  0.523000D-03
  0.171200D+04  0.404500D-02
  0.389300D+03  0.207750D-01
  0.110000D+03  0.807269D-01
  0.355700D+02  0.233074D+00
  0.125400D+02  0.433501D+00
  0.464400D+01  0.347472D+00
  0.129300D+01  0.412620D-01
  0.511800D+00 -0.850799D-02
  0.178700D+00  0.238400D-02
   s    10 1.00
  0.114200D+05 -0.115000D-03
  0.171200D+04 -0.895000D-03
  0.389300D+03 -0.462400D-02
  0.110000D+03 -0.185280D-01
  0.355700D+02 -0.573390D-01
  0.125400D+02 -0.132076D+00
  0.464400D+01 -0.172510D+00
  0.129300D+01  0.151814D+00
  0.511800D+00  0.599944D+00
  0.178700D+00  0.387462D+00
   s     1 1.00
  0.129300D+01  0.100000D+01
   s     1 1.00
  0.178700D+00  0.100000D+01
   p     5 1.00
  0.266300D+02  0.146700D-01
  0.594800D+01  0.917640D-01
  0.174200D+01  0.298683D+00
  0.555000D+00  0.498487D+00
  0.172500D+00  0.337023D+00
   p     1 1.00
  0.174200D+01  0.100000D+01
   p     1 1.00
  0.555000D+00  0.100000D+01
   d     1 1.00
  0.165400D+01  0.100000D+01
   d     1 1.00
  0.469000D+00  0.100000D+01
   f     1 1.00
  0.109300D+01  0.100000D+01
  
  2  0
   s    10 1.00
  0.823600D+04  0.531000D-03
  0.123500D+04  0.410800D-02
  0.280800D+03  0.210870D-01
  0.792700D+02  0.818530D-01
  0.255900D+02  0.234817D+00
  0.899700D+01  0.434401D+00
  0.331900D+01  0.346129D+00
  0.905900D+00  0.393780D-01
  0.364300D+00 -0.898300D-02
  0.128500D+00  0.238500D-02
   s    10 1.00
  0.823600D+04 -0.113000D-03
  0.123500D+04 -0.878000D-03
  0.280800D+03 -0.454000D-02
  0.792700D+02 -0.181330D-01
  0.255900D+02 -0.557600D-01
  0.899700D+01 -0.126895D+00
  0.331900D+01 -0.170352D+00
  0.905900D+00  0.140382D+00
  0.364300D+00  0.598684D+00
  0.128500D+00  0.395389D+00
   s     1 1.00
  0.905900D+00  0.100000D+01
   s     1 1.00
  0.364300D+00  0.100000D+01
   p     5 1.00
  0.187100D+02  0.140310D-01
  0.413300D+01  0.868660D-01
  0.120000D+01  0.290216D+00
  0.382700D+00  0.501008D+00
  0.120900D+00  0.343406D+00
   p     1 1.00
  0.382700D+00  0.100000D+01
   p     1 1.00
  0.120900D+00  0.100000D+01
   d     1 1.00
  0.109700D+01  0.100000D+01
   d     1 1.00
  0.318000D+00  0.100000D+01
   f     1 1.00
  0.761000D+00  0.100000D+01
  
  3  0
   s    10 1.00
  0.823600D+04  0.531000D-03
  0.123500D+04  0.410800D-02
  0.280800D+03  0.210870D-01
  0.792700D+02  0.818530D-01
  0.255900D+02  0.234817D+00
  0.899700D+01  0.434401D+00
  0.331900D+01  0.346129D+00
  0.905900D+00  0.393780D-01
  0.364300D+00 -0.898300D-02
  0.128500D+00  0.238500D-02
   s    10 1.00
  0.823600D+04 -0.113000D-03
  0.123500D+04 -0.878000D-03
  0.280800D+03 -0.454000D-02
  0.792700D+02 -0.181330D-01
  0.255900D+02 -0.557600D-01
  0.899700D+01 -0.126895D+00
  0.331900D+01 -0.170352D+00
  0.905900D+00  0.140382D+00
  0.364300D+00  0.598684D+00
  0.128500D+00  0.395389D+00
   s     1 1.00
  0.905900D+00  0.100000D+01
   s     1 1.00
  0.364300D+00  0.100000D+01
   p     5 1.00
  0.187100D+02  0.140310D-01
  0.413300D+01  0.868660D-01
  0.120000D+01  0.290216D+00
  0.382700D+00  0.501008D+00
  0.120900D+00  0.343406D+00
   p     1 1.00
  0.382700D+00  0.100000D+01
   p     1 1.00
  0.120900D+00  0.100000D+01
   d     1 1.00
  0.109700D+01  0.100000D+01
   d     1 1.00
  0.318000D+00  0.100000D+01
   f     1 1.00
  0.761000D+00  0.100000D+01
  
  4  0
   s    10 1.00
  0.823600D+04  0.531000D-03
  0.123500D+04  0.410800D-02
  0.280800D+03  0.210870D-01
  0.792700D+02  0.818530D-01
  0.255900D+02  0.234817D+00
  0.899700D+01  0.434401D+00
  0.331900D+01  0.346129D+00
  0.905900D+00  0.393780D-01
  0.364300D+00 -0.898300D-02
  0.128500D+00  0.238500D-02
   s    10 1.00
  0.823600D+04 -0.113000D-03
  0.123500D+04 -0.878000D-03
  0.280800D+03 -0.454000D-02
  0.792700D+02 -0.181330D-01
  0.255900D+02 -0.557600D-01
  0.899700D+01 -0.126895D+00
  0.331900D+01 -0.170352D+00
  0.905900D+00  0.140382D+00
  0.364300D+00  0.598684D+00
  0.128500D+00  0.395389D+00
   s     1 1.00
  0.905900D+00  0.100000D+01
   s     1 1.00
  0.364300D+00  0.100000D+01
   p     5 1.00
  0.187100D+02  0.140310D-01
  0.413300D+01  0.868660D-01
  0.120000D+01  0.290216D+00
  0.382700D+00  0.501008D+00
  0.120900D+00  0.343406D+00
   p     1 1.00
  0.382700D+00  0.100000D+01
   p     1 1.00
  0.120900D+00  0.100000D+01
   d     1 1.00
  0.109700D+01  0.100000D+01
   d     1 1.00
  0.318000D+00  0.100000D+01
   f     1 1.00
  0.761000D+00  0.100000D+01
  
  5  0
   s    10 1.00
  0.823600D+04  0.531000D-03
  0.123500D+04  0.410800D-02
  0.280800D+03  0.210870D-01
  0.792700D+02  0.818530D-01
  0.255900D+02  0.234817D+00
  0.899700D+01  0.434401D+00
  0.331900D+01  0.346129D+00
  0.905900D+00  0.393780D-01
  0.364300D+00 -0.898300D-02
  0.128500D+00  0.238500D-02
   s    10 1.00
  0.823600D+04 -0.113000D-03
  0.123500D+04 -0.878000D-03
  0.280800D+03 -0.454000D-02
  0.792700D+02 -0.181330D-01
  0.255900D+02 -0.557600D-01
  0.899700D+01 -0.126895D+00
  0.331900D+01 -0.170352D+00
  0.905900D+00  0.140382D+00
  0.364300D+00  0.598684D+00
  0.128500D+00  0.395389D+00
   s     1 1.00
  0.905900D+00  0.100000D+01
   s     1 1.00
  0.364300D+00  0.100000D+01
   p     5 1.00
  0.187100D+02  0.140310D-01
  0.413300D+01  0.868660D-01
  0.120000D+01  0.290216D+00
  0.382700D+00  0.501008D+00
  0.120900D+00  0.343406D+00
   p     1 1.00
  0.382700D+00  0.100000D+01
   p     1 1.00
  0.120900D+00  0.100000D+01
   d     1 1.00
  0.109700D+01  0.100000D+01
   d     1 1.00
  0.318000D+00  0.100000D+01
   f     1 1.00
  0.761000D+00  0.100000D+01
  
  6  0
   s    10 1.00
  0.823600D+04  0.531000D-03
  0.123500D+04  0.410800D-02
  0.280800D+03  0.210870D-01
  0.792700D+02  0.818530D-01
  0.255900D+02  0.234817D+00
  0.899700D+01  0.434401D+00
  0.331900D+01  0.346129D+00
  0.905900D+00  0.393780D-01
  0.364300D+00 -0.898300D-02
  0.128500D+00  0.238500D-02
   s    10 1.00
  0.823600D+04 -0.113000D-03
  0.123500D+04 -0.878000D-03
  0.280800D+03 -0.454000D-02
  0.792700D+02 -0.181330D-01
  0.255900D+02 -0.557600D-01
  0.899700D+01 -0.126895D+00
  0.331900D+01 -0.170352D+00
  0.905900D+00  0.140382D+00
  0.364300D+00  0.598684D+00
  0.128500D+00  0.395389D+00
   s     1 1.00
  0.905900D+00  0.100000D+01
   s     1 1.00
  0.364300D+00  0.100000D+01
   p     5 1.00
  0.187100D+02  0.140310D-01
  0.413300D+01  0.868660D-01
  0.120000D+01  0.290216D+00
  0.382700D+00  0.501008D+00
  0.120900D+00  0.343406D+00
   p     1 1.00
  0.382700D+00  0.100000D+01
   p     1 1.00
  0.120900D+00  0.100000D+01
   d     1 1.00
  0.109700D+01  0.100000D+01
   d     1 1.00
  0.318000D+00  0.100000D+01
   f     1 1.00
  0.761000D+00  0.100000D+01
  
  7  0
   s    10 1.00
  0.823600D+04  0.531000D-03
  0.123500D+04  0.410800D-02
  0.280800D+03  0.210870D-01
  0.792700D+02  0.818530D-01
  0.255900D+02  0.234817D+00
  0.899700D+01  0.434401D+00
  0.331900D+01  0.346129D+00
  0.905900D+00  0.393780D-01
  0.364300D+00 -0.898300D-02
  0.128500D+00  0.238500D-02
   s    10 1.00
  0.823600D+04 -0.113000D-03
  0.123500D+04 -0.878000D-03
  0.280800D+03 -0.454000D-02
  0.792700D+02 -0.181330D-01
  0.255900D+02 -0.557600D-01
  0.899700D+01 -0.126895D+00
  0.331900D+01 -0.170352D+00
  0.905900D+00  0.140382D+00
  0.364300D+00  0.598684D+00
  0.128500D+00  0.395389D+00
   s     1 1.00
  0.905900D+00  0.100000D+01
   s     1 1.00
  0.364300D+00  0.100000D+01
   p     5 1.00
  0.187100D+02  0.140310D-01
  0.413300D+01  0.868660D-01
  0.120000D+01  0.290216D+00
  0.382700D+00  0.501008D+00
  0.120900D+00  0.343406D+00
   p     1 1.00
  0.382700D+00  0.100000D+01
   p     1 1.00
  0.120900D+00  0.100000D+01
   d     1 1.00
  0.109700D+01  0.100000D+01
   d     1 1.00
  0.318000D+00  0.100000D+01
   f     1 1.00
  0.761000D+00  0.100000D+01
  
  8  0
   s     4 1.00
  0.130100D+02  0.196850D-01
  0.196200D+01  0.137977D+00
  0.444600D+00  0.478148D+00
  0.122000D+00  0.501240D+00
   s     1 1.00
  0.122000D+00  0.100000D+01
   p     1 1.00
  0.727000D+00  0.100000D+01
  
  9  0
   s     4 1.00
  0.130100D+02  0.196850D-01
  0.196200D+01  0.137977D+00
  0.444600D+00  0.478148D+00
  0.122000D+00  0.501240D+00
   s     1 1.00
  0.122000D+00  0.100000D+01
   p     1 1.00
  0.727000D+00  0.100000D+01
  
 10  0
   s     4 1.00
  0.130100D+02  0.196850D-01
  0.196200D+01  0.137977D+00
  0.444600D+00  0.478148D+00
  0.122000D+00  0.501240D+00
   s     1 1.00
  0.122000D+00  0.100000D+01
   p     1 1.00
  0.727000D+00  0.100000D+01
  
 11  0
   s     4 1.00
  0.130100D+02  0.196850D-01
  0.196200D+01  0.137977D+00
  0.444600D+00  0.478148D+00
  0.122000D+00  0.501240D+00
   s     1 1.00
  0.122000D+00  0.100000D+01
   p     1 1.00
  0.727000D+00  0.100000D+01
  
 12  0
   s     4 1.00
  0.130100D+02  0.196850D-01
  0.196200D+01  0.137977D+00
  0.444600D+00  0.478148D+00
  0.122000D+00  0.501240D+00
   s     1 1.00
  0.122000D+00  0.100000D+01
   p     1 1.00
  0.727000D+00  0.100000D+01
  
 13  0
   s     4 1.00
  0.130100D+02  0.196850D-01
  0.196200D+01  0.137977D+00
  0.444600D+00  0.478148D+00
  0.122000D+00  0.501240D+00
   s     1 1.00
  0.122000D+00  0.100000D+01
   p     1 1.00
  0.727000D+00  0.100000D+01
  
 14  0
   s     4 1.00
  0.130100D+02  0.196850D-01
  0.196200D+01  0.137977D+00
  0.444600D+00  0.478148D+00
  0.122000D+00  0.501240D+00
   s     1 1.00
  0.122000D+00  0.100000D+01
   p     1 1.00
  0.727000D+00  0.100000D+01
  
[MO]
 Sym= __1_A__
 Ene=  0.000000000000000E+000
 Spin= Alpha
 Occup=    2.00000000000000     
                     1  1.100159367924022E-004
                     2  0.998346097322267     
                     3 -2.659819684040093E-003
                     4  1.838065636236833E-003
                     5  6.559738797722999E-003
                     6  2.767748972949368E-003
                     7  6.001512342888953E-003
                     8  1.322084400944797E-010
                     9 -7.017945339231333E-004
                    10 -7.430235202061410E-004
                    11 -5.673848819042785E-011
                    12 -2.472904798185491E-003
                    13 -1.952230380820984E-003
                    14  7.630739971526327E-011
                    15 -3.084695960918557E-005
                    16 -4.323075610329142E-013
                    17 -1.330049991553098E-011
                    18 -1.549398851877804E-004
                    19 -6.391805643279304E-005
                    20  8.910415047701073E-005
                    21  1.291861854322192E-011
                    22  1.459496154103690E-010
                    23 -2.277828351017436E-004
                    24  5.020677261500290E-004
                    25  1.626526474984831E-010
                    26 -4.754662358807738E-006
                    27 -5.035344963670786E-005
                    28 -1.582025671749367E-010
                    29  1.918734541191210E-010
                    30  3.337055440861150E-005
                    31 -1.110011700322644E-004
                    32 -3.790561257941316E-004
                    33  1.796276247644748E-004
                    34  3.278474398344536E-004
                    35 -1.226375067648677E-004
                    36 -3.553501038409229E-005
                    37 -2.701289880178777E-003
                    38  1.398657774153746E-010
                    39  3.713441672163335E-004
                    40  2.263334012569118E-004
                    41 -2.396865842121469E-010
                    42 -2.185101303373511E-003
                    43  5.072077013131463E-003
                    44  4.594341287022019E-011
                    45  5.065915951199145E-006
                    46  2.618020581000801E-012
                    47  4.999514237642583E-011
                    48 -1.316721269349169E-004
                    49  1.399252938602243E-005
                    50 -1.969252931030350E-004
                    51 -2.601859237241575E-011
                    52  9.086952267584898E-011
                    53  2.226382776578464E-005
                    54  7.828151558701851E-004
                    55 -9.669567475683113E-011
                    56 -2.247658125304716E-006
                    57 -7.364955661652352E-005
                    58  7.528609554449862E-011
                    59  3.655990182842409E-011
                    60  1.695051903840039E-005
                    61 -1.280497345558590E-004
                    62 -5.554555271569167E-004
                    63 -2.216005821141938E-003
                    64 -8.794639703655210E-005
                    65  2.262948596159994E-003
                    66 -5.029368506287113E-004
                    67  1.396619625278072E-004
                    68 -2.619501027166420E-011
                    69  3.824348305072608E-004
                    70  9.053441967511097E-004
                    71 -4.038572375057336E-012
                    72 -1.794313711899482E-003
                    73  6.857805840429973E-004
                    74 -1.140426162841115E-010
                    75 -4.456537449764716E-005
                    76  1.023133540526201E-011
                    77  1.661992874194014E-011
                    78 -6.311378535737035E-005
                    79 -2.324196168480056E-005
                    80 -1.340051347657075E-004
                    81  3.457793195427099E-012
                    82 -6.193955363161758E-011
                    83  3.159459014518764E-005
                    84  1.234016470041265E-005
                    85  6.315151414148936E-011
                    86  9.714248165820708E-006
                    87 -4.665896650291070E-005
                    88 -4.593325766010324E-011
                    89 -9.212627270669012E-012
                    90 -3.013926921544018E-005
                    91 -1.548064155313710E-004
                    92 -1.782861271701031E-004
                    93 -6.569923780956733E-004
                    94  1.614579327264247E-004
                    95 -7.876799628583397E-005
                    96  2.206110787039280E-004
                    97  2.804766445046826E-005
                    98 -3.608131179514227E-011
                    99  3.388193715526900E-004
                   100  3.852290857345796E-004
                   101  2.657871284513701E-011
                   102  6.354564725793647E-004
                   103 -1.773888309130264E-003
                   104 -8.980852028194258E-011
                   105 -1.149268607904921E-005
                   106 -3.960530986159206E-012
                   107  2.217653233118525E-011
                   108 -4.498750347029688E-005
                   109 -1.512999556574134E-005
                   110  8.580368555795301E-005
                   111  3.051283597004265E-012
                   112 -7.857849766572914E-011
                   113 -1.657332039895480E-004
                   114  8.063498136377840E-005
                   115  4.804536732671351E-011
                   116 -1.931693366439909E-005
                   117 -2.258094130532218E-005
                   118 -4.713659887393916E-011
                   119 -2.311591526551751E-012
                   120 -1.302019875773035E-005
                   121 -3.635419556829658E-005
                   122 -2.459386677841194E-004
                   123 -6.005075018591657E-004
                   124  1.718786518302198E-004
                   125  3.088944591849707E-004
                   126 -2.816270568374511E-005
                   127 -3.355885896236184E-004
                   128 -1.357801891506546E-011
                   129  2.310935498884334E-004
                   130  6.630971641133135E-004
                   131 -4.357615538157112E-012
                   132  4.185568704377798E-004
                   133  2.043260861772002E-003
                   134  1.125455456007600E-010
                   135  1.418780974381610E-005
                   136  7.867974406441481E-012
                   137  3.567698945035654E-010
                   138  4.664369109351960E-005
                   139 -3.745737843807627E-007
                   140  2.068968896182278E-004
                   141  2.225014923715430E-011
                   142 -2.405960636411351E-010
                   143  4.018303073914874E-004
                   144  2.414168284697210E-004
                   145 -4.359635038221852E-012
                   146 -1.142741242920401E-005
                   147 -6.515706603899465E-005
                   148  1.617981988424389E-011
                   149  7.482274519124580E-012
                   150 -1.621211185316951E-005
                   151 -5.377279897505581E-005
                   152 -1.331335441056376E-004
                   153 -3.611946294980328E-004
                   154  5.491631811057694E-005
                   155  1.946045929678096E-004
                   156  8.129417804013718E-006
                   157 -9.279612716096960E-005
                   158 -5.017041410134062E-011
                   159  1.191684752480097E-005
                   160  5.052186224676596E-005
                   161  7.840162096178599E-011
                   162  7.552565414969939E-004
                   163 -3.846875320178077E-004
                   164  8.974706829847148E-011
                   165  1.689685008718362E-006
                   166 -1.119903867395180E-011
                   167  2.727009546719067E-010
                   168  2.126594916750112E-006
                   169  9.995389227238622E-006
                   170  1.047393787586480E-004
                   171 -3.421920432089247E-011
                   172 -1.564306609450177E-010
                   173  4.598146350204812E-005
                   174  3.065153362932321E-005
                   175  4.533792849338990E-012
                   176  3.437761580204181E-006
                   177 -1.361683503994872E-005
                   178  2.045745602556762E-011
                   179 -1.965506043657131E-011
                   180 -2.315244828820713E-005
                   181 -2.836438798687332E-005
                   182 -1.382192635962942E-004
                   183 -4.034721789232242E-004
                   184  3.258816329404081E-005
                   185  2.020279830670315E-004
                   186 -4.861894190494635E-005
                   187 -6.418130642471063E-005
                   188  1.429206495489395E-011
                   189  2.684812238205004E-004
                   190  1.238221566158182E-004
                   191 -2.395600704434872E-011
                   192  1.378801009424824E-003
                   193 -3.134559439555146E-004
                   194 -5.997425894140294E-011
                   195  1.350835867284964E-006
                   196  2.243044763348603E-012
                   197  8.176990653925244E-012
                   198 -3.826667222479590E-006
                   199  4.359739409561940E-006
                   200 -9.113473487155825E-006
                   201 -4.517300225631681E-011
                   202  1.000726848189403E-010
                   203 -7.126738982612949E-005
                   204 -2.081164377843288E-004
                   205 -4.453154520448312E-011
                   206 -1.005917183160625E-005
                   207 -4.223547495251526E-006
                   208 -3.210003224284200E-011
                   209  2.422393667360108E-012
                   210  8.063428541372090E-006
                   211 -4.389847316706036E-006
                   212 -5.202704287160408E-005
                   213  9.822892020027380E-005
                   214  1.986826485823930E-005
                   215  2.314642977190645E-005
                   216 -4.067391392220952E-013
                   217 -8.675725123570363E-004
                   218 -6.352311752634254E-004
                   219 -2.442411741392722E-004
                   220  5.918787768501029E-005
                   221  3.278936814839203E-011
                   222 -2.129549083006975E-004
                   223 -6.080903947009606E-004
                   224  2.455042484656989E-005
                   225 -5.953829206315716E-005
                   226 -2.213813134460535E-012
                   227  6.409913420138512E-005
                   228 -6.731645618514938E-004
                   229 -4.469101867344054E-005
                   230 -1.348382929785330E-005
                   231 -9.771137378432587E-012
                   232  5.680434964998123E-006
                   233 -5.034267594386658E-004
                   234  1.235584907077864E-005
                   235 -4.011059849188894E-006
                   236  1.398018814058969E-011
                   237  3.228373691736610E-006
                   238 -3.659464949585687E-004
                   239 -6.495868275752343E-006
                   240 -2.081799328173598E-006
                   241  5.150395857052878E-012
                   242 -6.261297411232919E-005
                   243  9.329209419992432E-005
                   244 -1.962014946622784E-007
                   245  3.091372303500607E-005
                   246 -3.664740797333554E-011
 Sym= __2_A__
 Ene=  0.000000000000000E+000
 Spin= Alpha
 Occup=    2.00000000000000     
                     1  4.243205192813086E-005
                     2  2.974232593237777E-004
                     3 -3.588533614341132E-003
                     4 -1.025491004891913E-004
                     5 -1.433865125458384E-003
                     6  8.645925895172476E-004
                     7 -3.728274278005184E-003
                     8 -5.932110347853026E-010
                     9  7.848161759191037E-006
                    10  9.906362324459112E-005
                    11  3.170936835194861E-010
                    12 -5.843617131471625E-007
                    13  2.689887684604979E-004
                    14 -8.032344671756618E-011
                    15 -1.925966231889804E-005
                    16 -4.721011629186836E-013
                    17  4.886269906641878E-011
                    18  7.358163912014836E-005
                    19 -2.771690152865377E-005
                    20  1.399534562698588E-004
                    21 -6.762474434019510E-012
                    22 -4.807932195070589E-010
                    23 -4.637885010511264E-005
                    24  1.469956150403978E-004
                    25 -4.058254918230420E-010
                    26  1.548279351489678E-005
                    27 -8.247123960618326E-005
                    28  4.833443708779612E-010
                    29 -6.716370585567003E-011
                    30  6.486149770138969E-005
                    31 -1.376909437917083E-004
                    32  -1.00078609425648     
                    33 -9.330942656201453E-003
                    34 -2.830246952115780E-003
                    35  8.151502134544341E-003
                    36  2.748920867595862E-004
                    37  4.297835130241852E-003
                    38 -2.773093493832850E-010
                    39  2.313202613373435E-004
                    40 -3.253701290626981E-004
                    41  6.092595961156439E-010
                    42  1.176268502158168E-004
                    43 -4.416766918767339E-003
                    44  3.602669849184299E-010
                    45  5.188834473804856E-004
                    46 -2.856267758620201E-011
                    47 -1.310972033917910E-010
                    48  2.222536126668056E-004
                    49 -3.645828290164128E-005
                    50 -5.544824048462155E-004
                    51 -1.165200347511743E-010
                    52 -3.027379468559437E-010
                    53  6.602967480141085E-004
                    54  4.864210494874971E-004
                    55  2.361194332473292E-010
                    56 -1.991193858716206E-005
                    57 -1.041064611332906E-004
                    58 -3.027104761165214E-010
                    59  2.467199420267086E-011
                    60  2.412387499008306E-005
                    61 -3.791107809987145E-004
                    62 -1.396752225740132E-002
                    63  2.234838351096812E-003
                    64  2.122264504855486E-004
                    65 -2.659860045211813E-003
                    66  1.179287669358827E-004
                    67 -3.201142121816380E-004
                    68  9.515187071939865E-011
                    69 -4.675523996562952E-004
                    70 -1.781771699072387E-004
                    71 -2.143865451078121E-010
                    72  2.130354466137574E-003
                    73 -2.438383033613564E-004
                    74 -4.031238921628243E-010
                    75 -3.762489948403513E-005
                    76  1.325122526182743E-011
                    77 -5.341127033002786E-012
                    78  2.650042704866614E-005
                    79 -3.998791746047503E-006
                    80  4.223317980611211E-004
                    81 -1.807007622375368E-010
                    82 -1.019917049403674E-010
                    83  6.966212245317844E-004
                    84  2.488539170109863E-004
                    85 -5.256949798131218E-011
                    86 -3.150128438187723E-005
                    87  5.812055536389797E-005
                    88  1.723204934689605E-011
                    89 -3.292611232194219E-011
                    90 -5.713997360318897E-005
                    91 -1.493702377455868E-004
                    92 -1.773239529412044E-002
                    93  2.314846514870062E-003
                    94  2.951171507273976E-004
                    95 -3.224258515645013E-003
                    96 -5.057508283417277E-004
                    97 -5.077996943967872E-004
                    98  5.500289298178818E-011
                    99  9.913936888818916E-004
                   100  3.162666939768383E-005
                   101 -2.048649121607155E-010
                   102 -1.749109246818754E-003
                   103  4.221989847501692E-005
                   104 -4.015990543212360E-010
                   105 -2.211684303062225E-005
                   106 -5.183292895438344E-012
                   107 -1.808698235980864E-012
                   108  2.240538274425198E-005
                   109 -4.990524383483929E-008
                   110  4.147576733171055E-004
                   111  1.512117059711999E-010
                   112 -1.802100537410190E-010
                   113  3.891632980734940E-004
                   114 -2.299913670835068E-004
                   115 -4.203860665401322E-011
                   116  3.296729525158237E-005
                   117  7.516326375888050E-005
                   118  4.311824148027768E-012
                   119  6.214934662948514E-011
                   120  3.695744655988002E-006
                   121 -1.375182106850609E-004
                   122 -1.200224056142373E-004
                   123  5.824714481480461E-004
                   124 -2.293834282271424E-004
                   125  1.219244050565793E-004
                   126 -9.953193706906226E-007
                   127  5.517325177958075E-004
                   128 -2.833702391505845E-010
                   129  8.152096673754072E-005
                   130 -6.370243233865708E-004
                   131  6.484603878022233E-010
                   132 -3.526775130198761E-004
                   133 -9.780313034277188E-004
                   134  8.622236296722729E-010
                   135 -1.783193824199026E-005
                   136 -6.734844049085145E-011
                   137  4.223505405409681E-011
                   138  9.339450881186036E-007
                   139 -4.834143751334390E-005
                   140 -1.265961337157506E-004
                   141  8.375997468794575E-010
                   142 -8.494039800542781E-011
                   143 -2.640130123445152E-004
                   144  8.967240996819735E-005
                   145  1.403435440270916E-010
                   146 -9.792633625172364E-006
                   147  3.566226347294184E-005
                   148  1.131177853372314E-010
                   149  9.683303042179748E-011
                   150  4.512119260613893E-005
                   151 -4.069114670141577E-005
                   152 -4.884607169853536E-004
                   153  5.280455419709231E-004
                   154 -2.281326807141807E-004
                   155  2.588797258482038E-005
                   156  5.979397540678128E-005
                   157  6.291042063003736E-004
                   158 -2.450124651899287E-010
                   159 -1.431395179217901E-004
                   160 -5.529065721892572E-004