[Molden Format]
[Atoms] AU
  N     1    7     0.0000000000    0.0000000000   -4.2907334100        
  C     2    6     0.0000000000    0.0000000000   -1.7772236300        
  C     3    6     0.0000000000   -2.3389203600   -0.4111016300        
  C     4    6     0.0000000000    2.3389203600   -0.4111016300        
  C     5    6     0.0000000000   -2.2998668500    2.1639215300        
  C     6    6     0.0000000000    2.2998668500    2.1639215300        
  C     7    6     0.0000000000    0.0000000000    3.4755251800        
  H     8    1     0.0000000000   -2.4124509000   -5.7790131500        
  H     9    1     0.0000000000    1.9299607200   -5.4813572000        
  H    10    1     0.0000000000   -4.0745407300   -1.4447408500        
  H    11    1     0.0000000000    4.0745407300   -1.4447408500        
  H    12    1     0.0000000000   -4.0420632100    3.1963889500        
  H    13    1     0.0000000000    4.0420632100    3.1963889500        
  H    14    1     0.0000000000    0.0000000000    5.5020335600        
[5D]
[7F]
[GTO]
  1  0
   s    12 1.00
  0.114200D+05  0.172695D-04
  0.171200D+04  0.134411D-03
  0.389300D+03  0.694561D-03
  0.110000D+03  0.278531D-02
  0.355700D+02  0.863457D-02
  0.125400D+02  0.199805D-01
  0.464400D+01  0.262908D-01
  0.129300D+01 -0.243845D-01
  0.511800D+00 -0.924934D-01
  0.178700D+00 -0.339683D+00
  0.246240D-01  0.345111D+00
  0.112530D-01  0.752750D+00
   s    10 1.00
  0.114200D+05  0.523000D-03
  0.171200D+04  0.404500D-02
  0.389300D+03  0.207750D-01
  0.110000D+03  0.807269D-01
  0.355700D+02  0.233074D+00
  0.125400D+02  0.433501D+00
  0.464400D+01  0.347472D+00
  0.129300D+01  0.412620D-01
  0.511800D+00 -0.850799D-02
  0.178700D+00  0.238400D-02
   s    10 1.00
  0.114200D+05 -0.115000D-03
  0.171200D+04 -0.895000D-03
  0.389300D+03 -0.462400D-02
  0.110000D+03 -0.185280D-01
  0.355700D+02 -0.573390D-01
  0.125400D+02 -0.132076D+00
  0.464400D+01 -0.172510D+00
  0.129300D+01  0.151814D+00
  0.511800D+00  0.599944D+00
  0.178700D+00  0.387462D+00
   s     1 1.00
  0.129300D+01  0.100000D+01
   s     1 1.00
  0.178700D+00  0.100000D+01
   p     5 1.00
  0.266300D+02  0.146700D-01
  0.594800D+01  0.917640D-01
  0.174200D+01  0.298683D+00
  0.555000D+00  0.498487D+00
  0.172500D+00  0.337023D+00
   p     1 1.00
  0.174200D+01  0.100000D+01
   p     1 1.00
  0.555000D+00  0.100000D+01
   d     1 1.00
  0.165400D+01  0.100000D+01
   d     1 1.00
  0.469000D+00  0.100000D+01
   f     1 1.00
  0.109300D+01  0.100000D+01
  
  2  0
   s    10 1.00
  0.823600D+04  0.531000D-03
  0.123500D+04  0.410800D-02
  0.280800D+03  0.210870D-01
  0.792700D+02  0.818530D-01
  0.255900D+02  0.234817D+00
  0.899700D+01  0.434401D+00
  0.331900D+01  0.346129D+00
  0.905900D+00  0.393780D-01
  0.364300D+00 -0.898300D-02
  0.128500D+00  0.238500D-02
   s    10 1.00
  0.823600D+04 -0.113000D-03
  0.123500D+04 -0.878000D-03
  0.280800D+03 -0.454000D-02
  0.792700D+02 -0.181330D-01
  0.255900D+02 -0.557600D-01
  0.899700D+01 -0.126895D+00
  0.331900D+01 -0.170352D+00
  0.905900D+00  0.140382D+00
  0.364300D+00  0.598684D+00
  0.128500D+00  0.395389D+00
   s     1 1.00
  0.905900D+00  0.100000D+01
   s     1 1.00
  0.364300D+00  0.100000D+01
   p     5 1.00
  0.187100D+02  0.140310D-01
  0.413300D+01  0.868660D-01
  0.120000D+01  0.290216D+00
  0.382700D+00  0.501008D+00
  0.120900D+00  0.343406D+00
   p     1 1.00
  0.382700D+00  0.100000D+01
   p     1 1.00
  0.120900D+00  0.100000D+01
   d     1 1.00
  0.109700D+01  0.100000D+01
   d     1 1.00
  0.318000D+00  0.100000D+01
   f     1 1.00
  0.761000D+00  0.100000D+01
  
  3  0
   s    10 1.00
  0.823600D+04  0.531000D-03
  0.123500D+04  0.410800D-02
  0.280800D+03  0.210870D-01
  0.792700D+02  0.818530D-01
  0.255900D+02  0.234817D+00
  0.899700D+01  0.434401D+00
  0.331900D+01  0.346129D+00
  0.905900D+00  0.393780D-01
  0.364300D+00 -0.898300D-02
  0.128500D+00  0.238500D-02
   s    10 1.00
  0.823600D+04 -0.113000D-03
  0.123500D+04 -0.878000D-03
  0.280800D+03 -0.454000D-02
  0.792700D+02 -0.181330D-01
  0.255900D+02 -0.557600D-01
  0.899700D+01 -0.126895D+00
  0.331900D+01 -0.170352D+00
  0.905900D+00  0.140382D+00
  0.364300D+00  0.598684D+00
  0.128500D+00  0.395389D+00
   s     1 1.00
  0.905900D+00  0.100000D+01
   s     1 1.00
  0.364300D+00  0.100000D+01
   p     5 1.00
  0.187100D+02  0.140310D-01
  0.413300D+01  0.868660D-01
  0.120000D+01  0.290216D+00
  0.382700D+00  0.501008D+00
  0.120900D+00  0.343406D+00
   p     1 1.00
  0.382700D+00  0.100000D+01
   p     1 1.00
  0.120900D+00  0.100000D+01
   d     1 1.00
  0.109700D+01  0.100000D+01
   d     1 1.00
  0.318000D+00  0.100000D+01
   f     1 1.00
  0.761000D+00  0.100000D+01
  
  4  0
   s    10 1.00
  0.823600D+04  0.531000D-03
  0.123500D+04  0.410800D-02
  0.280800D+03  0.210870D-01
  0.792700D+02  0.818530D-01
  0.255900D+02  0.234817D+00
  0.899700D+01  0.434401D+00
  0.331900D+01  0.346129D+00
  0.905900D+00  0.393780D-01
  0.364300D+00 -0.898300D-02
  0.128500D+00  0.238500D-02
   s    10 1.00
  0.823600D+04 -0.113000D-03
  0.123500D+04 -0.878000D-03
  0.280800D+03 -0.454000D-02
  0.792700D+02 -0.181330D-01
  0.255900D+02 -0.557600D-01
  0.899700D+01 -0.126895D+00
  0.331900D+01 -0.170352D+00
  0.905900D+00  0.140382D+00
  0.364300D+00  0.598684D+00
  0.128500D+00  0.395389D+00
   s     1 1.00
  0.905900D+00  0.100000D+01
   s     1 1.00
  0.364300D+00  0.100000D+01
   p     5 1.00
  0.187100D+02  0.140310D-01
  0.413300D+01  0.868660D-01
  0.120000D+01  0.290216D+00
  0.382700D+00  0.501008D+00
  0.120900D+00  0.343406D+00
   p     1 1.00
  0.382700D+00  0.100000D+01
   p     1 1.00
  0.120900D+00  0.100000D+01
   d     1 1.00
  0.109700D+01  0.100000D+01
   d     1 1.00
  0.318000D+00  0.100000D+01
   f     1 1.00
  0.761000D+00  0.100000D+01
  
  5  0
   s    10 1.00
  0.823600D+04  0.531000D-03
  0.123500D+04  0.410800D-02
  0.280800D+03  0.210870D-01
  0.792700D+02  0.818530D-01
  0.255900D+02  0.234817D+00
  0.899700D+01  0.434401D+00
  0.331900D+01  0.346129D+00
  0.905900D+00  0.393780D-01
  0.364300D+00 -0.898300D-02
  0.128500D+00  0.238500D-02
   s    10 1.00
  0.823600D+04 -0.113000D-03
  0.123500D+04 -0.878000D-03
  0.280800D+03 -0.454000D-02
  0.792700D+02 -0.181330D-01
  0.255900D+02 -0.557600D-01
  0.899700D+01 -0.126895D+00
  0.331900D+01 -0.170352D+00
  0.905900D+00  0.140382D+00
  0.364300D+00  0.598684D+00
  0.128500D+00  0.395389D+00
   s     1 1.00
  0.905900D+00  0.100000D+01
   s     1 1.00
  0.364300D+00  0.100000D+01
   p     5 1.00
  0.187100D+02  0.140310D-01
  0.413300D+01  0.868660D-01
  0.120000D+01  0.290216D+00
  0.382700D+00  0.501008D+00
  0.120900D+00  0.343406D+00
   p     1 1.00
  0.382700D+00  0.100000D+01
   p     1 1.00
  0.120900D+00  0.100000D+01
   d     1 1.00
  0.109700D+01  0.100000D+01
   d     1 1.00
  0.318000D+00  0.100000D+01
   f     1 1.00
  0.761000D+00  0.100000D+01
  
  6  0
   s    10 1.00
  0.823600D+04  0.531000D-03
  0.123500D+04  0.410800D-02
  0.280800D+03  0.210870D-01
  0.792700D+02  0.818530D-01
  0.255900D+02  0.234817D+00
  0.899700D+01  0.434401D+00
  0.331900D+01  0.346129D+00
  0.905900D+00  0.393780D-01
  0.364300D+00 -0.898300D-02
  0.128500D+00  0.238500D-02
   s    10 1.00
  0.823600D+04 -0.113000D-03
  0.123500D+04 -0.878000D-03
  0.280800D+03 -0.454000D-02
  0.792700D+02 -0.181330D-01
  0.255900D+02 -0.557600D-01
  0.899700D+01 -0.126895D+00
  0.331900D+01 -0.170352D+00
  0.905900D+00  0.140382D+00
  0.364300D+00  0.598684D+00
  0.128500D+00  0.395389D+00
   s     1 1.00
  0.905900D+00  0.100000D+01
   s     1 1.00
  0.364300D+00  0.100000D+01
   p     5 1.00
  0.187100D+02  0.140310D-01
  0.413300D+01  0.868660D-01
  0.120000D+01  0.290216D+00
  0.382700D+00  0.501008D+00
  0.120900D+00  0.343406D+00
   p     1 1.00
  0.382700D+00  0.100000D+01
   p     1 1.00
  0.120900D+00  0.100000D+01
   d     1 1.00
  0.109700D+01  0.100000D+01
   d     1 1.00
  0.318000D+00  0.100000D+01
   f     1 1.00
  0.761000D+00  0.100000D+01
  
  7  0
   s    10 1.00
  0.823600D+04  0.531000D-03
  0.123500D+04  0.410800D-02
  0.280800D+03  0.210870D-01
  0.792700D+02  0.818530D-01
  0.255900D+02  0.234817D+00
  0.899700D+01  0.434401D+00
  0.331900D+01  0.346129D+00
  0.905900D+00  0.393780D-01
  0.364300D+00 -0.898300D-02
  0.128500D+00  0.238500D-02
   s    10 1.00
  0.823600D+04 -0.113000D-03
  0.123500D+04 -0.878000D-03
  0.280800D+03 -0.454000D-02
  0.792700D+02 -0.181330D-01
  0.255900D+02 -0.557600D-01
  0.899700D+01 -0.126895D+00
  0.331900D+01 -0.170352D+00
  0.905900D+00  0.140382D+00
  0.364300D+00  0.598684D+00
  0.128500D+00  0.395389D+00
   s     1 1.00
  0.905900D+00  0.100000D+01
   s     1 1.00
  0.364300D+00  0.100000D+01
   p     5 1.00
  0.187100D+02  0.140310D-01
  0.413300D+01  0.868660D-01
  0.120000D+01  0.290216D+00
  0.382700D+00  0.501008D+00
  0.120900D+00  0.343406D+00
   p     1 1.00
  0.382700D+00  0.100000D+01
   p     1 1.00
  0.120900D+00  0.100000D+01
   d     1 1.00
  0.109700D+01  0.100000D+01
   d     1 1.00
  0.318000D+00  0.100000D+01
   f     1 1.00
  0.761000D+00  0.100000D+01
  
  8  0
   s     4 1.00
  0.130100D+02  0.196850D-01
  0.196200D+01  0.137977D+00
  0.444600D+00  0.478148D+00
  0.122000D+00  0.501240D+00
   s     1 1.00
  0.122000D+00  0.100000D+01
   p     1 1.00
  0.727000D+00  0.100000D+01
  
  9  0
   s     4 1.00
  0.130100D+02  0.196850D-01
  0.196200D+01  0.137977D+00
  0.444600D+00  0.478148D+00
  0.122000D+00  0.501240D+00
   s     1 1.00
  0.122000D+00  0.100000D+01
   p     1 1.00
  0.727000D+00  0.100000D+01
  
 10  0
   s     4 1.00
  0.130100D+02  0.196850D-01
  0.196200D+01  0.137977D+00
  0.444600D+00  0.478148D+00
  0.122000D+00  0.501240D+00
   s     1 1.00
  0.122000D+00  0.100000D+01
   p     1 1.00
  0.727000D+00  0.100000D+01
  
 11  0
   s     4 1.00
  0.130100D+02  0.196850D-01
  0.196200D+01  0.137977D+00
  0.444600D+00  0.478148D+00
  0.122000D+00  0.501240D+00
   s     1 1.00
  0.122000D+00  0.100000D+01
   p     1 1.00
  0.727000D+00  0.100000D+01
  
 12  0
   s     4 1.00
  0.130100D+02  0.196850D-01
  0.196200D+01  0.137977D+00
  0.444600D+00  0.478148D+00
  0.122000D+00  0.501240D+00
   s     1 1.00
  0.122000D+00  0.100000D+01
   p     1 1.00
  0.727000D+00  0.100000D+01
  
 13  0
   s     4 1.00
  0.130100D+02  0.196850D-01
  0.196200D+01  0.137977D+00
  0.444600D+00  0.478148D+00
  0.122000D+00  0.501240D+00
   s     1 1.00
  0.122000D+00  0.100000D+01
   p     1 1.00
  0.727000D+00  0.100000D+01
  
 14  0
   s     4 1.00
  0.130100D+02  0.196850D-01
  0.196200D+01  0.137977D+00
  0.444600D+00  0.478148D+00
  0.122000D+00  0.501240D+00
   s     1 1.00
  0.122000D+00  0.100000D+01
   p     1 1.00
  0.727000D+00  0.100000D+01
  
[MO]
 Sym= __1_A__
 Ene=   1.00000000000000     
 Spin= Alpha
 Occup=    1.00000000000000     
                     1  3.800374136970543E-005
                     2  0.998629684940335     
                     3  1.942695032626022E-003
                     4  1.480801829567596E-003
                     5  4.360364084031528E-003
                     6 -2.144452680516498E-011
                     7  3.127053384051494E-003
                     8  6.115430897907172E-003
                     9  7.550807167428660E-012
                    10 -6.902255149870696E-004
                    11 -4.734190795235382E-004
                    12  1.253991386987510E-011
                    13 -2.114214646599693E-003
                    14 -1.597530835758628E-003
                    15  2.411498074888972E-004
                    16 -4.739068826010865E-013
                    17 -3.049864216222017E-005
                    18  3.894545723498210E-005
                    19  1.651004170904691E-013
                    20  9.984588500085493E-005
                    21  2.797519496488809E-012
                    22  4.308128039132226E-004
                    23  3.322178430172288E-004
                    24  1.835019198852613E-012
                    25 -1.105791948662600E-004
                    26  1.469560768416116E-012
                    27  1.838025783329754E-005
                    28  1.254122711094930E-005
                    29 -1.874865442613468E-012
                    30 -8.874637993804242E-013
                    31  7.366746990813150E-006
                    32 -2.921574032629768E-004
                    33  1.452931485506515E-003
                    34  2.259495656519516E-004
                    35 -2.550407513130833E-004
                    36 -5.621781455841270E-012
                    37 -1.611386563609433E-004
                    38 -4.592332477147811E-003
                    39  8.042023613101398E-012
                    40  4.785425485646117E-004
                    41  1.273846135099384E-004
                    42  6.237141266332512E-012
                    43 -1.985443920544640E-003
                    44  5.182597775196376E-003
                    45  2.208962246305145E-004
                    46 -1.757635009767945E-013
                    47 -1.206723260210887E-005
                    48  9.936903102236055E-005
                    49  3.900325194725898E-012
                    50  1.288843918410643E-004
                    51  9.598201787819233E-012
                    52  6.774844542114656E-004
                    53 -2.593831369572218E-004
                    54 -4.479581131483688E-013
                    55 -1.141791094428056E-004
                    56 -1.934310017117984E-012
                    57  1.789423443508572E-006
                    58  3.913468292373464E-005
                    59  2.524799994758269E-012
                    60 -6.457214184829201E-013
                    61 -1.546305695476707E-005
                    62 -4.616086756999125E-004
                    63 -2.087440658659690E-003
                    64 -7.918220275727203E-005
                    65  1.914444417490123E-003
                    66 -1.074257857392324E-012
                    67 -6.450938105414244E-004
                    68  4.392867221425385E-004
                    69  2.952649032956649E-012
                    70  3.993263340780355E-004
                    71  7.572218813659793E-004
                    72 -8.548872891666328E-012
                    73 -1.600813596001702E-003
                    74  6.351415165376177E-004
                    75  8.626782323041842E-005
                    76  6.398959825850307E-013
                    77 -2.760414913512175E-005
                    78  5.633405995887360E-006
                    79  9.408450949061763E-013
                    80  7.862029329622607E-006
                    81 -3.745618242151664E-012
                    82  7.316222099639962E-005
                    83 -1.543179080211680E-004
                    84 -4.415162014630259E-012
                    85 -1.430221417573451E-004
                    86 -2.692823353884252E-012
                    87 -2.048380362030176E-005
                    88  5.393756312401452E-005
                    89  2.317568552222684E-012
                    90  2.317176932899465E-012
                    91  2.882644026301203E-006
                    92 -1.303500555782951E-004
                    93 -9.804644803163244E-004
                    94  1.923718416321977E-004
                    95 -2.376942995023892E-004
                    96  7.008018265535586E-012
                    97  5.349483914757449E-004
                    98  5.991813260277277E-004
                    99 -1.289031715815557E-011
                   100  3.815190551159672E-004
                   101  3.291581060032847E-004
                   102  1.741370521887566E-012
                   103  5.174072073334935E-004
                   104 -1.247733350491790E-003
                   105  5.754874525783066E-005
                   106  1.391074173084736E-012
                   107 -1.566547560850345E-005
                   108  2.720946505020698E-005
                   109  1.004607596127709E-012
                   110  3.743270686188140E-005
                   111  3.934424284665674E-014
                   112 -5.070803726387977E-005
                   113  1.618916982058647E-004
                   114 -1.278083287905336E-012
                   115 -4.668392169297569E-005
                   116 -1.547760883019436E-012
                   117  2.277396106498221E-005
                   118 -5.723565734618074E-006
                   119  4.589083242381299E-012
                   120 -5.901485531877751E-012
                   121 -1.925318931345546E-005
                   122 -2.595144801587704E-004
                   123 -5.415816281611083E-004
                   124  1.649006972150413E-004
                   125  3.692005192064844E-004
                   126 -2.377893271800960E-013
                   127 -1.092065122625989E-005
                   128 -5.081384120652674E-004
                   129  8.685985655825174E-012
                   130  1.901279582532058E-004
                   131  5.710105825762556E-004
                   132  3.617436962128332E-012
                   133  2.810427343852045E-004
                   134  1.826114514157252E-003
                   135 -4.171578740596778E-005
                   136 -9.353851912419530E-013
                   137 -4.235121273956542E-007
                   138 -1.089377351083237E-005
                   139  2.632467248793724E-013
                   140 -3.803118103109422E-004
                   141 -1.999332270408027E-012
                   142  2.310610879733920E-004
                   143  2.876520031929130E-006
                   144  1.662745839568602E-012
                   145 -7.057626702626295E-005
                   146 -1.829544528850792E-012
                   147 -1.294714396975254E-005
                   148 -1.715198290163142E-005
                   149  5.187918392422537E-013
                   150 -1.809182876089275E-012
                   151 -1.220664943919948E-005
                   152 -1.793511725217605E-004
                   153 -2.896480681381309E-004
                   154  4.415013155621089E-005
                   155  3.804584926543581E-004
                   156  2.410425461132329E-012
                   157 -2.480157747497632E-005
                   158 -4.511096677086003E-004
                   159  1.031988565220709E-012
                   160  3.660815817796562E-007
                   161  7.563266701600380E-005
                   162 -6.042290526515804E-012
                   163  6.435323237836947E-004
                   164 -1.519184702326970E-004
                   165  3.616995553117638E-006
                   166 -8.280276120141440E-013
                   167  5.046741704845064E-006
                   168  5.070059997692856E-007
                   169 -2.384024292279322E-012
                   170 -5.353321105013209E-005
                   171 -2.168703872500505E-012
                   172 -3.879746875924787E-005
                   173  4.151232717317940E-005
                   174  7.603670603067635E-013
                   175 -1.431696644340969E-005
                   176  1.529279024112851E-012
                   177 -2.249139582977155E-005
                   178 -2.164605323867430E-006
                   179  3.525909015891143E-013
                   180 -1.450420698028475E-012
                   181 -6.495640222094536E-007
                   182 -1.626938845470172E-004
                   183 -4.616295547011154E-004
                   184  4.969119510370610E-005
                   185  2.351115662458604E-004
                   186  5.879388028700784E-012
                   187 -3.401073738673375E-005
                   188 -5.302074975699662E-005
                   189  9.974391980063983E-014
                   190  1.753277855682417E-004
                   191  5.726203085559782E-005
                   192  2.316217044229515E-012
                   193  1.114436214370183E-003
                   194 -1.198959642978243E-004
                   195  1.315639758218277E-005
                   196  1.409135901868952E-012
                   197  5.913081351801015E-006
                   198  5.602817560992356E-006
                   199 -3.367563740853137E-012
                   200  5.625049758377165E-005
                   201  9.187713726555552E-013
                   202 -1.566984967839746E-004
                   203  6.311965199992098E-005
                   204  4.460888264183721E-012
                   205 -6.304322073960399E-006
                   206  3.118542390706908E-012
                   207  9.976809680546948E-006
                   208 -3.123291309408656E-006
                   209 -2.208478317893082E-013
                   210  2.126701198234668E-013
                   211 -2.566567604544928E-006
                   212  7.113305113368966E-005
                   213 -2.310501172850641E-005
                   214  6.995013789695268E-013
                   215  1.642497293164567E-004
                   216  1.611090910364759E-004
                   217  3.860158346013206E-004
                   218 -8.373044402492464E-004
                   219 -7.589746494432550E-013
                   220 -3.662475225383091E-004
                   221  2.058685775177447E-004
                   222 -3.958555956939240E-004
                   223 -6.158201750380232E-004
                   224 -4.382752840473995E-012
                   225  3.217936959637114E-006
                   226 -6.275814173165744E-005
                   227 -2.488206603161677E-004
                   228 -4.522394035194123E-004
                   229  6.624103209125830E-012
                   230 -3.597042214656875E-006
                   231 -1.817042895384816E-005
                   232 -6.699613423931712E-005
                   233 -5.434361642675416E-004
                   234  2.583805437449874E-012
                   235  6.042253797459940E-006
                   236 -2.980728024689593E-006
                   237 -1.521622088535073E-004
                   238 -3.935578494909939E-004
                   239  9.418052968622227E-013
                   240  6.159234994072956E-006
                   241  2.780758113658390E-006
                   242  1.775467096439397E-005
                   243 -5.453281708893513E-005
                   244 -1.722865270894753E-012
                   245 -1.688025145763883E-007
                   246  1.977361033716335E-005
 Sym= __2_A__
 Ene=   2.00000000000000     
 Spin= Alpha
 Occup=    1.00000000000000     
                     1 -5.304905894768625E-005
                     2 -3.456862756636704E-004
                     3  2.845019335315442E-003
                     4  1.599933619881387E-004
                     5  1.320334248609512E-003
                     6  3.973000208781158E-012
                     7 -1.807520643582803E-004
                     8  2.999690083948928E-003
                     9 -3.912112799368283E-012
                    10 -3.636018399385688E-005
                    11 -1.065701041474634E-004
                    12  5.918318363112265E-013
                    13  5.894626801328367E-005
                    14 -4.357565485132190E-004
                    15  3.009476804733017E-005
                    16  3.762586811967996E-013
                    17  6.418736547294862E-006
                    18  5.838292345024126E-005
                    19 -2.738677429144246E-013
                    20 -8.320473904805456E-005
                    21  2.832013034077251E-013
                    22  8.887501350687919E-007
                    23 -1.925673991467857E-004
                    24  1.932401285375276E-012
                    25  1.719572463737090E-004
                    26 -6.785589195797678E-013
                    27 -5.900226066483809E-006
                    28 -1.767255336921927E-005
                    29 -8.845149197379460E-013
                    30 -1.806424891723006E-013
                    31 -1.188454344439856E-005
                    32   1.00101336502897     
                    33  9.341740738824898E-003
                    34  2.735910298883629E-003
                    35 -8.090660699326976E-003
                    36  2.488840656663953E-012
                    37 -1.058613005146616E-004
                    38 -3.711792976248951E-003
                    39  3.148706272099876E-012
                    40  1.168459711975243E-004
                    41  5.222991935710182E-004
                    42 -5.177119489158467E-012
                    43  4.595345736742888E-005
                    44  4.259763040642225E-003
                    45  4.626909702380214E-004
                    46 -1.423510845858190E-012
                    47 -2.587077808000665E-006
                    48 -3.968241093594794E-004
                    49  3.839425357759429E-012
                    50  5.146066484945288E-004
                    51  6.851169542833876E-012
                    52  4.979891835534355E-005
                    53  9.287809257331104E-004
                    54 -3.318378270208927E-012
                    55  3.774281615089987E-004
                    56  2.640218604194552E-012
                    57  3.279744270893272E-006
                    58 -1.754239696704273E-004
                    59  1.503483426337709E-012
                    60  6.429314087763932E-013
                    61 -3.107130287660596E-006
                    62  9.013559769310869E-003
                    63 -2.088717243552508E-003
                    64 -2.929097190716640E-004
                    65  3.078128743636376E-003
                    66 -8.592647241626453E-012
                    67 -9.060171518156758E-006
                    68  9.234763853754549E-005
                    69 -4.270889979316740E-012
                    70  7.235456536692946E-004
                    71 -9.497647571303422E-006
                    72  9.988514656323497E-012
                    73 -2.054941711013420E-003
                    74  7.504353804061118E-005
                    75 -1.080586105497451E-005
                    76 -1.216394547283315E-012
                    77  2.548764244231024E-006
                    78  2.478619349212298E-005
                    79  1.007900326654540E-012
                    80  7.136326508308722E-004
                    81  3.163701428374362E-012
                    82 -3.817030508319863E-004
                    83 -5.889635818841472E-005
                    84 -4.628931370841013E-012
                    85  7.553712575475423E-005
                    86 -1.490207269374062E-013
                    87  4.282193180255765E-005
                    88 -1.322352503770998E-004
                    89  2.235654382591941E-012
                    90  5.280227546087296E-014
                    91  4.542977613407776E-005
                    92  9.529581214675910E-003
                    93 -2.081018285239616E-003
                    94 -2.786634915349079E-004
                    95  3.020938151723916E-003
                    96 -6.714416577035784E-013
                    97  5.756062348688207E-006
                    98  7.902109210176846E-005
                    99 -4.785893195988742E-012
                   100 -6.563192253729403E-004
                   101  4.525396297230854E-005
                   102 -7.651671532737472E-012
                   103  2.056396091765013E-003
                   104  7.521484261589048E-005
                   105 -1.106342652564031E-005
                   106  4.553143412278736E-012
                   107 -7.813501461867635E-006
                   108  2.919890436095338E-005
                   109 -3.335613271698603E-012
                   110  7.410055054080174E-004
                   111 -3.892955877709705E-012
                   112  3.690774375750341E-004
                   113 -4.332786940848810E-005
                   114  3.926210212278633E-012
                   115  7.319645717723586E-005
                   116 -2.778850857825644E-012
                   117 -4.128945675185732E-005
                   118 -1.315358874991850E-004
                   119  2.589238827981067E-012
                   120 -8.531412809093674E-013
                   121 -4.466559617613782E-005
                   122 -1.723702652189711E-004
                   123 -6.854670215580284E-004
                   124  2.243456949015519E-004
                   125 -1.000916888227498E-004
                   126  7.814592716231325E-014
                   127 -3.123851298182693E-006
                   128 -3.290543263315464E-004
                   129 -3.622551720420838E-012
                   130 -5.858663450376642E-005
                   131  5.320934870004564E-004
                   132  1.933870796050972E-012
                   133  3.164428094864563E-004
                   134  7.543577362486264E-004
                   135 -1.238899293758417E-005
                   136  3.839921269594789E-012
                   137  5.276422818089218E-005
                   138  1.436873920345751E-005
                   139 -1.060557418062055E-012
                   140 -2.772362954768916E-004
                   141 -4.890537051742379E-012
                   142 -1.843209949184199E-004
                   143 -3.112667957739822E-006
                   144 -1.867981090119264E-012
                   145  2.176148965491689E-006
                   146  2.524887906374188E-013
                   147 -4.765482624037502E-005
                   148 -4.378834147119570E-005
                   149 -1.026482110092530E-012
                   150 -9.937299845979889E-013
                   151 -4.961991322074244E-006
                   152 -1.518614510364189E-004
                   153 -6.863817550244353E-004
                   154  2.285673338125229E-004
                   155 -1.282010188512371E-004
                   156  4.991335262652614E-012
                   157  2.386082022538193E-006
                   158 -3.284762054800584E-004
                   159 -3.063475530876242E-012
                   160  4.512583952195788E-005