[Molden Format]
[Atoms] AU
  N     1    7     0.0000000000    0.0000000000   -4.2907334100        
  C     2    6     0.0000000000    0.0000000000   -1.7772236300        
  C     3    6     0.0000000000   -2.3389203600   -0.4111016300        
  C     4    6     0.0000000000    2.3389203600   -0.4111016300        
  C     5    6     0.0000000000   -2.2998668500    2.1639215300        
  C     6    6     0.0000000000    2.2998668500    2.1639215300        
  C     7    6     0.0000000000    0.0000000000    3.4755251800        
  H     8    1     0.0000000000   -2.4124509000   -5.7790131500        
  H     9    1     0.0000000000    1.9299607200   -5.4813572000        
  H    10    1     0.0000000000   -4.0745407300   -1.4447408500        
  H    11    1     0.0000000000    4.0745407300   -1.4447408500        
  H    12    1     0.0000000000   -4.0420632100    3.1963889500        
  H    13    1     0.0000000000    4.0420632100    3.1963889500        
  H    14    1     0.0000000000    0.0000000000    5.5020335600        
[5D]
[7F]
[GTO]
  1  0
   s    12 1.00
  0.114200D+05  0.172695D-04
  0.171200D+04  0.134411D-03
  0.389300D+03  0.694561D-03
  0.110000D+03  0.278531D-02
  0.355700D+02  0.863457D-02
  0.125400D+02  0.199805D-01
  0.464400D+01  0.262908D-01
  0.129300D+01 -0.243845D-01
  0.511800D+00 -0.924934D-01
  0.178700D+00 -0.339683D+00
  0.246240D-01  0.345111D+00
  0.112530D-01  0.752750D+00
   s    10 1.00
  0.114200D+05  0.523000D-03
  0.171200D+04  0.404500D-02
  0.389300D+03  0.207750D-01
  0.110000D+03  0.807269D-01
  0.355700D+02  0.233074D+00
  0.125400D+02  0.433501D+00
  0.464400D+01  0.347472D+00
  0.129300D+01  0.412620D-01
  0.511800D+00 -0.850799D-02
  0.178700D+00  0.238400D-02
   s    10 1.00
  0.114200D+05 -0.115000D-03
  0.171200D+04 -0.895000D-03
  0.389300D+03 -0.462400D-02
  0.110000D+03 -0.185280D-01
  0.355700D+02 -0.573390D-01
  0.125400D+02 -0.132076D+00
  0.464400D+01 -0.172510D+00
  0.129300D+01  0.151814D+00
  0.511800D+00  0.599944D+00
  0.178700D+00  0.387462D+00
   s     1 1.00
  0.129300D+01  0.100000D+01
   s     1 1.00
  0.178700D+00  0.100000D+01
   p     5 1.00
  0.266300D+02  0.146700D-01
  0.594800D+01  0.917640D-01
  0.174200D+01  0.298683D+00
  0.555000D+00  0.498487D+00
  0.172500D+00  0.337023D+00
   p     1 1.00
  0.174200D+01  0.100000D+01
   p     1 1.00
  0.555000D+00  0.100000D+01
   d     1 1.00
  0.165400D+01  0.100000D+01
   d     1 1.00
  0.469000D+00  0.100000D+01
   f     1 1.00
  0.109300D+01  0.100000D+01
  
  2  0
   s    10 1.00
  0.823600D+04  0.531000D-03
  0.123500D+04  0.410800D-02
  0.280800D+03  0.210870D-01
  0.792700D+02  0.818530D-01
  0.255900D+02  0.234817D+00
  0.899700D+01  0.434401D+00
  0.331900D+01  0.346129D+00
  0.905900D+00  0.393780D-01
  0.364300D+00 -0.898300D-02
  0.128500D+00  0.238500D-02
   s    10 1.00
  0.823600D+04 -0.113000D-03
  0.123500D+04 -0.878000D-03
  0.280800D+03 -0.454000D-02
  0.792700D+02 -0.181330D-01
  0.255900D+02 -0.557600D-01
  0.899700D+01 -0.126895D+00
  0.331900D+01 -0.170352D+00
  0.905900D+00  0.140382D+00
  0.364300D+00  0.598684D+00
  0.128500D+00  0.395389D+00
   s     1 1.00
  0.905900D+00  0.100000D+01
   s     1 1.00
  0.364300D+00  0.100000D+01
   p     5 1.00
  0.187100D+02  0.140310D-01
  0.413300D+01  0.868660D-01
  0.120000D+01  0.290216D+00
  0.382700D+00  0.501008D+00
  0.120900D+00  0.343406D+00
   p     1 1.00
  0.382700D+00  0.100000D+01
   p     1 1.00
  0.120900D+00  0.100000D+01
   d     1 1.00
  0.109700D+01  0.100000D+01
   d     1 1.00
  0.318000D+00  0.100000D+01
   f     1 1.00
  0.761000D+00  0.100000D+01
  
  3  0
   s    10 1.00
  0.823600D+04  0.531000D-03
  0.123500D+04  0.410800D-02
  0.280800D+03  0.210870D-01
  0.792700D+02  0.818530D-01
  0.255900D+02  0.234817D+00
  0.899700D+01  0.434401D+00
  0.331900D+01  0.346129D+00
  0.905900D+00  0.393780D-01
  0.364300D+00 -0.898300D-02
  0.128500D+00  0.238500D-02
   s    10 1.00
  0.823600D+04 -0.113000D-03
  0.123500D+04 -0.878000D-03
  0.280800D+03 -0.454000D-02
  0.792700D+02 -0.181330D-01
  0.255900D+02 -0.557600D-01
  0.899700D+01 -0.126895D+00
  0.331900D+01 -0.170352D+00
  0.905900D+00  0.140382D+00
  0.364300D+00  0.598684D+00
  0.128500D+00  0.395389D+00
   s     1 1.00
  0.905900D+00  0.100000D+01
   s     1 1.00
  0.364300D+00  0.100000D+01
   p     5 1.00
  0.187100D+02  0.140310D-01
  0.413300D+01  0.868660D-01
  0.120000D+01  0.290216D+00
  0.382700D+00  0.501008D+00
  0.120900D+00  0.343406D+00
   p     1 1.00
  0.382700D+00  0.100000D+01
   p     1 1.00
  0.120900D+00  0.100000D+01
   d     1 1.00
  0.109700D+01  0.100000D+01
   d     1 1.00
  0.318000D+00  0.100000D+01
   f     1 1.00
  0.761000D+00  0.100000D+01
  
  4  0
   s    10 1.00
  0.823600D+04  0.531000D-03
  0.123500D+04  0.410800D-02
  0.280800D+03  0.210870D-01
  0.792700D+02  0.818530D-01
  0.255900D+02  0.234817D+00
  0.899700D+01  0.434401D+00
  0.331900D+01  0.346129D+00
  0.905900D+00  0.393780D-01
  0.364300D+00 -0.898300D-02
  0.128500D+00  0.238500D-02
   s    10 1.00
  0.823600D+04 -0.113000D-03
  0.123500D+04 -0.878000D-03
  0.280800D+03 -0.454000D-02
  0.792700D+02 -0.181330D-01
  0.255900D+02 -0.557600D-01
  0.899700D+01 -0.126895D+00
  0.331900D+01 -0.170352D+00
  0.905900D+00  0.140382D+00
  0.364300D+00  0.598684D+00
  0.128500D+00  0.395389D+00
   s     1 1.00
  0.905900D+00  0.100000D+01
   s     1 1.00
  0.364300D+00  0.100000D+01
   p     5 1.00
  0.187100D+02  0.140310D-01
  0.413300D+01  0.868660D-01
  0.120000D+01  0.290216D+00
  0.382700D+00  0.501008D+00
  0.120900D+00  0.343406D+00
   p     1 1.00
  0.382700D+00  0.100000D+01
   p     1 1.00
  0.120900D+00  0.100000D+01
   d     1 1.00
  0.109700D+01  0.100000D+01
   d     1 1.00
  0.318000D+00  0.100000D+01
   f     1 1.00
  0.761000D+00  0.100000D+01
  
  5  0
   s    10 1.00
  0.823600D+04  0.531000D-03
  0.123500D+04  0.410800D-02
  0.280800D+03  0.210870D-01
  0.792700D+02  0.818530D-01
  0.255900D+02  0.234817D+00
  0.899700D+01  0.434401D+00
  0.331900D+01  0.346129D+00
  0.905900D+00  0.393780D-01
  0.364300D+00 -0.898300D-02
  0.128500D+00  0.238500D-02
   s    10 1.00
  0.823600D+04 -0.113000D-03
  0.123500D+04 -0.878000D-03
  0.280800D+03 -0.454000D-02
  0.792700D+02 -0.181330D-01
  0.255900D+02 -0.557600D-01
  0.899700D+01 -0.126895D+00
  0.331900D+01 -0.170352D+00
  0.905900D+00  0.140382D+00
  0.364300D+00  0.598684D+00
  0.128500D+00  0.395389D+00
   s     1 1.00
  0.905900D+00  0.100000D+01
   s     1 1.00
  0.364300D+00  0.100000D+01
   p     5 1.00
  0.187100D+02  0.140310D-01
  0.413300D+01  0.868660D-01
  0.120000D+01  0.290216D+00
  0.382700D+00  0.501008D+00
  0.120900D+00  0.343406D+00
   p     1 1.00
  0.382700D+00  0.100000D+01
   p     1 1.00
  0.120900D+00  0.100000D+01
   d     1 1.00
  0.109700D+01  0.100000D+01
   d     1 1.00
  0.318000D+00  0.100000D+01
   f     1 1.00
  0.761000D+00  0.100000D+01
  
  6  0
   s    10 1.00
  0.823600D+04  0.531000D-03
  0.123500D+04  0.410800D-02
  0.280800D+03  0.210870D-01
  0.792700D+02  0.818530D-01
  0.255900D+02  0.234817D+00
  0.899700D+01  0.434401D+00
  0.331900D+01  0.346129D+00
  0.905900D+00  0.393780D-01
  0.364300D+00 -0.898300D-02
  0.128500D+00  0.238500D-02
   s    10 1.00
  0.823600D+04 -0.113000D-03
  0.123500D+04 -0.878000D-03
  0.280800D+03 -0.454000D-02
  0.792700D+02 -0.181330D-01
  0.255900D+02 -0.557600D-01
  0.899700D+01 -0.126895D+00
  0.331900D+01 -0.170352D+00
  0.905900D+00  0.140382D+00
  0.364300D+00  0.598684D+00
  0.128500D+00  0.395389D+00
   s     1 1.00
  0.905900D+00  0.100000D+01
   s     1 1.00
  0.364300D+00  0.100000D+01
   p     5 1.00
  0.187100D+02  0.140310D-01
  0.413300D+01  0.868660D-01
  0.120000D+01  0.290216D+00
  0.382700D+00  0.501008D+00
  0.120900D+00  0.343406D+00
   p     1 1.00
  0.382700D+00  0.100000D+01
   p     1 1.00
  0.120900D+00  0.100000D+01
   d     1 1.00
  0.109700D+01  0.100000D+01
   d     1 1.00
  0.318000D+00  0.100000D+01
   f     1 1.00
  0.761000D+00  0.100000D+01
  
  7  0
   s    10 1.00
  0.823600D+04  0.531000D-03
  0.123500D+04  0.410800D-02
  0.280800D+03  0.210870D-01
  0.792700D+02  0.818530D-01
  0.255900D+02  0.234817D+00
  0.899700D+01  0.434401D+00
  0.331900D+01  0.346129D+00
  0.905900D+00  0.393780D-01
  0.364300D+00 -0.898300D-02
  0.128500D+00  0.238500D-02
   s    10 1.00
  0.823600D+04 -0.113000D-03
  0.123500D+04 -0.878000D-03
  0.280800D+03 -0.454000D-02
  0.792700D+02 -0.181330D-01
  0.255900D+02 -0.557600D-01
  0.899700D+01 -0.126895D+00
  0.331900D+01 -0.170352D+00
  0.905900D+00  0.140382D+00
  0.364300D+00  0.598684D+00
  0.128500D+00  0.395389D+00
   s     1 1.00
  0.905900D+00  0.100000D+01
   s     1 1.00
  0.364300D+00  0.100000D+01
   p     5 1.00
  0.187100D+02  0.140310D-01
  0.413300D+01  0.868660D-01
  0.120000D+01  0.290216D+00
  0.382700D+00  0.501008D+00
  0.120900D+00  0.343406D+00
   p     1 1.00
  0.382700D+00  0.100000D+01
   p     1 1.00
  0.120900D+00  0.100000D+01
   d     1 1.00
  0.109700D+01  0.100000D+01
   d     1 1.00
  0.318000D+00  0.100000D+01
   f     1 1.00
  0.761000D+00  0.100000D+01
  
  8  0
   s     4 1.00
  0.130100D+02  0.196850D-01
  0.196200D+01  0.137977D+00
  0.444600D+00  0.478148D+00
  0.122000D+00  0.501240D+00
   s     1 1.00
  0.122000D+00  0.100000D+01
   p     1 1.00
  0.727000D+00  0.100000D+01
  
  9  0
   s     4 1.00
  0.130100D+02  0.196850D-01
  0.196200D+01  0.137977D+00
  0.444600D+00  0.478148D+00
  0.122000D+00  0.501240D+00
   s     1 1.00
  0.122000D+00  0.100000D+01
   p     1 1.00
  0.727000D+00  0.100000D+01
  
 10  0
   s     4 1.00
  0.130100D+02  0.196850D-01
  0.196200D+01  0.137977D+00
  0.444600D+00  0.478148D+00
  0.122000D+00  0.501240D+00
   s     1 1.00
  0.122000D+00  0.100000D+01
   p     1 1.00
  0.727000D+00  0.100000D+01
  
 11  0
   s     4 1.00
  0.130100D+02  0.196850D-01
  0.196200D+01  0.137977D+00
  0.444600D+00  0.478148D+00
  0.122000D+00  0.501240D+00
   s     1 1.00
  0.122000D+00  0.100000D+01
   p     1 1.00
  0.727000D+00  0.100000D+01
  
 12  0
   s     4 1.00
  0.130100D+02  0.196850D-01
  0.196200D+01  0.137977D+00
  0.444600D+00  0.478148D+00
  0.122000D+00  0.501240D+00
   s     1 1.00
  0.122000D+00  0.100000D+01
   p     1 1.00
  0.727000D+00  0.100000D+01
  
 13  0
   s     4 1.00
  0.130100D+02  0.196850D-01
  0.196200D+01  0.137977D+00
  0.444600D+00  0.478148D+00
  0.122000D+00  0.501240D+00
   s     1 1.00
  0.122000D+00  0.100000D+01
   p     1 1.00
  0.727000D+00  0.100000D+01
  
 14  0
   s     4 1.00
  0.130100D+02  0.196850D-01
  0.196200D+01  0.137977D+00
  0.444600D+00  0.478148D+00
  0.122000D+00  0.501240D+00
   s     1 1.00
  0.122000D+00  0.100000D+01
   p     1 1.00
  0.727000D+00  0.100000D+01
  
[MO]
 Sym= __1_a__
 Ene=  0.000000000000000E+000
 Spin= Alpha
 Occup=    2.00000000000000     
                     1  3.800374136970540E-005
                     2  0.998629684940335     
                     3  1.942695032626020E-003
                     4  1.480801829567600E-003
                     5  4.360364084031530E-003
                     6 -2.144452680516500E-011
                     7  3.127053384051490E-003
                     8  6.115430897907170E-003
                     9  7.550807167428660E-012
                    10 -6.902255149870700E-004
                    11 -4.734190795235380E-004
                    12  1.253991386987510E-011
                    13 -2.114214646599690E-003
                    14 -1.597530835758630E-003
                    15  2.411498074888971E-004
                    16 -4.739068826010870E-013
                    17 -3.049864216222020E-005
                    18  3.894545723498220E-005
                    19  1.651004170904690E-013
                    20  9.984588500085488E-005
                    21  2.797519496488810E-012
                    22  4.308128039132230E-004
                    23  3.322178430172280E-004
                    24  1.835019198852610E-012
                    25 -1.105791948662601E-004
                    26  1.469560768416116E-012
                    27  1.838025783329752E-005
                    28  1.254122711094930E-005
                    29 -1.874865442613470E-012
                    30 -8.874637993804239E-013
                    31  7.366746990813160E-006
                    32 -2.921574032629770E-004
                    33  1.452931485506510E-003
                    34  2.259495656519520E-004
                    35 -2.550407513130830E-004
                    36 -5.621781455841270E-012
                    37 -1.611386563609430E-004
                    38 -4.592332477147810E-003
                    39  8.042023613101399E-012
                    40  4.785425485646120E-004
                    41  1.273846135099380E-004
                    42  6.237141266332510E-012
                    43 -1.985443920544640E-003
                    44  5.182597775196380E-003
                    45  2.208962246305145E-004
                    46 -1.757635009767950E-013
                    47 -1.206723260210890E-005
                    48  9.936903102236060E-005
                    49  3.900325194725900E-012
                    50  1.288843918410641E-004
                    51  9.598201787819229E-012
                    52  6.774844542114660E-004
                    53 -2.593831369572220E-004
                    54 -4.479581131483690E-013
                    55 -1.141791094428056E-004
                    56 -1.934310017117985E-012
                    57  1.789423443508575E-006
                    58  3.913468292373460E-005
                    59  2.524799994758270E-012
                    60 -6.457214184829198E-013
                    61 -1.546305695476706E-005
                    62 -4.616086756999120E-004
                    63 -2.087440658659690E-003
                    64 -7.918220275727201E-005
                    65  1.914444417490120E-003
                    66 -1.074257857392320E-012
                    67 -6.450938105414240E-004
                    68  4.392867221425390E-004
                    69  2.952649032956650E-012
                    70  3.993263340780360E-004
                    71  7.572218813659790E-004
                    72 -8.548872891666331E-012
                    73 -1.600813596001700E-003
                    74  6.351415165376180E-004
                    75  8.626782323041853E-005
                    76  6.398959825850310E-013
                    77 -2.760414913512180E-005
                    78  5.633405995887360E-006
                    79  9.408450949061759E-013
                    80  7.862029329622597E-006
                    81 -3.745618242151660E-012
                    82  7.316222099639959E-005
                    83 -1.543179080211680E-004
                    84 -4.415162014630260E-012
                    85 -1.430221417573451E-004
                    86 -2.692823353884252E-012
                    87 -2.048380362030175E-005
                    88  5.393756312401460E-005
                    89  2.317568552222680E-012
                    90  2.317176932899472E-012
                    91  2.882644026301205E-006
                    92 -1.303500555782950E-004
                    93 -9.804644803163239E-004
                    94  1.923718416321980E-004
                    95 -2.376942995023890E-004
                    96  7.008018265535590E-012
                    97  5.349483914757450E-004
                    98  5.991813260277280E-004
                    99 -1.289031715815560E-011
                   100  3.815190551159670E-004
                   101  3.291581060032850E-004
                   102  1.741370521887570E-012
                   103  5.174072073334930E-004
                   104 -1.247733350491790E-003
                   105  5.754874525783077E-005
                   106  1.391074173084740E-012
                   107 -1.566547560850350E-005
                   108  2.720946505020700E-005
                   109  1.004607596127710E-012
                   110  3.743270686188143E-005
                   111  3.934424284665670E-014
                   112 -5.070803726387980E-005
                   113  1.618916982058646E-004
                   114 -1.278083287905340E-012
                   115 -4.668392169297569E-005
                   116 -1.547760883019434E-012
                   117  2.277396106498224E-005
                   118 -5.723565734618080E-006
                   119  4.589083242381300E-012
                   120 -5.901485531877752E-012
                   121 -1.925318931345544E-005
                   122 -2.595144801587700E-004
                   123 -5.415816281611081E-004
                   124  1.649006972150410E-004
                   125  3.692005192064840E-004
                   126 -2.377893271800960E-013
                   127 -1.092065122625990E-005
                   128 -5.081384120652670E-004
                   129  8.685985655825170E-012
                   130  1.901279582532060E-004
                   131  5.710105825762560E-004
                   132  3.617436962128330E-012
                   133  2.810427343852050E-004
                   134  1.826114514157250E-003
                   135 -4.171578740596761E-005
                   136 -9.353851912419530E-013
                   137 -4.235121273956540E-007
                   138 -1.089377351083238E-005
                   139  2.632467248793720E-013
                   140 -3.803118103109415E-004
                   141 -1.999332270408030E-012
                   142  2.310610879733920E-004
                   143  2.876520031929140E-006
                   144  1.662745839568600E-012
                   145 -7.057626702626293E-005
                   146 -1.829544528850791E-012
                   147 -1.294714396975254E-005
                   148 -1.715198290163142E-005
                   149  5.187918392422540E-013
                   150 -1.809182876089272E-012
                   151 -1.220664943919948E-005
                   152 -1.793511725217610E-004
                   153 -2.896480681381310E-004
                   154  4.415013155621090E-005
                   155  3.804584926543580E-004
                   156  2.410425461132330E-012
                   157 -2.480157747497630E-005
                   158 -4.511096677086000E-004
                   159  1.031988565220710E-012
                   160  3.660815817796560E-007
                   161  7.563266701600380E-005
                   162 -6.042290526515800E-012
                   163  6.435323237836950E-004
                   164 -1.519184702326970E-004
                   165  3.616995553117624E-006
                   166 -8.280276120141440E-013
                   167  5.046741704845060E-006
                   168  5.070059997692860E-007
                   169 -2.384024292279320E-012
                   170 -5.353321105013206E-005
                   171 -2.168703872500510E-012
                   172 -3.879746875924790E-005
                   173  4.151232717317940E-005
                   174  7.603670603067630E-013
                   175 -1.431696644340967E-005
                   176  1.529279024112848E-012
                   177 -2.249139582977154E-005
                   178 -2.164605323867420E-006
                   179  3.525909015891140E-013
                   180 -1.450420698028474E-012
                   181 -6.495640222094532E-007
                   182 -1.626938845470170E-004
                   183 -4.616295547011150E-004
                   184  4.969119510370610E-005
                   185  2.351115662458600E-004
                   186  5.879388028700780E-012
                   187 -3.401073738673370E-005
                   188 -5.302074975699660E-005
                   189  9.974391980063980E-014
                   190  1.753277855682420E-004
                   191  5.726203085559780E-005
                   192  2.316217044229510E-012
                   193  1.114436214370180E-003
                   194 -1.198959642978240E-004
                   195  1.315639758218276E-005
                   196  1.409135901868950E-012
                   197  5.913081351801020E-006
                   198  5.602817560992360E-006
                   199 -3.367563740853140E-012
                   200  5.625049758377172E-005
                   201  9.187713726555550E-013
                   202 -1.566984967839750E-004
                   203  6.311965199992100E-005
                   204  4.460888264183720E-012
                   205 -6.304322073960391E-006
                   206  3.118542390706906E-012
                   207  9.976809680546936E-006
                   208 -3.123291309408660E-006
                   209 -2.208478317893080E-013
                   210  2.126701198234671E-013
                   211 -2.566567604544925E-006
                   212  7.113305113368970E-005
                   213 -2.310501172850640E-005
                   214  6.995013789695270E-013
                   215  1.642497293164570E-004
                   216  1.611090910364760E-004
                   217  3.860158346013210E-004
                   218 -8.373044402492460E-004
                   219 -7.589746494432550E-013
                   220 -3.662475225383090E-004
                   221  2.058685775177450E-004
                   222 -3.958555956939240E-004
                   223 -6.158201750380230E-004
                   224 -4.382752840473990E-012
                   225  3.217936959637110E-006
                   226 -6.275814173165740E-005
                   227 -2.488206603161680E-004
                   228 -4.522394035194120E-004
                   229  6.624103209125830E-012
                   230 -3.597042214656870E-006
                   231 -1.817042895384820E-005
                   232 -6.699613423931710E-005
                   233 -5.434361642675420E-004
                   234  2.583805437449870E-012
                   235  6.042253797459940E-006
                   236 -2.980728024689590E-006
                   237 -1.521622088535070E-004
                   238 -3.935578494909940E-004
                   239  9.418052968622229E-013
                   240  6.159234994072960E-006
                   241  2.780758113658390E-006
                   242  1.775467096439400E-005
                   243 -5.453281708893510E-005
                   244 -1.722865270894750E-012
                   245 -1.688025145763880E-007
                   246  1.977361033716330E-005
 Sym= __2_a__
 Ene=  0.000000000000000E+000
 Spin= Alpha
 Occup=    2.00000000000000     
                     1 -5.304905894768630E-005
                     2 -3.456862756636700E-004
                     3  2.845019335315440E-003
                     4  1.599933619881390E-004
                     5  1.320334248609510E-003
                     6  3.973000208781160E-012
                     7 -1.807520643582800E-004
                     8  2.999690083948930E-003
                     9 -3.912112799368280E-012
                    10 -3.636018399385690E-005
                    11 -1.065701041474630E-004
                    12  5.918318363112270E-013
                    13  5.894626801328370E-005
                    14 -4.357565485132190E-004
                    15  3.009476804733016E-005
                    16  3.762586811968000E-013
                    17  6.418736547294860E-006
                    18  5.838292345024120E-005
                    19 -2.738677429144250E-013
                    20 -8.320473904805443E-005
                    21  2.832013034077250E-013
                    22  8.887501350687920E-007
                    23 -1.925673991467858E-004
                    24  1.932401285375280E-012
                    25  1.719572463737091E-004
                    26 -6.785589195797704E-013
                    27 -5.900226066483808E-006
                    28 -1.767255336921928E-005
                    29 -8.845149197379460E-013
                    30 -1.806424891723008E-013
                    31 -1.188454344439855E-005
                    32   1.00101336502897     
                    33  9.341740738824900E-003
                    34  2.735910298883630E-003
                    35 -8.090660699326980E-003
                    36  2.488840656663950E-012
                    37 -1.058613005146620E-004
                    38 -3.711792976248950E-003
                    39  3.148706272099880E-012
                    40  1.168459711975240E-004
                    41  5.222991935710180E-004
                    42 -5.177119489158470E-012
                    43  4.595345736742890E-005
                    44  4.259763040642220E-003
                    45  4.626909702380199E-004
                    46 -1.423510845858190E-012
                    47 -2.587077808000670E-006
                    48 -3.968241093594800E-004
                    49  3.839425357759430E-012
                    50  5.146066484945299E-004
                    51  6.851169542833880E-012
                    52  4.979891835534360E-005
                    53  9.287809257331100E-004
                    54 -3.318378270208930E-012
                    55  3.774281615089999E-004
                    56  2.640218604194554E-012
                    57  3.279744270893270E-006
                    58 -1.754239696704274E-004
                    59  1.503483426337710E-012
                    60  6.429314087763926E-013
                    61 -3.107130287660597E-006
                    62  9.013559769310869E-003
                    63 -2.088717243552510E-003
                    64 -2.929097190716640E-004
                    65  3.078128743636380E-003
                    66 -8.592647241626450E-012
                    67 -9.060171518156760E-006
                    68  9.234763853754550E-005
                    69 -4.270889979316740E-012
                    70  7.235456536692950E-004
                    71 -9.497647571303420E-006
                    72  9.988514656323500E-012
                    73 -2.054941711013420E-003
                    74  7.504353804061120E-005
                    75 -1.080586105497450E-005
                    76 -1.216394547283310E-012
                    77  2.548764244231020E-006
                    78  2.478619349212300E-005
                    79  1.007900326654540E-012
                    80  7.136326508308716E-004
                    81  3.163701428374360E-012
                    82 -3.817030508319860E-004
                    83 -5.889635818841480E-005
                    84 -4.628931370841010E-012
                    85  7.553712575475435E-005
                    86 -1.490207269374062E-013
                    87  4.282193180255768E-005
                    88 -1.322352503770998E-004
                    89  2.235654382591940E-012
                    90  5.280227546087287E-014
                    91  4.542977613407778E-005
                    92  9.529581214675910E-003
                    93 -2.081018285239620E-003
                    94 -2.786634915349080E-004
                    95  3.020938151723920E-003
                    96 -6.714416577035780E-013
                    97  5.756062348688210E-006
                    98  7.902109210176850E-005
                    99 -4.785893195988740E-012
                   100 -6.563192253729400E-004
                   101  4.525396297230850E-005
                   102 -7.651671532737470E-012
                   103  2.056396091765010E-003
                   104  7.521484261589050E-005
                   105 -1.106342652564031E-005
                   106  4.553143412278740E-012
                   107 -7.813501461867640E-006
                   108  2.919890436095340E-005
                   109 -3.335613271698600E-012
                   110  7.410055054080180E-004
                   111 -3.892955877709700E-012
                   112  3.690774375750340E-004
                   113 -4.332786940848820E-005
                   114  3.926210212278630E-012
                   115  7.319645717723591E-005
                   116 -2.778850857825646E-012
                   117 -4.128945675185730E-005
                   118 -1.315358874991850E-004
                   119  2.589238827981070E-012
                   120 -8.531412809093669E-013
                   121 -4.466559617613781E-005
                   122 -1.723702652189710E-004
                   123 -6.854670215580280E-004
                   124  2.243456949015520E-004
                   125 -1.000916888227500E-004
                   126  7.814592716231330E-014
                   127 -3.123851298182690E-006
                   128 -3.290543263315460E-004
                   129 -3.622551720420840E-012
                   130 -5.858663450376640E-005
                   131  5.320934870004560E-004
                   132  1.933870796050970E-012
                   133  3.164428094864560E-004
                   134  7.543577362486260E-004
                   135 -1.238899293758418E-005
                   136  3.839921269594790E-012
                   137  5.276422818089220E-005
                   138  1.436873920345752E-005
                   139 -1.060557418062050E-012
                   140 -2.772362954768915E-004
                   141 -4.890537051742380E-012
                   142 -1.843209949184200E-004
                   143 -3.112667957739820E-006
                   144 -1.867981090119260E-012
                   145  2.176148965491689E-006
                   146  2.524887906374186E-013
                   147 -4.765482624037502E-005
                   148 -4.378834147119580E-005
                   149 -1.026482110092530E-012
                   150 -9.937299845979893E-013
                   151 -4.961991322074260E-006
                   152 -1.518614510364190E-004
                   153 -6.863817550244350E-004
                   154  2.285673338125230E-004
                   155 -1.282010188512370E-004
                   156  4.991335262652610E-012
                   157  2.386082022538190E-006
                   158 -3.284762054800580E-004
                   159 -3.063475530876240E-012
                   160  4.512583952195790E-005