[Molden Format]
[Atoms] AU
  N     1    7    -4.3947294300    0.0991612700    0.0000000000        
  C     2    6    -1.7793157100   -0.0302296300    0.0000000000        
  C     3    6    -0.4694062400   -0.0063844000   -2.3533798400        
  C     4    6    -0.4694062400   -0.0063844000    2.3533798400        
  C     5    6     2.2141403800    0.0044822200   -2.3290544300        
  C     6    6     2.2141403800    0.0044822200    2.3290544300        
  C     7    6     3.5082657500    0.0051058900    0.0000000000        
  H     8    1    -5.2456596200   -0.5260775200   -1.6043229900        
  H     9    1    -5.2456596200   -0.5260775200    1.6043229900        
  H    10    1    -1.5060850400    0.0139451200   -4.0904831700        
  H    11    1    -1.5060850400    0.0139451200    4.0904831700        
  H    12    1     3.2534251200    0.0120346000   -4.0656015100        
  H    13    1     3.2534251200    0.0120346000    4.0656015100        
  H    14    1     5.5374603900    0.0167086400    0.0000000000        
[5D]
[7F]
[GTO]
  1  0
   s    12 1.00
  0.114200D+05  0.172695D-04
  0.171200D+04  0.134411D-03
  0.389300D+03  0.694561D-03
  0.110000D+03  0.278531D-02
  0.355700D+02  0.863457D-02
  0.125400D+02  0.199805D-01
  0.464400D+01  0.262908D-01
  0.129300D+01 -0.243845D-01
  0.511800D+00 -0.924934D-01
  0.178700D+00 -0.339683D+00
  0.246240D-01  0.345111D+00
  0.112530D-01  0.752750D+00
   s    10 1.00
  0.114200D+05  0.523000D-03
  0.171200D+04  0.404500D-02
  0.389300D+03  0.207750D-01
  0.110000D+03  0.807269D-01
  0.355700D+02  0.233074D+00
  0.125400D+02  0.433501D+00
  0.464400D+01  0.347472D+00
  0.129300D+01  0.412620D-01
  0.511800D+00 -0.850799D-02
  0.178700D+00  0.238400D-02
   s    10 1.00
  0.114200D+05 -0.115000D-03
  0.171200D+04 -0.895000D-03
  0.389300D+03 -0.462400D-02
  0.110000D+03 -0.185280D-01
  0.355700D+02 -0.573390D-01
  0.125400D+02 -0.132076D+00
  0.464400D+01 -0.172510D+00
  0.129300D+01  0.151814D+00
  0.511800D+00  0.599944D+00
  0.178700D+00  0.387462D+00
   s     1 1.00
  0.129300D+01  0.100000D+01
   s     1 1.00
  0.178700D+00  0.100000D+01
   p     5 1.00
  0.266300D+02  0.146700D-01
  0.594800D+01  0.917640D-01
  0.174200D+01  0.298683D+00
  0.555000D+00  0.498487D+00
  0.172500D+00  0.337023D+00
   p     1 1.00
  0.174200D+01  0.100000D+01
   p     1 1.00
  0.555000D+00  0.100000D+01
   d     1 1.00
  0.165400D+01  0.100000D+01
   d     1 1.00
  0.469000D+00  0.100000D+01
   f     1 1.00
  0.109300D+01  0.100000D+01
  
  2  0
   s    10 1.00
  0.823600D+04  0.531000D-03
  0.123500D+04  0.410800D-02
  0.280800D+03  0.210870D-01
  0.792700D+02  0.818530D-01
  0.255900D+02  0.234817D+00
  0.899700D+01  0.434401D+00
  0.331900D+01  0.346129D+00
  0.905900D+00  0.393780D-01
  0.364300D+00 -0.898300D-02
  0.128500D+00  0.238500D-02
   s    10 1.00
  0.823600D+04 -0.113000D-03
  0.123500D+04 -0.878000D-03
  0.280800D+03 -0.454000D-02
  0.792700D+02 -0.181330D-01
  0.255900D+02 -0.557600D-01
  0.899700D+01 -0.126895D+00
  0.331900D+01 -0.170352D+00
  0.905900D+00  0.140382D+00
  0.364300D+00  0.598684D+00
  0.128500D+00  0.395389D+00
   s     1 1.00
  0.905900D+00  0.100000D+01
   s     1 1.00
  0.364300D+00  0.100000D+01
   p     5 1.00
  0.187100D+02  0.140310D-01
  0.413300D+01  0.868660D-01
  0.120000D+01  0.290216D+00
  0.382700D+00  0.501008D+00
  0.120900D+00  0.343406D+00
   p     1 1.00
  0.382700D+00  0.100000D+01
   p     1 1.00
  0.120900D+00  0.100000D+01
   d     1 1.00
  0.109700D+01  0.100000D+01
   d     1 1.00
  0.318000D+00  0.100000D+01
   f     1 1.00
  0.761000D+00  0.100000D+01
  
  3  0
   s    10 1.00
  0.823600D+04  0.531000D-03
  0.123500D+04  0.410800D-02
  0.280800D+03  0.210870D-01
  0.792700D+02  0.818530D-01
  0.255900D+02  0.234817D+00
  0.899700D+01  0.434401D+00
  0.331900D+01  0.346129D+00
  0.905900D+00  0.393780D-01
  0.364300D+00 -0.898300D-02
  0.128500D+00  0.238500D-02
   s    10 1.00
  0.823600D+04 -0.113000D-03
  0.123500D+04 -0.878000D-03
  0.280800D+03 -0.454000D-02
  0.792700D+02 -0.181330D-01
  0.255900D+02 -0.557600D-01
  0.899700D+01 -0.126895D+00
  0.331900D+01 -0.170352D+00
  0.905900D+00  0.140382D+00
  0.364300D+00  0.598684D+00
  0.128500D+00  0.395389D+00
   s     1 1.00
  0.905900D+00  0.100000D+01
   s     1 1.00
  0.364300D+00  0.100000D+01
   p     5 1.00
  0.187100D+02  0.140310D-01
  0.413300D+01  0.868660D-01
  0.120000D+01  0.290216D+00
  0.382700D+00  0.501008D+00
  0.120900D+00  0.343406D+00
   p     1 1.00
  0.382700D+00  0.100000D+01
   p     1 1.00
  0.120900D+00  0.100000D+01
   d     1 1.00
  0.109700D+01  0.100000D+01
   d     1 1.00
  0.318000D+00  0.100000D+01
   f     1 1.00
  0.761000D+00  0.100000D+01
  
  4  0
   s    10 1.00
  0.823600D+04  0.531000D-03
  0.123500D+04  0.410800D-02
  0.280800D+03  0.210870D-01
  0.792700D+02  0.818530D-01
  0.255900D+02  0.234817D+00
  0.899700D+01  0.434401D+00
  0.331900D+01  0.346129D+00
  0.905900D+00  0.393780D-01
  0.364300D+00 -0.898300D-02
  0.128500D+00  0.238500D-02
   s    10 1.00
  0.823600D+04 -0.113000D-03
  0.123500D+04 -0.878000D-03
  0.280800D+03 -0.454000D-02
  0.792700D+02 -0.181330D-01
  0.255900D+02 -0.557600D-01
  0.899700D+01 -0.126895D+00
  0.331900D+01 -0.170352D+00
  0.905900D+00  0.140382D+00
  0.364300D+00  0.598684D+00
  0.128500D+00  0.395389D+00
   s     1 1.00
  0.905900D+00  0.100000D+01
   s     1 1.00
  0.364300D+00  0.100000D+01
   p     5 1.00
  0.187100D+02  0.140310D-01
  0.413300D+01  0.868660D-01
  0.120000D+01  0.290216D+00
  0.382700D+00  0.501008D+00
  0.120900D+00  0.343406D+00
   p     1 1.00
  0.382700D+00  0.100000D+01
   p     1 1.00
  0.120900D+00  0.100000D+01
   d     1 1.00
  0.109700D+01  0.100000D+01
   d     1 1.00
  0.318000D+00  0.100000D+01
   f     1 1.00
  0.761000D+00  0.100000D+01
  
  5  0
   s    10 1.00
  0.823600D+04  0.531000D-03
  0.123500D+04  0.410800D-02
  0.280800D+03  0.210870D-01
  0.792700D+02  0.818530D-01
  0.255900D+02  0.234817D+00
  0.899700D+01  0.434401D+00
  0.331900D+01  0.346129D+00
  0.905900D+00  0.393780D-01
  0.364300D+00 -0.898300D-02
  0.128500D+00  0.238500D-02
   s    10 1.00
  0.823600D+04 -0.113000D-03
  0.123500D+04 -0.878000D-03
  0.280800D+03 -0.454000D-02
  0.792700D+02 -0.181330D-01
  0.255900D+02 -0.557600D-01
  0.899700D+01 -0.126895D+00
  0.331900D+01 -0.170352D+00
  0.905900D+00  0.140382D+00
  0.364300D+00  0.598684D+00
  0.128500D+00  0.395389D+00
   s     1 1.00
  0.905900D+00  0.100000D+01
   s     1 1.00
  0.364300D+00  0.100000D+01
   p     5 1.00
  0.187100D+02  0.140310D-01
  0.413300D+01  0.868660D-01
  0.120000D+01  0.290216D+00
  0.382700D+00  0.501008D+00
  0.120900D+00  0.343406D+00
   p     1 1.00
  0.382700D+00  0.100000D+01
   p     1 1.00
  0.120900D+00  0.100000D+01
   d     1 1.00
  0.109700D+01  0.100000D+01
   d     1 1.00
  0.318000D+00  0.100000D+01
   f     1 1.00
  0.761000D+00  0.100000D+01
  
  6  0
   s    10 1.00
  0.823600D+04  0.531000D-03
  0.123500D+04  0.410800D-02
  0.280800D+03  0.210870D-01
  0.792700D+02  0.818530D-01
  0.255900D+02  0.234817D+00
  0.899700D+01  0.434401D+00
  0.331900D+01  0.346129D+00
  0.905900D+00  0.393780D-01
  0.364300D+00 -0.898300D-02
  0.128500D+00  0.238500D-02
   s    10 1.00
  0.823600D+04 -0.113000D-03
  0.123500D+04 -0.878000D-03
  0.280800D+03 -0.454000D-02
  0.792700D+02 -0.181330D-01
  0.255900D+02 -0.557600D-01
  0.899700D+01 -0.126895D+00
  0.331900D+01 -0.170352D+00
  0.905900D+00  0.140382D+00
  0.364300D+00  0.598684D+00
  0.128500D+00  0.395389D+00
   s     1 1.00
  0.905900D+00  0.100000D+01
   s     1 1.00
  0.364300D+00  0.100000D+01
   p     5 1.00
  0.187100D+02  0.140310D-01
  0.413300D+01  0.868660D-01
  0.120000D+01  0.290216D+00
  0.382700D+00  0.501008D+00
  0.120900D+00  0.343406D+00
   p     1 1.00
  0.382700D+00  0.100000D+01
   p     1 1.00
  0.120900D+00  0.100000D+01
   d     1 1.00
  0.109700D+01  0.100000D+01
   d     1 1.00
  0.318000D+00  0.100000D+01
   f     1 1.00
  0.761000D+00  0.100000D+01
  
  7  0
   s    10 1.00
  0.823600D+04  0.531000D-03
  0.123500D+04  0.410800D-02
  0.280800D+03  0.210870D-01
  0.792700D+02  0.818530D-01
  0.255900D+02  0.234817D+00
  0.899700D+01  0.434401D+00
  0.331900D+01  0.346129D+00
  0.905900D+00  0.393780D-01
  0.364300D+00 -0.898300D-02
  0.128500D+00  0.238500D-02
   s    10 1.00
  0.823600D+04 -0.113000D-03
  0.123500D+04 -0.878000D-03
  0.280800D+03 -0.454000D-02
  0.792700D+02 -0.181330D-01
  0.255900D+02 -0.557600D-01
  0.899700D+01 -0.126895D+00
  0.331900D+01 -0.170352D+00
  0.905900D+00  0.140382D+00
  0.364300D+00  0.598684D+00
  0.128500D+00  0.395389D+00
   s     1 1.00
  0.905900D+00  0.100000D+01
   s     1 1.00
  0.364300D+00  0.100000D+01
   p     5 1.00
  0.187100D+02  0.140310D-01
  0.413300D+01  0.868660D-01
  0.120000D+01  0.290216D+00
  0.382700D+00  0.501008D+00
  0.120900D+00  0.343406D+00
   p     1 1.00
  0.382700D+00  0.100000D+01
   p     1 1.00
  0.120900D+00  0.100000D+01
   d     1 1.00
  0.109700D+01  0.100000D+01
   d     1 1.00
  0.318000D+00  0.100000D+01
   f     1 1.00
  0.761000D+00  0.100000D+01
  
  8  0
   s     4 1.00
  0.130100D+02  0.196850D-01
  0.196200D+01  0.137977D+00
  0.444600D+00  0.478148D+00
  0.122000D+00  0.501240D+00
   s     1 1.00
  0.122000D+00  0.100000D+01
   p     1 1.00
  0.727000D+00  0.100000D+01
  
  9  0
   s     4 1.00
  0.130100D+02  0.196850D-01
  0.196200D+01  0.137977D+00
  0.444600D+00  0.478148D+00
  0.122000D+00  0.501240D+00
   s     1 1.00
  0.122000D+00  0.100000D+01
   p     1 1.00
  0.727000D+00  0.100000D+01
  
 10  0
   s     4 1.00
  0.130100D+02  0.196850D-01
  0.196200D+01  0.137977D+00
  0.444600D+00  0.478148D+00
  0.122000D+00  0.501240D+00
   s     1 1.00
  0.122000D+00  0.100000D+01
   p     1 1.00
  0.727000D+00  0.100000D+01
  
 11  0
   s     4 1.00
  0.130100D+02  0.196850D-01
  0.196200D+01  0.137977D+00
  0.444600D+00  0.478148D+00
  0.122000D+00  0.501240D+00
   s     1 1.00
  0.122000D+00  0.100000D+01
   p     1 1.00
  0.727000D+00  0.100000D+01
  
 12  0
   s     4 1.00
  0.130100D+02  0.196850D-01
  0.196200D+01  0.137977D+00
  0.444600D+00  0.478148D+00
  0.122000D+00  0.501240D+00
   s     1 1.00
  0.122000D+00  0.100000D+01
   p     1 1.00
  0.727000D+00  0.100000D+01
  
 13  0
   s     4 1.00
  0.130100D+02  0.196850D-01
  0.196200D+01  0.137977D+00
  0.444600D+00  0.478148D+00
  0.122000D+00  0.501240D+00
   s     1 1.00
  0.122000D+00  0.100000D+01
   p     1 1.00
  0.727000D+00  0.100000D+01
  
 14  0
   s     4 1.00
  0.130100D+02  0.196850D-01
  0.196200D+01  0.137977D+00
  0.444600D+00  0.478148D+00
  0.122000D+00  0.501240D+00
   s     1 1.00
  0.122000D+00  0.100000D+01
   p     1 1.00
  0.727000D+00  0.100000D+01
  
[MO]
 Sym= __1_A'_
 Ene=   1.00000000000000     
 Spin= Alpha
 Occup=    1.00000000000000     
                     1  1.480538128459546E-004
                     2  0.998067984088165     
                     3  6.168201349561716E-003
                     4  1.998568217506950E-003
                     5  3.818726208203326E-003
                     6  4.720725490902262E-003
                     7 -3.261706394909996E-003
                     8  0.000000000000000E+000
                     9 -4.531333363602301E-004
                    10  7.639616785897083E-005
                    11  0.000000000000000E+000
                    12 -7.191292986241625E-004
                    13  2.188634364011595E-003
                    14  0.000000000000000E+000
                    15 -4.102567634674709E-006
                    16  0.000000000000000E+000
                    17  0.000000000000000E+000
                    18  1.575677243405117E-004
                    19  5.654209161188651E-005
                    20 -4.362785696136435E-004
                    21  0.000000000000000E+000
                    22  0.000000000000000E+000
                    23 -3.888777763765594E-005
                    24 -3.979654353481053E-004
                    25  0.000000000000000E+000
                    26 -1.725707258809630E-004
                    27 -5.486800416352882E-005
                    28  0.000000000000000E+000
                    29  0.000000000000000E+000
                    30 -9.331455340410917E-005
                    31 -6.130915781310096E-005
                    32 -3.755777543169088E-004
                    33  1.496605910945293E-003
                    34  1.785992859566545E-004
                    35 -8.117851185292611E-005
                    36 -5.389578499814136E-003
                    37  7.468491398387234E-005
                    38  0.000000000000000E+000
                    39  2.027326188011926E-004
                    40  7.075492807820769E-006
                    41  0.000000000000000E+000
                    42  4.553415729319625E-003
                    43  6.415675112607515E-004
                    44  0.000000000000000E+000
                    45 -2.557065860846750E-004
                    46  0.000000000000000E+000
                    47  0.000000000000000E+000
                    48  2.178471204776542E-004
                    49  3.376410834252748E-005
                    50  3.878376252111263E-004
                    51  0.000000000000000E+000
                    52  0.000000000000000E+000
                    53  1.153418941305455E-004
                    54 -2.882186783537584E-004
                    55  0.000000000000000E+000
                    56 -9.369767802542589E-005
                    57  1.230120023858738E-005
                    58  0.000000000000000E+000
                    59  0.000000000000000E+000
                    60 -4.264901654235983E-005
                    61  3.758542066219139E-005
                    62 -2.945123914017021E-004
                    63 -1.750460606115529E-003
                    64  8.187800975210877E-005
                    65  6.817751778130408E-004
                    66  7.222729609849807E-004
                    67 -2.439646050937172E-005
                    68 -7.023888011683514E-004
                    69  5.889130017617850E-004
                    70  5.271472531804306E-005
                    71  1.441555655028723E-005
                    72 -3.609657118655959E-004
                    73 -2.641640040528010E-004
                    74 -6.765786500735420E-004
                    75 -7.193508154304870E-005
                    76 -1.170895470977317E-005
                    77  1.627873492396664E-005
                    78  5.344095249672404E-005
                    79 -4.862061077107381E-006
                    80  9.470541054781309E-005
                    81  1.923129615924236E-004
                    82 -2.768059691585116E-005
                    83 -5.888793875241774E-005
                    84  2.792927223766083E-005
                    85 -1.374375531395424E-005
                    86 -5.896275968073173E-005
                    87  1.599892498356417E-005
                    88 -2.248956160677132E-005
                    89  1.144149363304323E-005
                    90 -4.887806800505954E-005
                    91 -7.897375039960651E-006
                    92 -2.945123914017021E-004
                    93 -1.750460606115529E-003
                    94  8.187800975210877E-005
                    95  6.817751778130408E-004
                    96  7.222729609849807E-004
                    97 -2.439646050937172E-005
                    98  7.023888011683514E-004
                    99  5.889130017617850E-004
                   100  5.271472531804306E-005
                   101 -1.441555655028723E-005
                   102 -3.609657118655959E-004
                   103 -2.641640040528010E-004
                   104  6.765786500735420E-004
                   105 -7.193508154304870E-005
                   106  1.170895470977317E-005
                   107 -1.627873492396664E-005
                   108  5.344095249672404E-005
                   109 -4.862061077107381E-006
                   110  9.470541054781309E-005
                   111 -1.923129615924236E-004
                   112  2.768059691585116E-005
                   113 -5.888793875241774E-005
                   114  2.792927223766083E-005
                   115  1.374375531395424E-005
                   116 -5.896275968073173E-005
                   117  1.599892498356417E-005
                   118  2.248956160677132E-005
                   119 -1.144149363304323E-005
                   120 -4.887806800505954E-005
                   121 -7.897375039960651E-006
                   122 -1.401775029732312E-004
                   123 -7.853755775956345E-005
                   124  6.273558133210575E-005
                   125  3.511090678756064E-004
                   126 -6.549900331160453E-004
                   127 -2.513058079140407E-005
                   128  2.747610454434396E-005
                   129  2.382901146402114E-004
                   130 -7.590316596804499E-006
                   131  2.746604755113018E-005
                   132  7.535026167332818E-004
                   133  1.068690919806282E-004
                   134 -2.695860108091350E-004
                   135  3.513955417944165E-006
                   136 -9.814587212311738E-007
                   137 -2.654511952042985E-006
                   138 -1.074313598715691E-006
                   139  6.320229790354543E-006
                   140  7.136016392378002E-005
                   141  1.897922241458106E-004
                   142  6.683758168226701E-006
                   143 -1.721533059354835E-004
                   144 -1.934168558503834E-005
                   145 -5.755371674908764E-006
                   146 -1.610855525635498E-005
                   147  1.139546956033236E-006
                   148  7.295405855806182E-007
                   149 -1.863587485136946E-006
                   150 -4.113214903445517E-005
                   151  9.449412630077295E-007
                   152 -1.401775029732312E-004
                   153 -7.853755775956345E-005
                   154  6.273558133210575E-005
                   155  3.511090678756064E-004
                   156 -6.549900331160453E-004
                   157 -2.513058079140407E-005
                   158 -2.747610454434396E-005
                   159  2.382901146402114E-004
                   160 -7.590316596804499E-006
                   161 -2.746604755113018E-005
                   162  7.535026167332818E-004
                   163  1.068690919806282E-004
                   164  2.695860108091350E-004
                   165  3.513955417944165E-006
                   166  9.814587212311738E-007
                   167  2.654511952042985E-006
                   168 -1.074313598715691E-006
                   169  6.320229790354543E-006
                   170  7.136016392378002E-005
                   171 -1.897922241458106E-004
                   172 -6.683758168226701E-006
                   173 -1.721533059354835E-004
                   174 -1.934168558503834E-005
                   175  5.755371674908764E-006
                   176 -1.610855525635498E-005
                   177  1.139546956033236E-006
                   178 -7.295405855806182E-007
                   179  1.863587485136946E-006
                   180 -4.113214903445517E-005
                   181  9.449412630077295E-007
                   182 -9.324429230553537E-005
                   183 -2.649509772581258E-004
                   184  2.930470740950616E-005
                   185  8.164132620263240E-005
                   186 -2.162592607729591E-005
                   187 -3.871641485112616E-005
                   188  0.000000000000000E+000
                   189  5.697964266860039E-005
                   190  1.796550698571027E-005
                   191  0.000000000000000E+000
                   192 -2.060543978190893E-004
                   193 -7.707083847177002E-005
                   194  0.000000000000000E+000
                   195 -1.279648773559173E-005
                   196  0.000000000000000E+000
                   197  0.000000000000000E+000
                   198  7.665057927961488E-006
                   199 -1.539991263347088E-006
                   200 -1.062650903198547E-004
                   201  0.000000000000000E+000
                   202  0.000000000000000E+000
                   203  4.269784150943392E-005
                   204  1.233763419896884E-005
                   205  0.000000000000000E+000
                   206  1.269896753829823E-007
                   207  2.116613015916950E-006
                   208  0.000000000000000E+000
                   209  0.000000000000000E+000
                   210 -5.419666297990448E-006
                   211 -1.492811677418867E-006
                   212  3.282134777201178E-003
                   213 -2.304366157240597E-003
                   214  2.551307712344139E-004
                   215  2.317290197564798E-004
                   216  4.061649878520223E-004
                   217  3.282134777201178E-003
                   218 -2.304366157240597E-003
                   219  2.551307712344139E-004
                   220  2.317290197564798E-004
                   221 -4.061649878520223E-004
                   222 -5.475712951000007E-004
                   223 -2.314435816142756E-004
                   224 -4.819552570918199E-005
                   225  5.440876197916178E-006
                   226  1.453492203478209E-005
                   227 -5.475712951000007E-004
                   228 -2.314435816142756E-004
                   229 -4.819552570918199E-005
                   230  5.440876197916178E-006
                   231 -1.453492203478209E-005
                   232 -1.543770780212701E-004
                   233 -4.541208294991508E-004
                   234  5.987755882829346E-006
                   235 -6.572514100943767E-007
                   236 -3.972141206012498E-006
                   237 -1.543770780212701E-004
                   238 -4.541208294991508E-004
                   239  5.987755882829346E-006
                   240 -6.572514100943767E-007
                   241  3.972141206012498E-006
                   242  5.030535923276340E-005
                   243  2.697232432066873E-005
                   244  1.993708460202319E-005
                   245  8.013484285297276E-007
                   246  0.000000000000000E+000
 Sym= __2_A'_
 Ene=   2.00000000000000     
 Spin= Alpha
 Occup=    1.00000000000000     
                     1 -3.203842601594392E-005
                     2 -1.566812108448751E-004
                     3  1.981522838861951E-003
                     4  4.623413675016551E-005
                     5  1.190006124216094E-003
                     6  2.309620590546217E-003
                     7  3.544553936467288E-004
                     8  0.000000000000000E+000
                     9 -6.768246597784189E-005
                    10  5.705176089415020E-005
                    11  0.000000000000000E+000
                    12 -2.165855306583833E-004
                    13 -4.024109186751976E-006
                    14  0.000000000000000E+000
                    15 -7.442647206181146E-005
                    16  0.000000000000000E+000
                    17  0.000000000000000E+000
                    18  2.289306107291156E-005
                    19 -4.907271962376305E-007
                    20  3.043123836006858E-004
                    21  0.000000000000000E+000
                    22  0.000000000000000E+000
                    23  2.165781713042562E-005
                    24 -2.267456132498862E-005
                    25  0.000000000000000E+000
                    26  1.306998294836349E-004
                    27 -5.692617991996572E-005
                    28  0.000000000000000E+000
                    29  0.000000000000000E+000
                    30  1.318775515532616E-004
                    31  2.940386507124358E-005
                    32   1.00106466113883     
                    33  8.868922525055950E-003
                    34  2.617969024821683E-003
                    35 -8.035268253027856E-003
                    36 -3.133860622841554E-003
                    37  6.148060400917376E-004
                    38  0.000000000000000E+000
                    39  9.174662833369955E-004
                    40 -1.855248064250526E-004
                    41  0.000000000000000E+000
                    42  3.815423611307593E-003
                    43 -9.605724878535479E-005
                    44  0.000000000000000E+000
                    45  2.328742856999806E-004
                    46  0.000000000000000E+000
                    47  0.000000000000000E+000
                    48  4.658459964293918E-004
                    49 -2.622519724066712E-005
                    50 -1.293597784919527E-003
                    51  0.000000000000000E+000
                    52  0.000000000000000E+000
                    53  6.696798105033058E-005
                    54  2.033551870530319E-005
                    55  0.000000000000000E+000
                    56  3.219691623065398E-004
                    57 -7.856278597216268E-006
                    58  0.000000000000000E+000
                    59  0.000000000000000E+000
                    60  1.236075646510143E-004
                    61  2.247307071286903E-005
                    62  9.974065355061746E-003
                    63 -1.911441809458115E-003
                    64 -2.983993046013362E-004
                    65  3.084151958377824E-003
                    66 -5.538186193762231E-005
                    67  1.066720318791995E-004
                    68  1.858014367914918E-004
                    69 -1.404611146678619E-004
                    70 -7.718929528838728E-006
                    71  6.262492965863158E-004
                    72  1.136209239180638E-005
                    73 -1.297528988805451E-005
                    74 -2.005606555118025E-003
                    75  3.024420664873249E-007
                    76  1.248419380001262E-005
                    77  7.618302779817296E-006
                    78 -3.147516662089178E-005
                    79 -5.435977758398222E-006
                    80 -4.103391408092761E-004
                    81 -5.697575575542510E-004
                    82 -3.920126248741647E-006
                    83  6.983395266280318E-004
                    84  1.308436313093596E-005
                    85  8.132690898745260E-005
                    86  1.148598662744212E-004
                    87  1.198773432051560E-006
                    88  6.432282731443078E-006
                    89 -6.193506009187770E-006
                    90 -2.264879401487222E-005
                    91  4.204516511696007E-006
                    92  9.974065355061746E-003
                    93 -1.911441809458115E-003
                    94 -2.983993046013362E-004
                    95  3.084151958377824E-003
                    96 -5.538186193762231E-005
                    97  1.066720318791995E-004
                    98 -1.858014367914918E-004
                    99 -1.404611146678619E-004
                   100 -7.718929528838728E-006
                   101 -6.262492965863158E-004
                   102  1.136209239180638E-005
                   103 -1.297528988805451E-005
                   104  2.005606555118025E-003
                   105  3.024420664873249E-007
                   106 -1.248419380001262E-005
                   107 -7.618302779817296E-006
                   108 -3.147516662089178E-005
                   109 -5.435977758398222E-006
                   110 -4.103391408092761E-004
                   111  5.697575575542510E-004
                   112  3.920126248741647E-006
                   113  6.983395266280318E-004
                   114  1.308436313093596E-005
                   115 -8.132690898745260E-005
                   116  1.148598662744212E-004
                   117  1.198773432051560E-006
                   118 -6.432282731443078E-006
                   119  6.193506009187770E-006
                   120 -2.264879401487222E-005
                   121  4.204516511696007E-006
                   122 -2.013257246925458E-004
                   123 -6.904236470333583E-004
                   124  2.266727105418708E-004
                   125 -1.301314498575346E-004
                   126 -2.182144422683994E-004
                   127  1.936625775176416E-005
                   128 -2.691666127249129E-005
                   129  4.912216734832331E-004
                   130 -4.356989833600581E-006
                   131  1.900753591202958E-005
                   132  6.472290924331027E-004
                   133  1.168422262617301E-006
                   134  3.332970549163975E-004
                   135 -2.805153539592994E-006
                   136  4.574735447854100E-005
                   137 -1.493637861884599E-007
                   138 -1.994565340123931E-005
                   139 -1.633368588254567E-006
                   140  1.638994812792707E-004
                   141 -2.773879600975377E-004
                   142  2.746807121589909E-006
                   143 -2.556520960542184E-004
                   144 -8.075227107928852E-007
                   145 -2.398030990590314E-005
                   146  1.644004510669832E-005
                   147  3.883023328364910E-007
                   148 -2.440536623407656E-005
                   149 -2.051134042578115E-006
                   150 -2.695372949296651E-005
                   151 -6.262603679636276E-007
                   152 -2.013257246925458E-004
                   153 -6.904236470333583E-004
                   154  2.266727105418708E-004
                   155 -1.301314498575346E-004
                   156 -2.182144422683994E-004
                   157  1.936625775176416E-005
                   158  2.691666127249129E-005
                   159  4.912216734832331E-004
                   160 -4.356989833600581E-006