[Molden Format]
[Atoms] AU
  N     1    7    -4.3947294300    0.0991612700    0.0000000000        
  C     2    6    -1.7793157100   -0.0302296300    0.0000000000        
  C     3    6    -0.4694062400   -0.0063844000   -2.3533798400        
  C     4    6    -0.4694062400   -0.0063844000    2.3533798400        
  C     5    6     2.2141403800    0.0044822200   -2.3290544300        
  C     6    6     2.2141403800    0.0044822200    2.3290544300        
  C     7    6     3.5082657500    0.0051058900    0.0000000000        
  H     8    1    -5.2456596200   -0.5260775200   -1.6043229900        
  H     9    1    -5.2456596200   -0.5260775200    1.6043229900        
  H    10    1    -1.5060850400    0.0139451200   -4.0904831700        
  H    11    1    -1.5060850400    0.0139451200    4.0904831700        
  H    12    1     3.2534251200    0.0120346000   -4.0656015100        
  H    13    1     3.2534251200    0.0120346000    4.0656015100        
  H    14    1     5.5374603900    0.0167086400    0.0000000000        
[5D]
[7F]
[GTO]
  1  0
   s    12 1.00
  0.114200D+05  0.172695D-04
  0.171200D+04  0.134411D-03
  0.389300D+03  0.694561D-03
  0.110000D+03  0.278531D-02
  0.355700D+02  0.863457D-02
  0.125400D+02  0.199805D-01
  0.464400D+01  0.262908D-01
  0.129300D+01 -0.243845D-01
  0.511800D+00 -0.924934D-01
  0.178700D+00 -0.339683D+00
  0.246240D-01  0.345111D+00
  0.112530D-01  0.752750D+00
   s    10 1.00
  0.114200D+05  0.523000D-03
  0.171200D+04  0.404500D-02
  0.389300D+03  0.207750D-01
  0.110000D+03  0.807269D-01
  0.355700D+02  0.233074D+00
  0.125400D+02  0.433501D+00
  0.464400D+01  0.347472D+00
  0.129300D+01  0.412620D-01
  0.511800D+00 -0.850799D-02
  0.178700D+00  0.238400D-02
   s    10 1.00
  0.114200D+05 -0.115000D-03
  0.171200D+04 -0.895000D-03
  0.389300D+03 -0.462400D-02
  0.110000D+03 -0.185280D-01
  0.355700D+02 -0.573390D-01
  0.125400D+02 -0.132076D+00
  0.464400D+01 -0.172510D+00
  0.129300D+01  0.151814D+00
  0.511800D+00  0.599944D+00
  0.178700D+00  0.387462D+00
   s     1 1.00
  0.129300D+01  0.100000D+01
   s     1 1.00
  0.178700D+00  0.100000D+01
   p     5 1.00
  0.266300D+02  0.146700D-01
  0.594800D+01  0.917640D-01
  0.174200D+01  0.298683D+00
  0.555000D+00  0.498487D+00
  0.172500D+00  0.337023D+00
   p     1 1.00
  0.174200D+01  0.100000D+01
   p     1 1.00
  0.555000D+00  0.100000D+01
   d     1 1.00
  0.165400D+01  0.100000D+01
   d     1 1.00
  0.469000D+00  0.100000D+01
   f     1 1.00
  0.109300D+01  0.100000D+01
  
  2  0
   s    10 1.00
  0.823600D+04  0.531000D-03
  0.123500D+04  0.410800D-02
  0.280800D+03  0.210870D-01
  0.792700D+02  0.818530D-01
  0.255900D+02  0.234817D+00
  0.899700D+01  0.434401D+00
  0.331900D+01  0.346129D+00
  0.905900D+00  0.393780D-01
  0.364300D+00 -0.898300D-02
  0.128500D+00  0.238500D-02
   s    10 1.00
  0.823600D+04 -0.113000D-03
  0.123500D+04 -0.878000D-03
  0.280800D+03 -0.454000D-02
  0.792700D+02 -0.181330D-01
  0.255900D+02 -0.557600D-01
  0.899700D+01 -0.126895D+00
  0.331900D+01 -0.170352D+00
  0.905900D+00  0.140382D+00
  0.364300D+00  0.598684D+00
  0.128500D+00  0.395389D+00
   s     1 1.00
  0.905900D+00  0.100000D+01
   s     1 1.00
  0.364300D+00  0.100000D+01
   p     5 1.00
  0.187100D+02  0.140310D-01
  0.413300D+01  0.868660D-01
  0.120000D+01  0.290216D+00
  0.382700D+00  0.501008D+00
  0.120900D+00  0.343406D+00
   p     1 1.00
  0.382700D+00  0.100000D+01
   p     1 1.00
  0.120900D+00  0.100000D+01
   d     1 1.00
  0.109700D+01  0.100000D+01
   d     1 1.00
  0.318000D+00  0.100000D+01
   f     1 1.00
  0.761000D+00  0.100000D+01
  
  3  0
   s    10 1.00
  0.823600D+04  0.531000D-03
  0.123500D+04  0.410800D-02
  0.280800D+03  0.210870D-01
  0.792700D+02  0.818530D-01
  0.255900D+02  0.234817D+00
  0.899700D+01  0.434401D+00
  0.331900D+01  0.346129D+00
  0.905900D+00  0.393780D-01
  0.364300D+00 -0.898300D-02
  0.128500D+00  0.238500D-02
   s    10 1.00
  0.823600D+04 -0.113000D-03
  0.123500D+04 -0.878000D-03
  0.280800D+03 -0.454000D-02
  0.792700D+02 -0.181330D-01
  0.255900D+02 -0.557600D-01
  0.899700D+01 -0.126895D+00
  0.331900D+01 -0.170352D+00
  0.905900D+00  0.140382D+00
  0.364300D+00  0.598684D+00
  0.128500D+00  0.395389D+00
   s     1 1.00
  0.905900D+00  0.100000D+01
   s     1 1.00
  0.364300D+00  0.100000D+01
   p     5 1.00
  0.187100D+02  0.140310D-01
  0.413300D+01  0.868660D-01
  0.120000D+01  0.290216D+00
  0.382700D+00  0.501008D+00
  0.120900D+00  0.343406D+00
   p     1 1.00
  0.382700D+00  0.100000D+01
   p     1 1.00
  0.120900D+00  0.100000D+01
   d     1 1.00
  0.109700D+01  0.100000D+01
   d     1 1.00
  0.318000D+00  0.100000D+01
   f     1 1.00
  0.761000D+00  0.100000D+01
  
  4  0
   s    10 1.00
  0.823600D+04  0.531000D-03
  0.123500D+04  0.410800D-02
  0.280800D+03  0.210870D-01
  0.792700D+02  0.818530D-01
  0.255900D+02  0.234817D+00
  0.899700D+01  0.434401D+00
  0.331900D+01  0.346129D+00
  0.905900D+00  0.393780D-01
  0.364300D+00 -0.898300D-02
  0.128500D+00  0.238500D-02
   s    10 1.00
  0.823600D+04 -0.113000D-03
  0.123500D+04 -0.878000D-03
  0.280800D+03 -0.454000D-02
  0.792700D+02 -0.181330D-01
  0.255900D+02 -0.557600D-01
  0.899700D+01 -0.126895D+00
  0.331900D+01 -0.170352D+00
  0.905900D+00  0.140382D+00
  0.364300D+00  0.598684D+00
  0.128500D+00  0.395389D+00
   s     1 1.00
  0.905900D+00  0.100000D+01
   s     1 1.00
  0.364300D+00  0.100000D+01
   p     5 1.00
  0.187100D+02  0.140310D-01
  0.413300D+01  0.868660D-01
  0.120000D+01  0.290216D+00
  0.382700D+00  0.501008D+00
  0.120900D+00  0.343406D+00
   p     1 1.00
  0.382700D+00  0.100000D+01
   p     1 1.00
  0.120900D+00  0.100000D+01
   d     1 1.00
  0.109700D+01  0.100000D+01
   d     1 1.00
  0.318000D+00  0.100000D+01
   f     1 1.00
  0.761000D+00  0.100000D+01
  
  5  0
   s    10 1.00
  0.823600D+04  0.531000D-03
  0.123500D+04  0.410800D-02
  0.280800D+03  0.210870D-01
  0.792700D+02  0.818530D-01
  0.255900D+02  0.234817D+00
  0.899700D+01  0.434401D+00
  0.331900D+01  0.346129D+00
  0.905900D+00  0.393780D-01
  0.364300D+00 -0.898300D-02
  0.128500D+00  0.238500D-02
   s    10 1.00
  0.823600D+04 -0.113000D-03
  0.123500D+04 -0.878000D-03
  0.280800D+03 -0.454000D-02
  0.792700D+02 -0.181330D-01
  0.255900D+02 -0.557600D-01
  0.899700D+01 -0.126895D+00
  0.331900D+01 -0.170352D+00
  0.905900D+00  0.140382D+00
  0.364300D+00  0.598684D+00
  0.128500D+00  0.395389D+00
   s     1 1.00
  0.905900D+00  0.100000D+01
   s     1 1.00
  0.364300D+00  0.100000D+01
   p     5 1.00
  0.187100D+02  0.140310D-01
  0.413300D+01  0.868660D-01
  0.120000D+01  0.290216D+00
  0.382700D+00  0.501008D+00
  0.120900D+00  0.343406D+00
   p     1 1.00
  0.382700D+00  0.100000D+01
   p     1 1.00
  0.120900D+00  0.100000D+01
   d     1 1.00
  0.109700D+01  0.100000D+01
   d     1 1.00
  0.318000D+00  0.100000D+01
   f     1 1.00
  0.761000D+00  0.100000D+01
  
  6  0
   s    10 1.00
  0.823600D+04  0.531000D-03
  0.123500D+04  0.410800D-02
  0.280800D+03  0.210870D-01
  0.792700D+02  0.818530D-01
  0.255900D+02  0.234817D+00
  0.899700D+01  0.434401D+00
  0.331900D+01  0.346129D+00
  0.905900D+00  0.393780D-01
  0.364300D+00 -0.898300D-02
  0.128500D+00  0.238500D-02
   s    10 1.00
  0.823600D+04 -0.113000D-03
  0.123500D+04 -0.878000D-03
  0.280800D+03 -0.454000D-02
  0.792700D+02 -0.181330D-01
  0.255900D+02 -0.557600D-01
  0.899700D+01 -0.126895D+00
  0.331900D+01 -0.170352D+00
  0.905900D+00  0.140382D+00
  0.364300D+00  0.598684D+00
  0.128500D+00  0.395389D+00
   s     1 1.00
  0.905900D+00  0.100000D+01
   s     1 1.00
  0.364300D+00  0.100000D+01
   p     5 1.00
  0.187100D+02  0.140310D-01
  0.413300D+01  0.868660D-01
  0.120000D+01  0.290216D+00
  0.382700D+00  0.501008D+00
  0.120900D+00  0.343406D+00
   p     1 1.00
  0.382700D+00  0.100000D+01
   p     1 1.00
  0.120900D+00  0.100000D+01
   d     1 1.00
  0.109700D+01  0.100000D+01
   d     1 1.00
  0.318000D+00  0.100000D+01
   f     1 1.00
  0.761000D+00  0.100000D+01
  
  7  0
   s    10 1.00
  0.823600D+04  0.531000D-03
  0.123500D+04  0.410800D-02
  0.280800D+03  0.210870D-01
  0.792700D+02  0.818530D-01
  0.255900D+02  0.234817D+00
  0.899700D+01  0.434401D+00
  0.331900D+01  0.346129D+00
  0.905900D+00  0.393780D-01
  0.364300D+00 -0.898300D-02
  0.128500D+00  0.238500D-02
   s    10 1.00
  0.823600D+04 -0.113000D-03
  0.123500D+04 -0.878000D-03
  0.280800D+03 -0.454000D-02
  0.792700D+02 -0.181330D-01
  0.255900D+02 -0.557600D-01
  0.899700D+01 -0.126895D+00
  0.331900D+01 -0.170352D+00
  0.905900D+00  0.140382D+00
  0.364300D+00  0.598684D+00
  0.128500D+00  0.395389D+00
   s     1 1.00
  0.905900D+00  0.100000D+01
   s     1 1.00
  0.364300D+00  0.100000D+01
   p     5 1.00
  0.187100D+02  0.140310D-01
  0.413300D+01  0.868660D-01
  0.120000D+01  0.290216D+00
  0.382700D+00  0.501008D+00
  0.120900D+00  0.343406D+00
   p     1 1.00
  0.382700D+00  0.100000D+01
   p     1 1.00
  0.120900D+00  0.100000D+01
   d     1 1.00
  0.109700D+01  0.100000D+01
   d     1 1.00
  0.318000D+00  0.100000D+01
   f     1 1.00
  0.761000D+00  0.100000D+01
  
  8  0
   s     4 1.00
  0.130100D+02  0.196850D-01
  0.196200D+01  0.137977D+00
  0.444600D+00  0.478148D+00
  0.122000D+00  0.501240D+00
   s     1 1.00
  0.122000D+00  0.100000D+01
   p     1 1.00
  0.727000D+00  0.100000D+01
  
  9  0
   s     4 1.00
  0.130100D+02  0.196850D-01
  0.196200D+01  0.137977D+00
  0.444600D+00  0.478148D+00
  0.122000D+00  0.501240D+00
   s     1 1.00
  0.122000D+00  0.100000D+01
   p     1 1.00
  0.727000D+00  0.100000D+01
  
 10  0
   s     4 1.00
  0.130100D+02  0.196850D-01
  0.196200D+01  0.137977D+00
  0.444600D+00  0.478148D+00
  0.122000D+00  0.501240D+00
   s     1 1.00
  0.122000D+00  0.100000D+01
   p     1 1.00
  0.727000D+00  0.100000D+01
  
 11  0
   s     4 1.00
  0.130100D+02  0.196850D-01
  0.196200D+01  0.137977D+00
  0.444600D+00  0.478148D+00
  0.122000D+00  0.501240D+00
   s     1 1.00
  0.122000D+00  0.100000D+01
   p     1 1.00
  0.727000D+00  0.100000D+01
  
 12  0
   s     4 1.00
  0.130100D+02  0.196850D-01
  0.196200D+01  0.137977D+00
  0.444600D+00  0.478148D+00
  0.122000D+00  0.501240D+00
   s     1 1.00
  0.122000D+00  0.100000D+01
   p     1 1.00
  0.727000D+00  0.100000D+01
  
 13  0
   s     4 1.00
  0.130100D+02  0.196850D-01
  0.196200D+01  0.137977D+00
  0.444600D+00  0.478148D+00
  0.122000D+00  0.501240D+00
   s     1 1.00
  0.122000D+00  0.100000D+01
   p     1 1.00
  0.727000D+00  0.100000D+01
  
 14  0
   s     4 1.00
  0.130100D+02  0.196850D-01
  0.196200D+01  0.137977D+00
  0.444600D+00  0.478148D+00
  0.122000D+00  0.501240D+00
   s     1 1.00
  0.122000D+00  0.100000D+01
   p     1 1.00
  0.727000D+00  0.100000D+01
  
[MO]
 Sym= __1_A'_
 Ene=  0.000000000000000E+000
 Spin= Alpha
 Occup=    2.00000000000000     
                     1  1.480538128570278E-004
                     2  0.998067984088153     
                     3  6.168201349859929E-003
                     4  1.998568217500489E-003
                     5  3.818726207947094E-003
                     6  4.720725490934564E-003
                     7 -3.261706394789636E-003
                     8  0.000000000000000E+000
                     9 -4.531333363021129E-004
                    10  7.639616784194540E-005
                    11  0.000000000000000E+000
                    12 -7.191292985938544E-004
                    13  2.188634364000418E-003
                    14  0.000000000000000E+000
                    15 -4.102567635018871E-006
                    16  0.000000000000000E+000
                    17  0.000000000000000E+000
                    18  1.575677243484763E-004
                    19  5.654209161383440E-005
                    20 -4.362785696602641E-004
                    21  0.000000000000000E+000
                    22  0.000000000000000E+000
                    23 -3.888777763173878E-005
                    24 -3.979654353614055E-004
                    25  0.000000000000000E+000
                    26 -1.725707258743451E-004
                    27 -5.486800416141403E-005
                    28  0.000000000000000E+000
                    29  0.000000000000000E+000
                    30 -9.331455340506167E-005
                    31 -6.130915781189806E-005
                    32 -3.755777525612175E-004
                    33  1.496605915895786E-003
                    34  1.785992858769641E-004
                    35 -8.117851170618310E-005
                    36 -5.389578497458441E-003
                    37  7.468491407394099E-005
                    38  0.000000000000000E+000
                    39  2.027326186844131E-004
                    40  7.075492806250956E-006
                    41  0.000000000000000E+000
                    42  4.553415729238601E-003
                    43  6.415675112517249E-004
                    44  0.000000000000000E+000
                    45 -2.557065860126140E-004
                    46  0.000000000000000E+000
                    47  0.000000000000000E+000
                    48  2.178471205474662E-004
                    49  3.376410834330405E-005
                    50  3.878376253420940E-004
                    51  0.000000000000000E+000
                    52  0.000000000000000E+000
                    53  1.153418942247599E-004
                    54 -2.882186783548654E-004
                    55  0.000000000000000E+000
                    56 -9.369767792065191E-005
                    57  1.230120023960371E-005
                    58  0.000000000000000E+000
                    59  0.000000000000000E+000
                    60 -4.264901654278877E-005
                    61  3.758542066792435E-005
                    62 -2.945123917304343E-004
                    63 -1.750460606437704E-003
                    64  8.187800975211217E-005
                    65  6.817751781348883E-004
                    66  7.222729608798336E-004
                    67 -2.439646051021409E-005
                    68 -7.023887972088430E-004
                    69  5.889130018804203E-004
                    70  5.271472532105801E-005
                    71  1.441555618187721E-005
                    72 -3.609657119936399E-004
                    73 -2.641640040354095E-004
                    74 -6.765786515489543E-004
                    75 -7.193508150170511E-005
                    76 -1.170895475854564E-005
                    77  1.627873492503671E-005
                    78  5.344095249555564E-005
                    79 -4.862061076551538E-006
                    80  9.470541066974374E-005
                    81  1.923129617134526E-004
                    82 -2.768059691786090E-005
                    83 -5.888793873817490E-005
                    84  2.792927223474478E-005
                    85 -1.374375532428970E-005
                    86 -5.896275970343748E-005
                    87  1.599892498340950E-005
                    88 -2.248956157532516E-005
                    89  1.144149363354759E-005
                    90 -4.887806800533094E-005
                    91 -7.897375039764765E-006
                    92 -2.945123917304343E-004
                    93 -1.750460606437704E-003
                    94  8.187800975211217E-005
                    95  6.817751781348883E-004
                    96  7.222729608798336E-004
                    97 -2.439646051021409E-005
                    98  7.023887972088430E-004
                    99  5.889130018804203E-004
                   100  5.271472532105801E-005
                   101 -1.441555618187721E-005
                   102 -3.609657119936399E-004
                   103 -2.641640040354095E-004
                   104  6.765786515489543E-004
                   105 -7.193508150170511E-005
                   106  1.170895475854564E-005
                   107 -1.627873492503671E-005
                   108  5.344095249555564E-005
                   109 -4.862061076551538E-006
                   110  9.470541066974374E-005
                   111 -1.923129617134526E-004
                   112  2.768059691786090E-005
                   113 -5.888793873817490E-005
                   114  2.792927223474478E-005
                   115  1.374375532428970E-005
                   116 -5.896275970343748E-005
                   117  1.599892498340950E-005
                   118  2.248956157532516E-005
                   119 -1.144149363354759E-005
                   120 -4.887806800533094E-005
                   121 -7.897375039764765E-006
                   122 -1.401775032934213E-004
                   123 -7.853755780502621E-005
                   124  6.273558135264745E-005
                   125  3.511090681223086E-004
                   126 -6.549900331163267E-004
                   127 -2.513058079971315E-005
                   128  2.747610871109716E-005
                   129  2.382901146559381E-004
                   130 -7.590316594397523E-006
                   131  2.746604715820900E-005
                   132  7.535026169983282E-004
                   133  1.068690919783139E-004
                   134 -2.695860120289793E-004
                   135  3.513955473800458E-006
                   136 -9.814586792121148E-007
                   137 -2.654511952254189E-006
                   138 -1.074313610391063E-006
                   139  6.320229789740162E-006
                   140  7.136016409590813E-005
                   141  1.897922240186426E-004
                   142  6.683758167410275E-006
                   143 -1.721533060137903E-004
                   144 -1.934168558588286E-005
                   145 -5.755371694899694E-006
                   146 -1.610855523766965E-005
                   147  1.139546955939823E-006
                   148  7.295406030184022E-007
                   149 -1.863587485259988E-006
                   150 -4.113214903897384E-005
                   151  9.449412631904551E-007
                   152 -1.401775032934213E-004
                   153 -7.853755780502621E-005
                   154  6.273558135264745E-005
                   155  3.511090681223086E-004
                   156 -6.549900331163267E-004
                   157 -2.513058079971315E-005
                   158 -2.747610871109716E-005
                   159  2.382901146559381E-004
                   160 -7.590316594397523E-006
                   161 -2.746604715820900E-005
                   162  7.535026169983282E-004
                   163  1.068690919783139E-004
                   164  2.695860120289793E-004
                   165  3.513955473800458E-006
                   166  9.814586792121148E-007
                   167  2.654511952254189E-006
                   168 -1.074313610391063E-006
                   169  6.320229789740162E-006
                   170  7.136016409590813E-005
                   171 -1.897922240186426E-004
                   172 -6.683758167410275E-006
                   173 -1.721533060137903E-004
                   174 -1.934168558588286E-005
                   175  5.755371694899694E-006
                   176 -1.610855523766965E-005
                   177  1.139546955939823E-006
                   178 -7.295406030184022E-007
                   179  1.863587485259988E-006
                   180 -4.113214903897384E-005
                   181  9.449412631904551E-007
                   182 -9.324429250802930E-005
                   183 -2.649509741535439E-004
                   184  2.930470732894749E-005
                   185  8.164132645702355E-005
                   186 -2.162593024965021E-005
                   187 -3.871641487267950E-005
                   188  0.000000000000000E+000
                   189  5.697964292523894E-005
                   190  1.796550698556893E-005
                   191  0.000000000000000E+000
                   192 -2.060543969331622E-004
                   193 -7.707083846712711E-005
                   194  0.000000000000000E+000
                   195 -1.279648763661579E-005
                   196  0.000000000000000E+000
                   197  0.000000000000000E+000
                   198  7.665057956103762E-006
                   199 -1.539991263496821E-006
                   200 -1.062650902166839E-004
                   201  0.000000000000000E+000
                   202  0.000000000000000E+000
                   203  4.269784160594330E-005
                   204  1.233763420049482E-005
                   205  0.000000000000000E+000
                   206  1.269895808562834E-007
                   207  2.116613015572689E-006
                   208  0.000000000000000E+000
                   209  0.000000000000000E+000
                   210 -5.419666285911942E-006
                   211 -1.492811677539294E-006
                   212  3.282134777244645E-003
                   213 -2.304366157185558E-003
                   214  2.551307712317555E-004
                   215  2.317290197646066E-004
                   216  4.061649878642014E-004
                   217  3.282134777244645E-003
                   218 -2.304366157185558E-003
                   219  2.551307712317555E-004
                   220  2.317290197646066E-004
                   221 -4.061649878642014E-004
                   222 -5.475712979074168E-004
                   223 -2.314435811086835E-004
                   224 -4.819552582582873E-005
                   225  5.440876201111848E-006
                   226  1.453492189330972E-005
                   227 -5.475712979074168E-004
                   228 -2.314435811086835E-004
                   229 -4.819552582582873E-005
                   230  5.440876201111848E-006
                   231 -1.453492189330972E-005
                   232 -1.543770808114734E-004
                   233 -4.541208288553744E-004
                   234  5.987756004967942E-006
                   235 -6.572514090343243E-007
                   236 -3.972141348348937E-006
                   237 -1.543770808114734E-004
                   238 -4.541208288553744E-004
                   239  5.987756004967942E-006
                   240 -6.572514090343243E-007
                   241  3.972141348348937E-006
                   242  5.030535694800869E-005
                   243  2.697232461953717E-005
                   244  1.993708472900902E-005
                   245  8.013484290369721E-007
                   246  0.000000000000000E+000
 Sym= __2_A'_
 Ene=  0.000000000000000E+000
 Spin= Alpha
 Occup=    2.00000000000000     
                     1 -3.203842601678922E-005
                     2 -1.566812128074843E-004
                     3  1.981522838915857E-003
                     4  4.623413674601897E-005
                     5  1.190006124126033E-003
                     6  2.309620590541523E-003
                     7  3.544553936801317E-004
                     8  0.000000000000000E+000
                     9 -6.768246596084651E-005
                    10  5.705176088955178E-005
                    11  0.000000000000000E+000
                    12 -2.165855306536121E-004
                    13 -4.024109194511336E-006
                    14  0.000000000000000E+000
                    15 -7.442647206157532E-005
                    16  0.000000000000000E+000
                    17  0.000000000000000E+000
                    18  2.289306107448998E-005
                    19 -4.907271959316898E-007
                    20  3.043123835880781E-004
                    21  0.000000000000000E+000
                    22  0.000000000000000E+000
                    23  2.165781712940650E-005
                    24 -2.267456132712702E-005
                    25  0.000000000000000E+000
                    26  1.306998294839709E-004
                    27 -5.692617991932327E-005
                    28  0.000000000000000E+000
                    29  0.000000000000000E+000
                    30  1.318775515535824E-004
                    31  2.940386507167267E-005
                    32   1.00106466113832     
                    33  8.868922526134417E-003
                    34  2.617969024786190E-003
                    35 -8.035268252883468E-003
                    36 -3.133860622271356E-003
                    37  6.148060401105583E-004
                    38  0.000000000000000E+000
                    39  9.174662833242512E-004
                    40 -1.855248064249844E-004
                    41  0.000000000000000E+000
                    42  3.815423611245720E-003
                    43 -9.605724878756748E-005
                    44  0.000000000000000E+000
                    45  2.328742857156340E-004
                    46  0.000000000000000E+000
                    47  0.000000000000000E+000
                    48  4.658459964428238E-004
                    49 -2.622519724047659E-005
                    50 -1.293597784864427E-003
                    51  0.000000000000000E+000
                    52  0.000000000000000E+000
                    53  6.696798108351429E-005
                    54  2.033551870540084E-005
                    55  0.000000000000000E+000
                    56  3.219691623248218E-004
                    57 -7.856278597012427E-006
                    58  0.000000000000000E+000
                    59  0.000000000000000E+000
                    60  1.236075646508921E-004
                    61  2.247307071422912E-005
                    62  9.974065375929125E-003
                    63 -1.911441809118143E-003
                    64 -2.983993045364341E-004
                    65  3.084151958236773E-003
                    66 -5.538186183527515E-005
                    67  1.066720318783413E-004
                    68  1.858014376358106E-004
                    69 -1.404611146518941E-004
                    70 -7.718929527452311E-006
                    71  6.262492964840845E-004
                    72  1.136209237233452E-005
                    73 -1.297528988388729E-005
                    74 -2.005606555421193E-003
                    75  3.024420770533023E-007
                    76  1.248419378519940E-005
                    77  7.618302779863247E-006
                    78 -3.147516660918520E-005
                    79 -5.435977758179115E-006
                    80 -4.103391407845508E-004
                    81 -5.697575575162734E-004
                    82 -3.920126249008243E-006
                    83  6.983395266249394E-004
                    84  1.308436313003329E-005
                    85  8.132690898538078E-005
                    86  1.148598662595185E-004
                    87  1.198773432047493E-006
                    88  6.432282734482848E-006
                    89 -6.193506009020418E-006
                    90 -2.264879401874682E-005
                    91  4.204516511873197E-006
                    92  9.974065375929125E-003
                    93 -1.911441809118143E-003
                    94 -2.983993045364341E-004
                    95  3.084151958236773E-003
                    96 -5.538186183527515E-005
                    97  1.066720318783413E-004
                    98 -1.858014376358106E-004
                    99 -1.404611146518941E-004
                   100 -7.718929527452311E-006
                   101 -6.262492964840845E-004
                   102  1.136209237233452E-005
                   103 -1.297528988388729E-005
                   104  2.005606555421193E-003
                   105  3.024420770533023E-007
                   106 -1.248419378519940E-005
                   107 -7.618302779863247E-006
                   108 -3.147516660918520E-005
                   109 -5.435977758179115E-006
                   110 -4.103391407845508E-004
                   111  5.697575575162734E-004
                   112  3.920126249008243E-006
                   113  6.983395266249394E-004
                   114  1.308436313003329E-005
                   115 -8.132690898538078E-005
                   116  1.148598662595185E-004
                   117  1.198773432047493E-006
                   118 -6.432282734482848E-006
                   119  6.193506009020418E-006
                   120 -2.264879401874682E-005
                   121  4.204516511873197E-006
                   122 -2.013257277474319E-004
                   123 -6.904236469805693E-004
                   124  2.266727105301090E-004
                   125 -1.301314497116023E-004
                   126 -2.182144424275484E-004
                   127  1.936625775071744E-005
                   128 -2.691666070175092E-005
                   129  4.912216734862499E-004
                   130 -4.356989833208808E-006
                   131  1.900753587922388E-005
                   132  6.472290925752047E-004
                   133  1.168422262197739E-006
                   134  3.332970547139747E-004
                   135 -2.805153535355617E-006
                   136  4.574735448007193E-005
                   137 -1.493637862096168E-007
                   138 -1.994565339915262E-005
                   139 -1.633368588311784E-006
                   140  1.638994813033347E-004
                   141 -2.773879601019949E-004
                   142  2.746807121480056E-006
                   143 -2.556520960492666E-004
                   144 -8.075227108337486E-007
                   145 -2.398030990816712E-005
                   146  1.644004510954701E-005
                   147  3.883023328172877E-007
                   148 -2.440536622919188E-005
                   149 -2.051134042583530E-006
                   150 -2.695372949428929E-005
                   151 -6.262603679306956E-007
                   152 -2.013257277474319E-004
                   153 -6.904236469805693E-004
                   154  2.266727105301090E-004
                   155 -1.301314497116023E-004
                   156 -2.182144424275484E-004
                   157  1.936625775071744E-005
                   158  2.691666070175092E-005
                   159  4.912216734862499E-004
                   160 -4.356989833208808E-006