===========================================================
===                   runc                              ===
===           version 7.0.2 , April 2021              ===
===          requires COLUMBUS version Col_7.0.2        ===
===                                                     ===
===   written by: Thomas Mueller                        ===
===   gradient ext. by: Michal Dallos                   ===
===               University of Vienna                  ===
===   maintained by: Felix Plasser                      ===
===               Loughborough University               ===
===========================================================


coremem. (seq.): 200000 MB,  coremem. (par.): 19000 MB
Vdisk size: 0 DP
Reading job control file control.run ... 
 ****** This is an 2c-QDPT MRCISD calculation ****** 
 model space size=4:0:4
SMOLCAS=/home-4/yshen57@jhu.edu/Software/Chemistry/Columbus-7.0.2_OpenMolcas-18.09-col/OpenMolcas/build
Found serial Molcas Installation at /home-4/yshen57@jhu.edu/Software/Chemistry/Columbus-7.0.2_OpenMolcas-18.09-col/OpenMolcas/build
  done 
INFO: keywords nadcoupl and seward are supported for DCI mode only!
seward specified, using also alaska
Creating various directories ... 
 done 
SMOLCAS=/home-4/yshen57@jhu.edu/Software/Chemistry/Columbus-7.0.2_OpenMolcas-18.09-col/OpenMolcas/build
PMOLCAS=
Checking for illegal keywords and keyword combinations ... done 

 Nonadiabatic coupling term calculation type: DCI+DCSF
  States involved in calcualtion:
   DRT1,state1;  DRT1,state2
   DRT1,state1;  DRT1,state3
   DRT1,state1;  DRT1,state4
   DRT1,state2;  DRT1,state3
   DRT1,state2;  DRT1,state4
   DRT1,state3;  DRT1,state4
   DRT2,state1;  DRT2,state2
   DRT2,state1;  DRT2,state3
   DRT2,state1;  DRT2,state4
   DRT2,state2;  DRT2,state3
   DRT2,state2;  DRT2,state4
   DRT2,state3;  DRT2,state4

Additional gradients computed:
   DRT1,state1
   DRT1,state2
   DRT1,state3
   DRT1,state4
   DRT2,state1
   DRT2,state2
   DRT2,state3
   DRT2,state4

Checking for complete set of input files ... 
mcscf calculation without preceeding scf calculation 
will use 
 /scratch/users/yshen57@jhu.edu/Molcas/slow/1.2/mrci/mocoef as starting MOs 
Performing coupled non-rel. SO-CI calculation, nrroots: 4 0 4
starting cidrt.x   -m 200000 < cidrtin > temp at Sat May 21 10:01:07 EDT 2022

 -------------------- cidrt.x ------------------------
 spatial symmetry:  
 total number of configurations          0
 number of reference configurations     0
 --------------------------------------------------- 
 Preparing SO cidrtin files for 1 symmetries
cat ../cidrtin | sed -e 's/^.*input the molecular spatial symmetry/1 \/ molsym/' > cidrtin.so_A 
calling cidrt.x -m 200000 < cidrtin.so_A > cidrtls.soci_A ...
Checking the DRTs for consistency ...
calling reindex.x -i 1 -m 200000  ...
done

 ++++++++++++++++++ input file generation +++++++++++++ 
 runc start: Sat May 21 10:01:26 EDT 2022
 
  runc start: Sat May 21 10:01:26 EDT 2022
 
 starting unik.gets.x > unikls at Sat May 21 10:01:26 EDT 2022

 -------------------- unik.gets.x ------------------------
 --------------------------------------------------- 
 ++++++++++++++++++++ ao integral calculation ++++++++++++++++
starting pymolcas molcas.input.seward > molcas.output.seward  at Sat May 21 10:01:26 EDT 2022

Generating link ln -s ./molcas.OrdInt ORDINT 
 -------------------- seward ------------------------
      Basis set label: N.ANILINE.........
      Basis set label: C.ANILINE.........
      Basis set label: H.ANILINE.........
  Nuclear Coordinates in                   atomic units                                   Angstrom 
     Center  Label                x              y              z                     x              y              z
        1      N1              -4.466702       0.208789      -0.002190             -2.363677       0.110486      -0.001159
        2      C2              -1.767020      -0.021896      -0.008314             -0.935067      -0.011587      -0.004400
        3      C3              -0.424079      -0.002936      -2.275040             -0.224413      -0.001554      -1.203899
        4      C4              -0.431682      -0.020889       2.262849             -0.228436      -0.011054       1.197448
        5      C5               2.190896       0.002964      -2.258154              1.159372       0.001569      -1.194964
        6      C6               2.185798      -0.005430       2.256339              1.156674      -0.002873       1.194003
        7      C7               3.512445       0.004720       0.002140              1.858706       0.002497       0.001133
        8      H8              -5.248988      -1.039750      -1.725997             -2.777645      -0.550212      -0.913358
        9      H9              -5.170428      -0.727253       1.550010             -2.736073      -0.384846       0.820230
       10      H10             -1.427472       0.012191      -4.036905             -0.755386       0.006451      -2.136238
       11      H11             -1.437761      -0.032561       4.023941             -0.760830      -0.017231       2.129378
       12      H12              3.197717       0.007487      -4.020012              1.692159       0.003962      -2.127299
       13      H13              3.185851      -0.009853       4.022031              1.685880      -0.005214       2.128367
       14      H14              5.540483       0.009905       0.004636              2.931897       0.005241       0.002453
 
            Nuclear Potential Energy            271.33503087 au
 --------------------------------------------------- 
  >>>>>>>>>>>>> info: preparing drt no 1 out of 1 <<<<<<
starting mcdrt.x -m 200000 < mcdrtin > mcdrtls at Sat May 21 10:07:10 EDT 2022

 -------------------- mcdrt.x ------------------------
  Spin multiplicity: singlet 
  Spatial symmetry (#): 1
  Number of Configurations:       1275 
  --------------------------------------------------- 
 starting mcuft.x at Sat May 21 10:07:10 EDT 2022

 -------------------- mcuft.x ------------------------
 --------------------------------------------------- 
 ++++++++++++++++++++ MCSCF calculation +++++++++++++++
info: taking mocoef file from /scratch/users/yshen57@jhu.edu/Molcas/slow/1.2/mrci/mocoef
adding flag 30 to mcscfin
Writing mcdenin files for mcscf.x for 1 DRTs
adding flag 26 to mcscfin
starting mcscf.x -m 200000 at Sat May 21 10:07:11 EDT 2022

 -------------------- mcscf.x ------------------------
 Individual total energies for all states: 
    DRT #1 state # 1 wt 0.250 total energy=     -285.891599701, rel. (eV)=   0.000000
    DRT #1 state # 2 wt 0.250 total energy=     -285.661015397, rel. (eV)=   6.274521
    DRT #1 state # 3 wt 0.250 total energy=     -285.653224128, rel. (eV)=   6.486532
    DRT #1 state # 4 wt 0.250 total energy=     -285.611514318, rel. (eV)=   7.621514
  --------------------------------------------------- 
 starting mcpc.x -m 200000 < mcpcin > mcpcls at Sat May 21 10:10:08 EDT 2022

 -------------------- mcpc.x ------------------------
 --------------------------------------------------- 
 starting mcpc.x -m 200000 < mcpcin > mcpcls at Sat May 21 10:10:08 EDT 2022

 -------------------- mcpc.x ------------------------
 --------------------------------------------------- 
 starting mcpc.x -m 200000 < mcpcin > mcpcls at Sat May 21 10:10:08 EDT 2022

 -------------------- mcpc.x ------------------------
 --------------------------------------------------- 
 starting mcpc.x -m 200000 < mcpcin > mcpcls at Sat May 21 10:10:09 EDT 2022

 -------------------- mcpc.x ------------------------
 --------------------------------------------------- 
 
========= state properties for state-averaged MCSCF =========
mcscf.drt1.st01.sp
starting exptvl.x -m 200000   at Sat May 21 10:10:09 EDT 2022

 -------------------- exptvl.x ------------------------
  === dipole moment === 
                     X               Y               Z   
   orign x       0.00000000      0.00000000      0.00000000
   orign y       0.00000000      0.00000000      0.00000000
   orign z       0.00000000      0.00000000      0.00000000
   nuclear      -1.02936552     -0.57911204     -0.31870671
   electronic    0.72731815     -0.04398587      0.32597655
   total        -0.30204737     -0.62309791      0.00726984
   total Dipole moment =   1.76012488    Debye
 --------------------------------------------------- 
 mcscf.drt1.st02.sp
starting exptvl.x -m 200000   at Sat May 21 10:10:09 EDT 2022

 -------------------- exptvl.x ------------------------
  === dipole moment === 
                     X               Y               Z   
   orign x       0.00000000      0.00000000      0.00000000
   orign y       0.00000000      0.00000000      0.00000000
   orign z       0.00000000      0.00000000      0.00000000
   nuclear      -1.02936552     -0.57911204     -0.31870671
   electronic    4.80186930      0.05461539      0.43189155
   total         3.77250378     -0.52449665      0.11318484
   total Dipole moment =   9.68526189    Debye
 --------------------------------------------------- 
 mcscf.drt1.st03.sp
starting exptvl.x -m 200000   at Sat May 21 10:10:09 EDT 2022

 -------------------- exptvl.x ------------------------
  === dipole moment === 
                     X               Y               Z   
   orign x       0.00000000      0.00000000      0.00000000
   orign y       0.00000000      0.00000000      0.00000000
   orign z       0.00000000      0.00000000      0.00000000
   nuclear      -1.02936552     -0.57911204     -0.31870671
   electronic    0.62941919      0.02352826      0.31933926
   total        -0.39994633     -0.55558378      0.00063255
   total Dipole moment =   1.73999531    Debye
 --------------------------------------------------- 
 mcscf.drt1.st04.sp
starting exptvl.x -m 200000   at Sat May 21 10:10:09 EDT 2022

 -------------------- exptvl.x ------------------------
  === dipole moment === 
                     X               Y               Z   
   orign x       0.00000000      0.00000000      0.00000000
   orign y       0.00000000      0.00000000      0.00000000
   orign z       0.00000000      0.00000000      0.00000000
   nuclear      -1.02936552     -0.57911204     -0.31870671
   electronic    6.02926489     -0.01201918      0.40285013
   total         4.99989937     -0.59113122      0.08414342
   total Dipole moment =  12.79878774    Debye
 --------------------------------------------------- 
  using the MCSCF MOs ... 
starting cidrt.x  -m 200000 < cidrtin.1 > cidrtls at Sat May 21 10:10:10 EDT 2022

 -------------------- cidrt.x ------------------------
 total number of orbitals            :   246
 number of frozen core orbitals      :    18
 number of frozen virtual orbitals   :     0
 number of internal orbitals         :    14
 number of external orbitals         :   214
 spatial symmetry:   a  
 
 total number of configurations  158587185
 number of reference configurations  1275
 --------------------------------------------------- 
 starting cidrt.x  -m 200000 < cidrtin.2 > cidrtls at Sat May 21 10:10:12 EDT 2022

 -------------------- cidrt.x ------------------------
 total number of orbitals            :   246
 number of frozen core orbitals      :    18
 number of frozen virtual orbitals   :     0
 number of internal orbitals         :    14
 number of external orbitals         :   214
 spatial symmetry:   a  
 
 total number of configurations  282461366
 number of reference configurations  1666
 --------------------------------------------------- 
 starting tran.x -m 200000  at Sat May 21 10:10:16 EDT 2022

 -------------------- tran.x ------------------------
 --------------------------------------------------- 
  Starting ciudgav with DRT # 1 out of 2 

 *** starting pciudg section *** 
nproc: 48 machinefile:  
assuming machinefile syntax: one host name per line optionally repeated
 section2, MPI_STARTUP:
 /software/apps/mpi/openmpi/3.1/intel/18.0/bin/mpirun -np 48  /home-4/yshen57@jhu.edu/Software/Chemistry/Columbus-7.0.2_OpenMolcas-18.09-col/Columbus/pciudg.x -m 19000 
 -------------------- pciudg.x ------------------------
 type of calculation:          mr-sdci
 number of configurations:     158587185
 total mr-sdci energy             -286.0909633573 
 last mr-sdci energy change           0.0000000000 
 residual                             0.0000083573 
  type of calculation:          mr-sdci
 number of configurations:     158587185
 total mr-sdci energy             -285.9041568420 
 last mr-sdci energy change           0.0000000000 
 residual                             0.0000062455 
  type of calculation:          mr-sdci
 number of configurations:     158587185
 total mr-sdci energy             -285.9001780731 
 last mr-sdci energy change           0.0000000000 
 residual                             0.0000054582 
  type of calculation:          mr-sdci
 number of configurations:     158587185
 total mr-sdci energy             -285.8525955799 
 last mr-sdci energy change           0.0000000001 
 residual                             0.0000084038 
  --------------------------------------------------- 
 keyinfile returned docipci=0:
starting cipc.x -m 200000 < cipcin > cipcls at Sun May 22 04:47:18 EDT 2022

 -------------------- cipc.x ------------------------
 --------------------------------------------------- 
  Starting ciudgav with DRT # 2 out of 2 

 *** starting pciudg section *** 
nproc: 48 machinefile:  
assuming machinefile syntax: one host name per line optionally repeated
 section2, MPI_STARTUP:
 /software/apps/mpi/openmpi/3.1/intel/18.0/bin/mpirun -np 48  /home-4/yshen57@jhu.edu/Software/Chemistry/Columbus-7.0.2_OpenMolcas-18.09-col/Columbus/pciudg.x -m 19000 
 -------------------- pciudg.x ------------------------
 type of calculation:          mr-sdci
 number of configurations:     282461366
 total mr-sdci energy             -285.9352302188 
 last mr-sdci energy change           0.0000000000 
 residual                             0.0000072035 
  type of calculation:          mr-sdci
 number of configurations:     282461366
 total mr-sdci energy             -285.9127488404 
 last mr-sdci energy change           0.0000000000 
 residual                             0.0000079790 
  type of calculation:          mr-sdci
 number of configurations:     282461366
 total mr-sdci energy             -285.9088891456 
 last mr-sdci energy change           0.0000000000 
 residual                             0.0000053398 
  type of calculation:          mr-sdci
 number of configurations:     282461366
 total mr-sdci energy             -285.9031050201 
 last mr-sdci energy change           0.0000000000 
 residual                             0.0000068540 
  --------------------------------------------------- 
 keyinfile returned docipci=0:
starting cipc.x -m 200000 < cipcin > cipcls at Mon May 23 22:28:51 EDT 2022

 -------------------- cipc.x ------------------------
 --------------------------------------------------- 
 Reindex call
run_socinr: imult=1 irrep=1 
opening file =ciudgls.drt1.sp
opening file =ciudgls.drt1.sp
opening file =ciudgls.drt1.sp
opening file =ciudgls.drt1.sp
run_socinr: imult=3 irrep=1 
opening file =ciudgls.drt2.sp
opening file =ciudgls.drt2.sp
opening file =ciudgls.drt2.sp
opening file =ciudgls.drt2.sp
 copying /scratch/users/yshen57@jhu.edu/Molcas/slow/1.2/mrci/cidrtfl.so__A --> cidrtfl.so__A 
 copying /scratch/users/yshen57@jhu.edu/Molcas/slow/1.2/mrci/cidrtfl.so__A --> cidrtfl.so__A 
starting reindex.x -m 200000 > reindexls at Mon May 23 22:29:13 EDT 2022

 -------------------- reindex.x ------------------------
 --------------------------------------------------- 
 1      1        1           civfl_1_A             1      1    0+       1             1         civfl.so__A
1      1        2           civfl_1_A             1      1    0+       2    1005971284         civfl.so__A
1      1        3           civfl_1_A             1      1    0+       3    2011942567         civfl.so__A
1      1        4           civfl_1_A             1      1    0+       4    3017913850         civfl.so__A
3      1        1           civfl_3_A             1      3    0+       5    4023885133         civfl.so__A
3      1        1           civfl_3_A             1      3    1+       6    5029856416         civfl.so__A
3      1        1           civfl_3_A             1      3    1-       7    6035827699         civfl.so__A
3      1        2           civfl_3_A             1      3    0+       8    7041798982         civfl.so__A
3      1        2           civfl_3_A             1      3    1+       9    8047770265         civfl.so__A
3      1        2           civfl_3_A             1      3    1-      10    9053741548         civfl.so__A
3      1        3           civfl_3_A             1      3    0+      11   10059712831         civfl.so__A
3      1        3           civfl_3_A             1      3    1+      12   11065684114         civfl.so__A
3      1        3           civfl_3_A             1      3    1-      13   12071655397         civfl.so__A
3      1        4           civfl_3_A             1      3    0+      14   13077626680         civfl.so__A
3      1        4           civfl_3_A             1      3    1+      15   14083597963         civfl.so__A
3      1        4           civfl_3_A             1      3    1-      16   15089569246         civfl.so__A
 Executing ciudg.x  for gamma =A ...

 *** starting pciudg section *** 
nproc: 48 machinefile:  
assuming machinefile syntax: one host name per line optionally repeated
 section2, MPI_STARTUP:
 /software/apps/mpi/openmpi/3.1/intel/18.0/bin/mpirun -np 48  /home-4/yshen57@jhu.edu/Software/Chemistry/Columbus-7.0.2_OpenMolcas-18.09-col/Columbus/pciudg.x -m 19000 
 -------------------- pciudg.x ------------------------
 type of calculation:          mr-sdci
 number of configurations:     1005971283
 total mr-sdci energy             -286.0909633644 
 last mr-sdci energy change           0.0000000071 
 residual                            35.5790000000 
  type of calculation:          mr-sdci
 number of configurations:     1005971283
 total mr-sdci energy             -285.9352302252 
 last mr-sdci energy change           0.0310730000 
 residual                            35.4230000000 
  type of calculation:          mr-sdci
 number of configurations:     1005971283
 total mr-sdci energy             -285.9352302249 
 last mr-sdci energy change           0.0350520000 
 residual                            35.4230000000 
  type of calculation:          mr-sdci
 number of configurations:     1005971283
 total mr-sdci energy             -285.9352302238 
 last mr-sdci energy change           0.0826350000 
 residual                            35.4230000000 
  type of calculation:          mr-sdci
 number of configurations:     1005971283
 total mr-sdci energy             -285.9127488455 
 last mr-sdci energy change          -0.0224810000 
 residual                            35.4000000000 
  type of calculation:          mr-sdci
 number of configurations:     1005971283
 total mr-sdci energy             -285.9127488444 
 last mr-sdci energy change          -0.0224810000 
 residual                            35.4000000000 
  type of calculation:          mr-sdci
 number of configurations:     1005971283
 total mr-sdci energy             -285.9127488416 
 last mr-sdci energy change          -0.0224810000 
 residual                            35.4000000000 
  type of calculation:          mr-sdci
 number of configurations:     1005971283
 total mr-sdci energy             -285.9088891481 
 last mr-sdci energy change          -0.0038597000 
 residual                            35.3960000000 
  type of calculation:          mr-sdci
 number of configurations:     1005971283
 total mr-sdci energy             -285.9088891465 
 last mr-sdci energy change          -0.0038597000 
 residual                            35.3960000000 
  type of calculation:          mr-sdci
 number of configurations:     1005971283
 total mr-sdci energy             -285.9088891434 
 last mr-sdci energy change          -0.0038597000 
 residual                            35.3960000000 
  type of calculation:          mr-sdci
 number of configurations:     1005971283
 total mr-sdci energy             -285.9041568634 
 last mr-sdci energy change          -0.0047323000 
 residual                            35.3920000000 
  type of calculation:          mr-sdci
 number of configurations:     1005971283
 total mr-sdci energy             -285.9031050137 
 last mr-sdci energy change          -0.0057841000 
 residual                            35.3910000000 
  type of calculation:          mr-sdci
 number of configurations:     1005971283
 total mr-sdci energy             -285.9031050092 
 last mr-sdci energy change          -0.0057841000 
 residual                            35.3910000000 
  type of calculation:          mr-sdci
 number of configurations:     1005971283
 total mr-sdci energy             -285.9031049872 
 last mr-sdci energy change          -0.0000000329 
 residual                            35.3910000000 
  type of calculation:          mr-sdci
 number of configurations:     1005971283
 total mr-sdci energy             -285.9001780672 
 last mr-sdci energy change          -0.0029270000 
 residual                            35.3880000000 
  type of calculation:          mr-sdci
 number of configurations:     1005971283
 total mr-sdci energy             -285.8525955784 
 last mr-sdci energy change          -0.0505090000 
 residual                            35.3400000000 
  --------------------------------------------------- 
 ************* Results for Spin-Orbit CI gamma=A **************** 
Final spin-orbit CI state energies: 


-------------- HT matrix in AU ----------------  
-35.578550    
 0.000000    -35.391743    
 0.000000     0.000000    -35.387764    
 0.000000     0.000000     0.000000    -35.340182    
-0.000009     0.000011     0.000004     0.000000    -35.422817    
 0.000001    -0.000001     0.000001    -0.000000     0.000000    -35.422817    
 0.000006    -0.000007     0.000001    -0.000002    -0.000000    -0.000000    -35.422817    
 0.000010     0.000001     0.000000    -0.000007     0.000000     0.000003    -0.000001    -35.400335    
-0.000003    -0.000001    -0.000001     0.000001    -0.000003     0.000000    -0.000004     0.000000    -35.400335    
-0.000013     0.000003     0.000003     0.000001     0.000001     0.000004     0.000000     0.000000     0.000000    -35.400335    
-0.000020     0.000003     0.000001    -0.000003     0.000000    -0.000003     0.000000     0.000000    -0.000000     0.000002    -35.396475    
 0.000002    -0.000001     0.000001    -0.000001     0.000003     0.000000     0.000007     0.000000     0.000000     0.000002    -0.000000    -35.396475    
 0.000011     0.000000    -0.000003     0.000004    -0.000000    -0.000007     0.000000    -0.000002    -0.000002     0.000000     0.000000     0.000000    -35.396475    
 0.000016     0.000005     0.000003     0.000002     0.000000     0.000004    -0.000000     0.000000    -0.000005    -0.000000     0.000000     0.000001    -0.000000    -35.390691    
-0.000002     0.000000    -0.000001    -0.000001    -0.000004     0.000000    -0.000008     0.000005     0.000000     0.000002    -0.000001     0.000000    -0.000005     0.000000    -35.390691    
-0.000009    -0.000003     0.000001    -0.000001     0.000000     0.000008     0.000000     0.000000    -0.000002     0.000000     0.000000     0.000005     0.000000     0.000000     0.000000    -35.390691    
-------------- HT matrix in eV ---------------- 
 -968.142   
    0.000    -963.058   
    0.000       0.000    -962.950   
    0.000       0.000       0.000    -961.655   
   -0.000       0.000       0.000       0.000    -963.904   
    0.000      -0.000       0.000      -0.000       0.000    -963.904   
    0.000      -0.000       0.000      -0.000      -0.000      -0.000    -963.904   
    0.000       0.000       0.000      -0.000       0.000       0.000      -0.000    -963.292   
   -0.000      -0.000      -0.000       0.000      -0.000       0.000      -0.000       0.000    -963.292   
   -0.000       0.000       0.000       0.000       0.000       0.000       0.000       0.000       0.000    -963.292   
   -0.001       0.000       0.000      -0.000       0.000      -0.000       0.000       0.000      -0.000       0.000    -963.187   
    0.000      -0.000       0.000      -0.000       0.000       0.000       0.000       0.000       0.000       0.000      -0.000    -963.187   
    0.000       0.000      -0.000       0.000      -0.000      -0.000       0.000      -0.000      -0.000       0.000       0.000       0.000    -963.187   
    0.000       0.000       0.000       0.000       0.000       0.000      -0.000       0.000      -0.000      -0.000       0.000       0.000      -0.000    -963.030   
   -0.000       0.000      -0.000      -0.000      -0.000       0.000      -0.000       0.000       0.000       0.000      -0.000       0.000      -0.000       0.000    -963.030   
   -0.000      -0.000       0.000      -0.000       0.000       0.000       0.000       0.000      -0.000       0.000       0.000       0.000       0.000       0.000       0.000    -963.030   
-------------- HT matrix in cm-1 ------------------- 
Eref = -35.57854970
     0.00   
     0.00    40999.36   
     0.00        0.00    41872.60   
     0.00        0.00        0.00    52315.77   
    -1.91        2.44        0.79        0.04    34179.53   
     0.28       -0.30        0.29       -0.00        0.00    34179.53   
     1.33       -1.46        0.15       -0.53        0.00        0.00    34179.53   
     2.25        0.20        0.06       -1.43        0.00        0.56       -0.24    39113.63   
    -0.73       -0.25       -0.20        0.12       -0.56        0.00       -0.89        0.00    39113.63   
    -2.94        0.58        0.66        0.32        0.24        0.89        0.00        0.00        0.00    39113.63   
    -4.35        0.62        0.22       -0.65        0.00       -0.74        0.04        0.00        0.00        0.44    39960.74   
     0.43       -0.22        0.15       -0.13        0.74        0.00        1.60        0.00        0.00        0.54        0.00    39960.74   
     2.43        0.02       -0.67        0.95       -0.04       -1.60        0.00       -0.44       -0.54        0.00        0.00        0.00    39960.74   
     3.60        1.05        0.58        0.50        0.00        0.83       -0.09        0.00       -1.16       -0.02        0.00        0.26       -0.04    41230.21   
    -0.37        0.05       -0.20       -0.15       -0.83        0.00       -1.81        1.16        0.00        0.36       -0.26        0.00       -1.18        0.00    41230.21   
    -2.01       -0.64        0.32       -0.25        0.09        1.81        0.00        0.02       -0.36        0.00        0.04        1.18        0.00        0.00        0.00    41230.21   


Spin-Orbit CI: perturbational estimate of Spin-Orbit CI energies and wavefunctions 
                SO   1         SO   2         SO   3         SO   4         SO   5         SO   6         SO   7         SO   8

   energy  -286.09096336  -285.93523023  -285.93523022  -285.93523022  -285.91274885  -285.91274884  -285.91274884  -285.90888915
 
   NR   1     0.99999998     0.00002115    -0.00000287     0.00006510     0.00001237    -0.00001692    -0.00009410     0.00002068
   NR   2    -0.00000000     0.00010077    -0.00001352     0.00040628    -0.00010676    -0.00031453    -0.00011201     0.00040692
   NR   3    -0.00000000    -0.00006091    -0.00002075     0.00009053    -0.00005457    -0.00020504    -0.00013428    -0.00019097
   NR   4     0.00000000     0.00002536    -0.00001039     0.00001068     0.00007368     0.00001965    -0.00008153     0.00002618
   NR   5     0.00005574     0.29182985    -0.06875453    -0.95399579    -0.00004469     0.00011500    -0.00001046     0.00010252
   NR   6    -0.00000816     0.36981250     0.92795449     0.04624890     0.00014631     0.00013930     0.00006864     0.00018740
   NR   7    -0.00003899     0.88208493    -0.36629641     0.29623114    -0.00013317     0.00012278    -0.00004584     0.00021197
   NR   8    -0.00005746     0.00000078    -0.00012360     0.00000913     0.79223304     0.25764041    -0.55316147     0.00026036
   NR   9     0.00001876     0.00019238    -0.00007393    -0.00005529     0.52490281    -0.75001489     0.40243497     0.00031492
   NR  10     0.00007515    -0.00008092    -0.00016404     0.00003814     0.31119583     0.60917837     0.72942305     0.00028564
   NR  11     0.00010896     0.00004081     0.00012092     0.00000376    -0.00016191    -0.00031914    -0.00038124    -0.39023391
   NR  12    -0.00001084    -0.00028167     0.00011037     0.00003948    -0.00019750    -0.00038531    -0.00046034     0.77480415
   NR  13    -0.00006082     0.00010466     0.00025669     0.00000592     0.00074538    -0.00033946    -0.00003427    -0.49738783
   NR  14    -0.00008717    -0.00003241    -0.00011435    -0.00000179     0.00029079    -0.00040728     0.00022696    -0.00017569
   NR  15     0.00000900     0.00026143    -0.00010228    -0.00003652    -0.00048757    -0.00024447     0.00018072    -0.00054476
   NR  16     0.00004887    -0.00009879    -0.00023787     0.00000034     0.00008257    -0.00012851     0.00007220    -0.00071079

                SO   9         SO  10         SO  11         SO  12         SO  13         SO  14         SO  15         SO  16

   energy  -285.90888915  -285.90888914  -285.90415686  -285.90310501  -285.90310501  -285.90310499  -285.90017807  -285.85259558
 
   NR   1    -0.00005839    -0.00010889     0.00000063     0.00001304    -0.00001451    -0.00009843    -0.00000001     0.00000000
   NR   2    -0.00009858    -0.00047379    -0.99998550     0.00034720    -0.00012605    -0.00530755    -0.00000118     0.00000001
   NR   3    -0.00025648    -0.00020364    -0.00000132    -0.00097294     0.00012946     0.00043492    -0.99999931    -0.00000000
   NR   4     0.00006017     0.00006698    -0.00000028    -0.00001049     0.00001549     0.00004869    -0.00000000     0.99999999
   NR   5    -0.00006224     0.00004398    -0.00035732     0.00003785    -0.00011142     0.00001519    -0.00010279     0.00000207
   NR   6     0.00023265    -0.00006185     0.00004335     0.00027002     0.00006962     0.00004881    -0.00003796    -0.00000026
   NR   7    -0.00014836     0.00009960     0.00021411     0.00005306    -0.00025003     0.00003276    -0.00001941    -0.00002933
   NR   8     0.00043957     0.00010445    -0.00010353    -0.00012245     0.00053436    -0.00004151    -0.00002179    -0.00010858
   NR   9     0.00053342     0.00012582     0.00013277    -0.00044522    -0.00007692     0.00035592     0.00007144     0.00000880
   NR  10    -0.00033279     0.00069306    -0.00030669    -0.00004364     0.00016305    -0.00000871    -0.00023988     0.00002453
   NR  11     0.01163603     0.92064183    -0.00059610     0.00007136    -0.00019446     0.00003132    -0.00011590    -0.00005216
   NR  12    -0.53602553     0.33519204     0.00020787     0.00085368     0.00023605     0.00035781    -0.00007922    -0.00001050
   NR  13    -0.84412061    -0.20015990    -0.00002466     0.00020186    -0.00090536     0.00009981     0.00035199     0.00007718
   NR  14     0.00008754    -0.00007457     0.00454316     0.56774863     0.06740802    -0.82042418    -0.00090041     0.00004487
   NR  15    -0.00078504     0.00000467     0.00023298    -0.23381438     0.96879918    -0.08220402     0.00031750    -0.00001334
   NR  16     0.00049907    -0.00033946    -0.00275917     0.78929728     0.23850149     0.56578973    -0.00049089    -0.00002295
rescaling new expansion vector ... old norm=   4300.7485671451

 model space basis from reindexls .. 
 --SO-CI-------         -----NR-CI-------             ---model space---- 
 Gamma  root             S   irrep   root                S   ms* 
A          1             1   A         1                 1   0+
A          2             1   A         2                 1   0+
A          3             1   A         3                 1   0+
A          4             1   A         4                 1   0+
A          5             3   A         1                 3   0+
A          6             3   A         1                 3   1+
A          7             3   A         1                 3   1-
A          8             3   A         2                 3   0+
A          9             3   A         2                 3   1+
A         10             3   A         2                 3   1-
A         11             3   A         3                 3   0+
A         12             3   A         3                 3   1+
A         13             3   A         3                 3   1-
A         14             3   A         4                 3   0+
A         15             3   A         4                 3   1+
A         16             3   A         4                 3   1-

************************** SUMMARY *********************************

--------------  SO matrix for irrep A in eV ---------------- 
|1,0+;1,A,1>  -968.142   
|1,0+;1,A,2>     0.000    -963.058   
|1,0+;1,A,3>     0.000       0.000    -962.950   
|1,0+;1,A,4>     0.000       0.000       0.000    -961.655   
|3,0+;3,A,1>    -0.000       0.000       0.000       0.000    -963.904   
|3,1+;3,A,1>     0.000      -0.000       0.000      -0.000       0.000    -963.904   
|3,1-;3,A,1>     0.000      -0.000       0.000      -0.000      -0.000      -0.000    -963.904   
|3,0+;3,A,2>     0.000       0.000       0.000      -0.000       0.000       0.000      -0.000    -963.292   
|3,1+;3,A,2>    -0.000      -0.000      -0.000       0.000      -0.000       0.000      -0.000       0.000    -963.292   
|3,1-;3,A,2>    -0.000       0.000       0.000       0.000       0.000       0.000       0.000       0.000       0.000    -963.292   
|3,0+;3,A,3>    -0.001       0.000       0.000      -0.000       0.000      -0.000       0.000       0.000      -0.000       0.000    -963.187   
|3,1+;3,A,3>     0.000      -0.000       0.000      -0.000       0.000       0.000       0.000       0.000       0.000       0.000      -0.000    -963.187   
|3,1-;3,A,3>     0.000       0.000      -0.000       0.000      -0.000      -0.000       0.000      -0.000      -0.000       0.000       0.000       0.000    -963.187   
|3,0+;3,A,4>     0.000       0.000       0.000       0.000       0.000       0.000      -0.000       0.000      -0.000      -0.000       0.000       0.000      -0.000    -963.030   
|3,1+;3,A,4>    -0.000       0.000      -0.000      -0.000      -0.000       0.000      -0.000       0.000       0.000       0.000      -0.000       0.000      -0.000       0.000    -963.030   
|3,1-;3,A,4>    -0.000      -0.000       0.000      -0.000       0.000       0.000       0.000       0.000      -0.000       0.000       0.000       0.000       0.000       0.000       0.000    -963.030   

--------------  SO matrix for irrep A in cm-1 ------------------- 
Eref = -35.57854970
|1,0+;1,A,1>      0.00   
|1,0+;1,A,2>      0.00    40999.36   
|1,0+;1,A,3>      0.00        0.00    41872.60   
|1,0+;1,A,4>      0.00        0.00        0.00    52315.77   
|3,0+;3,A,1>     -1.91        2.44        0.79        0.04    34179.53   
|3,1+;3,A,1>      0.28       -0.30        0.29       -0.00        0.00    34179.53   
|3,1-;3,A,1>      1.33       -1.46        0.15       -0.53        0.00        0.00    34179.53   
|3,0+;3,A,2>      2.25        0.20        0.06       -1.43        0.00        0.56       -0.24    39113.63   
|3,1+;3,A,2>     -0.73       -0.25       -0.20        0.12       -0.56        0.00       -0.89        0.00    39113.63   
|3,1-;3,A,2>     -2.94        0.58        0.66        0.32        0.24        0.89        0.00        0.00        0.00    39113.63   
|3,0+;3,A,3>     -4.35        0.62        0.22       -0.65        0.00       -0.74        0.04        0.00        0.00        0.44    39960.74   
|3,1+;3,A,3>      0.43       -0.22        0.15       -0.13        0.74        0.00        1.60        0.00        0.00        0.54        0.00    39960.74   
|3,1-;3,A,3>      2.43        0.02       -0.67        0.95       -0.04       -1.60        0.00       -0.44       -0.54        0.00        0.00        0.00    39960.74   
|3,0+;3,A,4>      3.60        1.05        0.58        0.50        0.00        0.83       -0.09        0.00       -1.16       -0.02        0.00        0.26       -0.04    41230.21   
|3,1+;3,A,4>     -0.37        0.05       -0.20       -0.15       -0.83        0.00       -1.81        1.16        0.00        0.36       -0.26        0.00       -1.18        0.00    41230.21   
|3,1-;3,A,4>     -2.01       -0.64        0.32       -0.25        0.09        1.81        0.00        0.02       -0.36        0.00        0.04        1.18        0.00        0.00        0.00    41230.21   


 ** perturbational estimate of Spin-Orbit CI energies and wavefunctions in model space basis** 

                      A  1         A  2         A  3         A  4         A  5         A  6         A  7         A  8

            energy  -286.09096336  -285.93523023  -285.93523022  -285.93523022  -285.91274885  -285.91274884  -285.91274884  -285.90888915
          
   |1,0+;1,A,1>     0.99999998     0.00002115    -0.00000287     0.00006510     0.00001237    -0.00001692    -0.00009410     0.00002068
   |1,0+;1,A,2>    -0.00000000     0.00010077    -0.00001352     0.00040628    -0.00010676    -0.00031453    -0.00011201     0.00040692
   |1,0+;1,A,3>    -0.00000000    -0.00006091    -0.00002075     0.00009053    -0.00005457    -0.00020504    -0.00013428    -0.00019097
   |1,0+;1,A,4>     0.00000000     0.00002536    -0.00001039     0.00001068     0.00007368     0.00001965    -0.00008153     0.00002618
   |3,0+;3,A,1>     0.00005574     0.29182985    -0.06875453    -0.95399579    -0.00004469     0.00011500    -0.00001046     0.00010252
   |3,1+;3,A,1>    -0.00000816     0.36981250     0.92795449     0.04624890     0.00014631     0.00013930     0.00006864     0.00018740
   |3,1-;3,A,1>    -0.00003899     0.88208493    -0.36629641     0.29623114    -0.00013317     0.00012278    -0.00004584     0.00021197
   |3,0+;3,A,2>    -0.00005746     0.00000078    -0.00012360     0.00000913     0.79223304     0.25764041    -0.55316147     0.00026036
   |3,1+;3,A,2>     0.00001876     0.00019238    -0.00007393    -0.00005529     0.52490281    -0.75001489     0.40243497     0.00031492
   |3,1-;3,A,2>     0.00007515    -0.00008092    -0.00016404     0.00003814     0.31119583     0.60917837     0.72942305     0.00028564
   |3,0+;3,A,3>     0.00010896     0.00004081     0.00012092     0.00000376    -0.00016191    -0.00031914    -0.00038124    -0.39023391
   |3,1+;3,A,3>    -0.00001084    -0.00028167     0.00011037     0.00003948    -0.00019750    -0.00038531    -0.00046034     0.77480415
   |3,1-;3,A,3>    -0.00006082     0.00010466     0.00025669     0.00000592     0.00074538    -0.00033946    -0.00003427    -0.49738783
   |3,0+;3,A,4>    -0.00008717    -0.00003241    -0.00011435    -0.00000179     0.00029079    -0.00040728     0.00022696    -0.00017569
   |3,1+;3,A,4>     0.00000900     0.00026143    -0.00010228    -0.00003652    -0.00048757    -0.00024447     0.00018072    -0.00054476
   |3,1-;3,A,4>     0.00004887    -0.00009879    -0.00023787     0.00000034     0.00008257    -0.00012851     0.00007220    -0.00071079

                      A  9         A 10         A 11         A 12         A 13         A 14         A 15         A 16

            energy  -285.90888915  -285.90888914  -285.90415686  -285.90310501  -285.90310501  -285.90310499  -285.90017807  -285.85259558
          
   |1,0+;1,A,1>    -0.00005839    -0.00010889     0.00000063     0.00001304    -0.00001451    -0.00009843    -0.00000001     0.00000000
   |1,0+;1,A,2>    -0.00009858    -0.00047379    -0.99998550     0.00034720    -0.00012605    -0.00530755    -0.00000118     0.00000001
   |1,0+;1,A,3>    -0.00025648    -0.00020364    -0.00000132    -0.00097294     0.00012946     0.00043492    -0.99999931    -0.00000000
   |1,0+;1,A,4>     0.00006017     0.00006698    -0.00000028    -0.00001049     0.00001549     0.00004869    -0.00000000     0.99999999
   |3,0+;3,A,1>    -0.00006224     0.00004398    -0.00035732     0.00003785    -0.00011142     0.00001519    -0.00010279     0.00000207
   |3,1+;3,A,1>     0.00023265    -0.00006185     0.00004335     0.00027002     0.00006962     0.00004881    -0.00003796    -0.00000026
   |3,1-;3,A,1>    -0.00014836     0.00009960     0.00021411     0.00005306    -0.00025003     0.00003276    -0.00001941    -0.00002933
   |3,0+;3,A,2>     0.00043957     0.00010445    -0.00010353    -0.00012245     0.00053436    -0.00004151    -0.00002179    -0.00010858
   |3,1+;3,A,2>     0.00053342     0.00012582     0.00013277    -0.00044522    -0.00007692     0.00035592     0.00007144     0.00000880
   |3,1-;3,A,2>    -0.00033279     0.00069306    -0.00030669    -0.00004364     0.00016305    -0.00000871    -0.00023988     0.00002453
   |3,0+;3,A,3>     0.01163603     0.92064183    -0.00059610     0.00007136    -0.00019446     0.00003132    -0.00011590    -0.00005216
   |3,1+;3,A,3>    -0.53602553     0.33519204     0.00020787     0.00085368     0.00023605     0.00035781    -0.00007922    -0.00001050
   |3,1-;3,A,3>    -0.84412061    -0.20015990    -0.00002466     0.00020186    -0.00090536     0.00009981     0.00035199     0.00007718
   |3,0+;3,A,4>     0.00008754    -0.00007457     0.00454316     0.56774863     0.06740802    -0.82042418    -0.00090041     0.00004487
   |3,1+;3,A,4>    -0.00078504     0.00000467     0.00023298    -0.23381438     0.96879918    -0.08220402     0.00031750    -0.00001334
   |3,1-;3,A,4>     0.00049907    -0.00033946    -0.00275917     0.78929728     0.23850149     0.56578973    -0.00049089    -0.00002295
rescaling new expansion vector ... old norm=   4300.7485671451

Sorted Energies:
1  -286.09096336 
2  -285.93523023 
3  -285.93523022 
4  -285.93523022 
5  -285.91274885 
6  -285.91274884 
7  -285.91274884 
8  -285.90888915 
9  -285.90888915 
10  -285.90888914 
11  -285.90415686 
12  -285.90310501 
13  -285.90310501 
14  -285.90310499 
15  -285.90017807 
16  -285.85259558 
Not computing transition moment with identical bra and ket.
 Calculating transition moment for (1,1) => (1,2)
 starting transci.x -m 200000 at Tue May 24 00:33:43 EDT 2022

 -------------------- transci.x ------------------------

                          State No. 1            State No. 2

   Space symmetry:           a                      a   
   No. of CSFs:          ********               ********
   State energies:      -286.09096336          -285.90415684  a.u.

   Transition energy:     0.18680652  a.u.
   Transition energy:     5.08        eV

       Transition moment components:

                 x            y            z

electron         -0.203091    -0.099682     0.065476  e*bohr
frozen core       0.000000     0.000000     0.000000  e*bohr
total (elec)     -0.203091    -0.099682     0.065476  e*bohr


   Tr.dipole length:     0.235520    e*bohr
   Oscillator strength :  0.006908
   Einstein A coef.:     0.7745E+07  1/sec
   Einstein B coef.:     0.2251E+08  sec/g

                 x            y            z

<L> electron    -0.070032    -0.273029     0.408646  e*bohr


   <L> value length:     0.496428    e*bohr
 --------------------------------------------------- 
  Calculating transition moment for (1,1) => (1,3)
 starting transci.x -m 200000 at Tue May 24 00:36:03 EDT 2022

 -------------------- transci.x ------------------------

                          State No. 1            State No. 2

   Space symmetry:           a                      a   
   No. of CSFs:          ********               ********
   State energies:      -286.09096336          -285.90017807  a.u.

   Transition energy:     0.19078528  a.u.
   Transition energy:     5.19        eV

       Transition moment components:

                 x            y            z

electron         -0.046809    -0.032510    -0.241458  e*bohr
frozen core       0.000000     0.000000     0.000000  e*bohr
total (elec)     -0.046809    -0.032510    -0.241458  e*bohr


   Tr.dipole length:     0.248092    e*bohr
   Oscillator strength :  0.007829
   Einstein A coef.:     0.9155E+07  1/sec
   Einstein B coef.:     0.2498E+08  sec/g

                 x            y            z

<L> electron     0.005471     0.377099     0.164196  e*bohr


   <L> value length:     0.411332    e*bohr
 --------------------------------------------------- 
  Calculating transition moment for (1,1) => (1,4)
 starting transci.x -m 200000 at Tue May 24 00:38:22 EDT 2022

 -------------------- transci.x ------------------------

                          State No. 1            State No. 2

   Space symmetry:           a                      a   
   No. of CSFs:          ********               ********
   State energies:      -286.09096336          -285.85259558  a.u.

   Transition energy:     0.23836778  a.u.
   Transition energy:     6.49        eV

       Transition moment components:

                 x            y            z

electron         -0.077050    -0.004896     0.094882  e*bohr
frozen core       0.000000     0.000000     0.000000  e*bohr
total (elec)     -0.077050    -0.004896     0.094882  e*bohr


   Tr.dipole length:     0.122324    e*bohr
   Oscillator strength :  0.002378
   Einstein A coef.:     0.4341E+07  1/sec
   Einstein B coef.:     0.6072E+07  sec/g

                 x            y            z

<L> electron     0.436232    -0.117323     0.018125  e*bohr


   <L> value length:     0.452097    e*bohr
 --------------------------------------------------- 
 Not computing transition moment with identical bra and ket.
 Calculating transition moment for (1,2) => (1,3)
 starting transci.x -m 200000 at Tue May 24 00:40:41 EDT 2022

 -------------------- transci.x ------------------------

                          State No. 1            State No. 2

   Space symmetry:           a                      a   
   No. of CSFs:          ********               ********
   State energies:      -285.90415684          -285.90017807  a.u.

   Transition energy:     0.00397877  a.u.
   Transition energy:     0.11        eV

       Transition moment components:

                 x            y            z

electron         -1.477313    -0.019520     0.053599  e*bohr
frozen core       0.000000     0.000000     0.000000  e*bohr
total (elec)     -1.477313    -0.019520     0.053599  e*bohr


   Tr.dipole length:     1.478414    e*bohr
   Oscillator strength :  0.005798
   Einstein A coef.:     0.2949E+04  1/sec
   Einstein B coef.:     0.8870E+09  sec/g

                 x            y            z

<L> electron    -0.120864    -0.122861     0.000579  e*bohr


   <L> value length:     0.172347    e*bohr
 --------------------------------------------------- 
  Calculating transition moment for (1,2) => (1,4)
 starting transci.x -m 200000 at Tue May 24 00:42:57 EDT 2022

 -------------------- transci.x ------------------------

                          State No. 1            State No. 2

   Space symmetry:           a                      a   
   No. of CSFs:          ********               ********
   State energies:      -285.90415684          -285.85259558  a.u.

   Transition energy:     0.05156126  a.u.
   Transition energy:     1.40        eV

       Transition moment components:

                 x            y            z

electron          0.160381    -0.012854     0.108545  e*bohr
frozen core       0.000000     0.000000     0.000000  e*bohr
total (elec)      0.160381    -0.012854     0.108545  e*bohr


   Tr.dipole length:     0.194086    e*bohr
   Oscillator strength :  0.001295
   Einstein A coef.:     0.1106E+06  1/sec
   Einstein B coef.:     0.1529E+08  sec/g

                 x            y            z

<L> electron     0.035297    -0.641842    -0.083135  e*bohr


   <L> value length:     0.648165    e*bohr
 --------------------------------------------------- 
 Not computing transition moment with identical bra and ket.
 Calculating transition moment for (1,3) => (1,4)
 starting transci.x -m 200000 at Tue May 24 00:45:13 EDT 2022

 -------------------- transci.x ------------------------

                          State No. 1            State No. 2

   Space symmetry:           a                      a   
   No. of CSFs:          ********               ********
   State energies:      -285.90017807          -285.85259558  a.u.

   Transition energy:     0.04758249  a.u.
   Transition energy:     1.29        eV

       Transition moment components:

                 x            y            z

electron         -0.221192    -0.071175     0.026339  e*bohr
frozen core       0.000000     0.000000     0.000000  e*bohr
total (elec)     -0.221192    -0.071175     0.026339  e*bohr


   Tr.dipole length:     0.233849    e*bohr
   Oscillator strength :  0.001735
   Einstein A coef.:     0.1262E+06  1/sec
   Einstein B coef.:     0.2219E+08  sec/g

                 x            y            z

<L> electron    -0.008863    -0.078339     0.127904  e*bohr


   <L> value length:     0.150250    e*bohr
 --------------------------------------------------- 
 Not computing transition moment with identical bra and ket.
Not computing transition moment with identical bra and ket.
 Calculating transition moment for (2,1) => (2,2)
 starting transci.x -m 200000 at Tue May 24 00:47:30 EDT 2022

 -------------------- transci.x ------------------------

                          State No. 1            State No. 2

   Space symmetry:           a                      a   
   No. of CSFs:          ********               ********
   State energies:      -285.93523022          -285.91274884  a.u.

   Transition energy:     0.02248138  a.u.
   Transition energy:     0.61        eV

       Transition moment components:

                 x            y            z

electron          0.174893     0.054877    -0.067497  e*bohr
frozen core       0.000000     0.000000     0.000000  e*bohr
total (elec)      0.174893     0.054877    -0.067497  e*bohr


   Tr.dipole length:     0.195332    e*bohr
   Oscillator strength :  0.000572
   Einstein A coef.:     0.9286E+04  1/sec
   Einstein B coef.:     0.1548E+08  sec/g

                 x            y            z

<L> electron     0.018454    -0.780023    -0.062330  e*bohr


   <L> value length:     0.782726    e*bohr
 --------------------------------------------------- 
  Calculating transition moment for (2,1) => (2,3)
 starting transci.x -m 200000 at Tue May 24 00:51:48 EDT 2022

 -------------------- transci.x ------------------------

                          State No. 1            State No. 2

   Space symmetry:           a                      a   
   No. of CSFs:          ********               ********
   State energies:      -285.93523022          -285.90888915  a.u.

   Transition energy:     0.02634107  a.u.
   Transition energy:     0.72        eV

       Transition moment components:

                 x            y            z

electron         -0.349488    -0.102644    -0.098339  e*bohr
frozen core       0.000000     0.000000     0.000000  e*bohr
total (elec)     -0.349488    -0.102644    -0.098339  e*bohr


   Tr.dipole length:     0.377290    e*bohr
   Oscillator strength :  0.002500
   Einstein A coef.:     0.5572E+05  1/sec
   Einstein B coef.:     0.5777E+08  sec/g

                 x            y            z

<L> electron    -0.017069    -0.260922     0.112389  e*bohr


   <L> value length:     0.284610    e*bohr
 --------------------------------------------------- 
  Calculating transition moment for (2,1) => (2,4)
 starting transci.x -m 200000 at Tue May 24 00:56:01 EDT 2022

 -------------------- transci.x ------------------------

                          State No. 1            State No. 2

   Space symmetry:           a                      a   
   No. of CSFs:          ********               ********
   State energies:      -285.93523022          -285.90310502  a.u.

   Transition energy:     0.03212520  a.u.
   Transition energy:     0.87        eV

       Transition moment components:

                 x            y            z

electron          0.490109     0.075186     0.056819  e*bohr
frozen core       0.000000     0.000000     0.000000  e*bohr
total (elec)      0.490109     0.075186     0.056819  e*bohr


   Tr.dipole length:     0.499087    e*bohr
   Oscillator strength :  0.005335
   Einstein A coef.:     0.1769E+06  1/sec
   Einstein B coef.:     0.1011E+09  sec/g

                 x            y            z

<L> electron     0.020980     0.075435    -0.126128  e*bohr


   <L> value length:     0.148455    e*bohr
 --------------------------------------------------- 
 Not computing transition moment with identical bra and ket.
 Calculating transition moment for (2,2) => (2,3)
 starting transci.x -m 200000 at Tue May 24 01:00:25 EDT 2022

 -------------------- transci.x ------------------------

                          State No. 1            State No. 2

   Space symmetry:           a                      a   
   No. of CSFs:          ********               ********
   State energies:      -285.91274884          -285.90888915  a.u.

   Transition energy:     0.00385969  a.u.
   Transition energy:     0.11        eV

       Transition moment components:

                 x            y            z

electron          0.810596     0.063172     0.132938  e*bohr
frozen core       0.000000     0.000000     0.000000  e*bohr
total (elec)      0.810596     0.063172     0.132938  e*bohr


   Tr.dipole length:     0.823850    e*bohr
   Oscillator strength :  0.001746
   Einstein A coef.:     0.8359E+03  1/sec
   Einstein B coef.:     0.2754E+09  sec/g

                 x            y            z

<L> electron     0.076953     0.155119     0.019185  e*bohr


   <L> value length:     0.174218    e*bohr
 --------------------------------------------------- 
  Calculating transition moment for (2,2) => (2,4)
 starting transci.x -m 200000 at Tue May 24 01:04:34 EDT 2022

 -------------------- transci.x ------------------------

                          State No. 1            State No. 2

   Space symmetry:           a                      a   
   No. of CSFs:          ********               ********
   State energies:      -285.91274884          -285.90310502  a.u.

   Transition energy:     0.00964382  a.u.
   Transition energy:     0.26        eV

       Transition moment components:

                 x            y            z

electron         -0.721403    -0.027917    -0.069591  e*bohr
frozen core       0.000000     0.000000     0.000000  e*bohr
total (elec)     -0.721403    -0.027917    -0.069591  e*bohr


   Tr.dipole length:     0.725289    e*bohr
   Oscillator strength :  0.003382
   Einstein A coef.:     0.1011E+05  1/sec
   Einstein B coef.:     0.2135E+09  sec/g

                 x            y            z

<L> electron    -0.081145     0.438969     0.026407  e*bohr


   <L> value length:     0.447186    e*bohr
 --------------------------------------------------- 
 Not computing transition moment with identical bra and ket.
 Calculating transition moment for (2,3) => (2,4)
 starting transci.x -m 200000 at Tue May 24 01:08:44 EDT 2022

 -------------------- transci.x ------------------------

                          State No. 1            State No. 2

   Space symmetry:           a                      a   
   No. of CSFs:          ********               ********
   State energies:      -285.90888915          -285.90310502  a.u.

   Transition energy:     0.00578413  a.u.
   Transition energy:     0.16        eV

       Transition moment components:

                 x            y            z

electron          1.614138     0.043970     0.020949  e*bohr
frozen core       0.000000     0.000000     0.000000  e*bohr
total (elec)      1.614138     0.043970     0.020949  e*bohr


   Tr.dipole length:     1.614873    e*bohr
   Oscillator strength :  0.010056
   Einstein A coef.:     0.1081E+05  1/sec
   Einstein B coef.:     0.1058E+10  sec/g

                 x            y            z

<L> electron    -0.005316     0.205021    -0.081171  e*bohr


   <L> value length:     0.220569    e*bohr
 --------------------------------------------------- 
 Not computing transition moment with identical bra and ket.
 --- ci properties for state 1 of  DRT 1 ----
starting exptvl.x -m 200000  at Tue May 24 01:12:56 EDT 2022

 -------------------- exptvl.x ------------------------
  === dipole moment === 
                     X               Y               Z   
   orign x       0.00000000      0.00000000      0.00000000
   orign y       0.00000000      0.00000000      0.00000000
   orign z       0.00000000      0.00000000      0.00000000
   nuclear      -1.02936552     -0.57911204     -0.31870671
   electronic    0.86176066      0.05450007      0.35271731
   total        -0.16760486     -0.52461197      0.03401060
   total Dipole moment =   1.40249700    Debye
 --------------------------------------------------- 
  --- ci properties for state 2 of  DRT 1 ----
starting exptvl.x -m 200000  at Tue May 24 01:12:56 EDT 2022

 -------------------- exptvl.x ------------------------
  === dipole moment === 
                     X               Y               Z   
   orign x       0.00000000      0.00000000      0.00000000
   orign y       0.00000000      0.00000000      0.00000000
   orign z       0.00000000      0.00000000      0.00000000
   nuclear      -1.02936552     -0.57911204     -0.31870671
   electronic    3.79404023      0.18534179      0.53480770
   total         2.76467471     -0.39377025      0.21610099
   total Dipole moment =   7.11924833    Debye
 --------------------------------------------------- 
  --- ci properties for state 3 of  DRT 1 ----
starting exptvl.x -m 200000  at Tue May 24 01:12:57 EDT 2022

 -------------------- exptvl.x ------------------------
  === dipole moment === 
                     X               Y               Z   
   orign x       0.00000000      0.00000000      0.00000000
   orign y       0.00000000      0.00000000      0.00000000
   orign z       0.00000000      0.00000000      0.00000000
   nuclear      -1.02936552     -0.57911204     -0.31870671
   electronic    1.31203157      0.07761502      0.28791339
   total         0.28266605     -0.50149702     -0.03079332
   total Dipole moment =   1.46530802    Debye
 --------------------------------------------------- 
  --- ci properties for state 4 of  DRT 1 ----
starting exptvl.x -m 200000  at Tue May 24 01:12:57 EDT 2022

 -------------------- exptvl.x ------------------------
  === dipole moment === 
                     X               Y               Z   
   orign x       0.00000000      0.00000000      0.00000000
   orign y       0.00000000      0.00000000      0.00000000
   orign z       0.00000000      0.00000000      0.00000000
   nuclear      -1.02936552     -0.57911204     -0.31870671
   electronic    5.66652276      0.01360756      0.42426142
   total         4.63715724     -0.56550448      0.10555471
   total Dipole moment =  11.87684118    Debye
 --------------------------------------------------- 
  --- ci properties for state 1 of  DRT 2 ----
starting exptvl.x -m 200000  at Tue May 24 01:12:57 EDT 2022

 -------------------- exptvl.x ------------------------
  === dipole moment === 
                     X               Y               Z   
   orign x       0.00000000      0.00000000      0.00000000
   orign y       0.00000000      0.00000000      0.00000000
   orign z       0.00000000      0.00000000      0.00000000
   nuclear      -1.02936552     -0.57911204     -0.31870671
   electronic    0.91696515      0.12459527      0.37766227
   total        -0.11240037     -0.45451677      0.05895556
   total Dipole moment =   1.19946612    Debye
 --------------------------------------------------- 
  --- ci properties for state 2 of  DRT 2 ----
starting exptvl.x -m 200000  at Tue May 24 01:12:58 EDT 2022

 -------------------- exptvl.x ------------------------
  === dipole moment === 
                     X               Y               Z   
   orign x       0.00000000      0.00000000      0.00000000
   orign y       0.00000000      0.00000000      0.00000000
   orign z       0.00000000      0.00000000      0.00000000
   nuclear      -1.02936552     -0.57911204     -0.31870671
   electronic    0.76567056      0.10444007      0.47287576
   total        -0.26369496     -0.47467197      0.15416905
   total Dipole moment =   1.43471904    Debye
 --------------------------------------------------- 
  --- ci properties for state 3 of  DRT 2 ----
starting exptvl.x -m 200000  at Tue May 24 01:12:58 EDT 2022

 -------------------- exptvl.x ------------------------
  === dipole moment === 
                     X               Y               Z   
   orign x       0.00000000      0.00000000      0.00000000
   orign y       0.00000000      0.00000000      0.00000000
   orign z       0.00000000      0.00000000      0.00000000
   nuclear      -1.02936552     -0.57911204     -0.31870671
   electronic    2.33122948      0.20263774      0.38966470
   total         1.30186396     -0.37647430      0.07095799
   total Dipole moment =   3.44931138    Debye
 --------------------------------------------------- 
  --- ci properties for state 4 of  DRT 2 ----
starting exptvl.x -m 200000  at Tue May 24 01:12:58 EDT 2022

 -------------------- exptvl.x ------------------------
  === dipole moment === 
                     X               Y               Z   
   orign x       0.00000000      0.00000000      0.00000000
   orign y       0.00000000      0.00000000      0.00000000
   orign z       0.00000000      0.00000000      0.00000000
   nuclear      -1.02936552     -0.57911204     -0.31870671
   electronic    2.24203803      0.02254533      0.35554618
   total         1.21267251     -0.55656671      0.03683947
   total Dipole moment =   3.39273345    Debye
 --------------------------------------------------- 
 starting mo_convert.x at Tue May 24 01:12:58 EDT 2022

 -------------------- mo_convert.x ------------------------
 --------------------------------------------------- 
 starting pymolcas molcas.input.molden > molcas.output.molden at Tue May 24 01:12:59 EDT 2022

Generating link ln -s ./molcas.OrdInt ORDINT 
 -------------------- molden ------------------------
 --------------------------------------------------- 
 starting mo_convert.x at Tue May 24 01:13:26 EDT 2022

 -------------------- mo_convert.x ------------------------
 --------------------------------------------------- 
 starting pymolcas molcas.input.molden > molcas.output.molden at Tue May 24 01:13:26 EDT 2022

Generating link ln -s ./molcas.OrdInt ORDINT 
 -------------------- molden ------------------------
 --------------------------------------------------- 
 starting mo_convert.x at Tue May 24 01:13:53 EDT 2022

 -------------------- mo_convert.x ------------------------
 --------------------------------------------------- 
 starting pymolcas molcas.input.molden > molcas.output.molden at Tue May 24 01:13:54 EDT 2022

Generating link ln -s ./molcas.OrdInt ORDINT 
 -------------------- molden ------------------------
 --------------------------------------------------- 
 starting mo_convert.x at Tue May 24 01:14:15 EDT 2022

 -------------------- mo_convert.x ------------------------
 --------------------------------------------------- 
 starting pymolcas molcas.input.molden > molcas.output.molden at Tue May 24 01:14:15 EDT 2022

Generating link ln -s ./molcas.OrdInt ORDINT 
 -------------------- molden ------------------------
 --------------------------------------------------- 
 starting mo_convert.x at Tue May 24 01:14:36 EDT 2022

 -------------------- mo_convert.x ------------------------
 --------------------------------------------------- 
 starting pymolcas molcas.input.molden > molcas.output.molden at Tue May 24 01:14:36 EDT 2022

Generating link ln -s ./molcas.OrdInt ORDINT 
 -------------------- molden ------------------------
 --------------------------------------------------- 
 starting mo_convert.x at Tue May 24 01:14:57 EDT 2022

 -------------------- mo_convert.x ------------------------
 --------------------------------------------------- 
 starting pymolcas molcas.input.molden > molcas.output.molden at Tue May 24 01:14:58 EDT 2022

Generating link ln -s ./molcas.OrdInt ORDINT 
 -------------------- molden ------------------------
 --------------------------------------------------- 
 starting mo_convert.x at Tue May 24 01:15:19 EDT 2022

 -------------------- mo_convert.x ------------------------
 --------------------------------------------------- 
 starting pymolcas molcas.input.molden > molcas.output.molden at Tue May 24 01:15:19 EDT 2022

Generating link ln -s ./molcas.OrdInt ORDINT 
 -------------------- molden ------------------------
 --------------------------------------------------- 
 starting mo_convert.x at Tue May 24 01:15:40 EDT 2022

 -------------------- mo_convert.x ------------------------
 --------------------------------------------------- 
 starting pymolcas molcas.input.molden > molcas.output.molden at Tue May 24 01:15:41 EDT 2022

Generating link ln -s ./molcas.OrdInt ORDINT 
 -------------------- molden ------------------------
 --------------------------------------------------- 
 starting mo_convert.x at Tue May 24 01:16:02 EDT 2022

 -------------------- mo_convert.x ------------------------
 --------------------------------------------------- 
 starting pymolcas molcas.input.molden > molcas.output.molden at Tue May 24 01:16:02 EDT 2022

Generating link ln -s ./molcas.OrdInt ORDINT 
 -------------------- molden ------------------------
 --------------------------------------------------- 
 starting mo_convert.x at Tue May 24 01:16:27 EDT 2022

 -------------------- mo_convert.x ------------------------
 --------------------------------------------------- 
 starting pymolcas molcas.input.molden > molcas.output.molden at Tue May 24 01:16:27 EDT 2022

Generating link ln -s ./molcas.OrdInt ORDINT 
 -------------------- molden ------------------------
 --------------------------------------------------- 
 starting mo_convert.x at Tue May 24 01:16:48 EDT 2022

 -------------------- mo_convert.x ------------------------
 --------------------------------------------------- 
 starting pymolcas molcas.input.molden > molcas.output.molden at Tue May 24 01:16:49 EDT 2022

Generating link ln -s ./molcas.OrdInt ORDINT 
 -------------------- molden ------------------------
 --------------------------------------------------- 
 starting mo_convert.x at Tue May 24 01:17:10 EDT 2022

 -------------------- mo_convert.x ------------------------
 --------------------------------------------------- 
 starting pymolcas molcas.input.molden > molcas.output.molden at Tue May 24 01:17:10 EDT 2022

Generating link ln -s ./molcas.OrdInt ORDINT 
 -------------------- molden ------------------------
 --------------------------------------------------- 
 starting mo_convert.x at Tue May 24 01:17:31 EDT 2022

 -------------------- mo_convert.x ------------------------
 --------------------------------------------------- 
 starting pymolcas molcas.input.molden > molcas.output.molden at Tue May 24 01:17:32 EDT 2022

Generating link ln -s ./molcas.OrdInt ORDINT 
 -------------------- molden ------------------------
 --------------------------------------------------- 
 starting mo_convert.x at Tue May 24 01:17:53 EDT 2022

 -------------------- mo_convert.x ------------------------
 --------------------------------------------------- 
 starting pymolcas molcas.input.molden > molcas.output.molden at Tue May 24 01:17:53 EDT 2022

Generating link ln -s ./molcas.OrdInt ORDINT 
 -------------------- molden ------------------------
 --------------------------------------------------- 
 

 +++++++++++ STARTING GRADIENTS AND NAD. COUPLINGS CALCULATION +++++++++++ 

 Using new transition density code ... 
INFO: this is a frozen core gradient calculation
starting cidrt.x  -m 200000 < cidrtin.cigrd > cidrtls.cigrd at Tue May 24 01:18:15 EDT 2022

 -------------------- cidrt.x ------------------------
 total number of orbitals            :   246
 number of frozen core orbitals      :    18
 number of frozen virtual orbitals   :     0
 number of internal orbitals         :    14
 number of external orbitals         :   214
 spatial symmetry:   a  
 
 total number of configurations  282461366
 number of reference configurations  1666
 --------------------------------------------------- 
 starting tran.x -m 200000  at Tue May 24 01:18:22 EDT 2022

 -------------------- tran.x ------------------------
 --------------------------------------------------- 
 ---- Computing 8 gradient(s)  ----

 --- Computing gradient for DRT:1, State; 1

starting cigrd.x -m 200000 at Tue May 24 01:26:47 EDT 2022

 -------------------- cigrd.x ------------------------
 Total energy (ciudg) :  -286.090963357518 
  Effective energy     :  -286.090963376076 
  Delta E              :     0.000000018558 
  --------------------------------------------------- 
 starting tran.x -m 200000  at Tue May 24 01:36:51 EDT 2022

 -------------------- tran.x ------------------------
 --------------------------------------------------- 
 starting pymolcas molcas.input.alaska > molcas.output.alaska  at Tue May 24 01:44:05 EDT 2022

Generating link ln -s ./molcas.OrdInt ORDINT 
 -------------------- alaska ------------------------
 --------------------------------------------------- 
 cartesian gradient by alaska (MOLCAS)

 === Gradient of DRT 1, state 1 === 
   0.281018D-01   0.448125D-01   0.619605D-01
   0.330264D-05   0.125109D-04  -0.106831D-04
   0.201960D-05  -0.685360D-06  -0.258945D-05
  -0.168241D-05   0.126689D-05   0.498724D-05
   0.609232D-05  -0.287028D-06  -0.158253D-05
   0.222531D-05  -0.629637D-06   0.148471D-05
   0.312047D-08  -0.391016D-06  -0.145403D-05
  -0.281121D-01  -0.448504D-01  -0.619659D-01
  -0.290631D-05   0.251246D-04   0.139467D-04
   0.657428D-06   0.649098D-06   0.199404D-05
   0.674216D-06   0.605113D-06  -0.842303D-06
  -0.496989D-06  -0.445856D-06   0.156645D-05
  -0.545370D-06  -0.423317D-06  -0.137804D-05
   0.929712D-06   0.575579D-06  -0.667028D-07
===================================
 --- Computing gradient for DRT:1, State; 2

starting cigrd.x -m 200000 at Tue May 24 01:45:28 EDT 2022

 -------------------- cigrd.x ------------------------
 Total energy (ciudg) :  -285.904156842233 
  Effective energy     :  -285.904156860474 
  Delta E              :     0.000000018241 
  --------------------------------------------------- 
 starting tran.x -m 200000  at Tue May 24 01:56:15 EDT 2022

 -------------------- tran.x ------------------------
 --------------------------------------------------- 
 starting pymolcas molcas.input.alaska > molcas.output.alaska  at Tue May 24 02:03:30 EDT 2022

Generating link ln -s ./molcas.OrdInt ORDINT 
 -------------------- alaska ------------------------
 --------------------------------------------------- 
 cartesian gradient by alaska (MOLCAS)

 === Gradient of DRT 1, state 2 === 
  -0.416977D-01   0.690228D-01   0.482800D-01
   0.633171D-01  -0.160553D-01  -0.195772D-02
  -0.165908D-01   0.433770D-02   0.316994D-01
  -0.199533D-01  -0.513859D-02  -0.287992D-01
   0.133804D-01  -0.930577D-03   0.155420D-01
   0.122679D-01   0.395035D-02  -0.168998D-01
  -0.558704D-02  -0.218252D-03  -0.478705D-03
  -0.151876D-01  -0.411771D-01  -0.352824D-01
   0.907875D-02  -0.111038D-01  -0.118548D-01
  -0.691339D-03  -0.292470D-02  -0.308917D-02
  -0.847085D-03   0.852465D-03   0.274122D-02
   0.105061D-02   0.297681D-03  -0.945039D-03
   0.107138D-02  -0.365607D-03   0.109670D-02
   0.388633D-03  -0.547090D-03  -0.523921D-04
===================================
 --- Computing gradient for DRT:1, State; 3

starting cigrd.x -m 200000 at Tue May 24 02:04:54 EDT 2022

 -------------------- cigrd.x ------------------------
 Total energy (ciudg) :  -285.900178073447 
  Effective energy     :  -285.900178092287 
  Delta E              :     0.000000018840 
  --------------------------------------------------- 
 starting tran.x -m 200000  at Tue May 24 02:14:54 EDT 2022

 -------------------- tran.x ------------------------
 --------------------------------------------------- 
 starting pymolcas molcas.input.alaska > molcas.output.alaska  at Tue May 24 02:22:12 EDT 2022

Generating link ln -s ./molcas.OrdInt ORDINT 
 -------------------- alaska ------------------------
 --------------------------------------------------- 
 cartesian gradient by alaska (MOLCAS)

 === Gradient of DRT 1, state 3 === 
   0.586217D-03   0.580923D-01   0.654327D-01
   0.397238D-01  -0.428986D-02   0.886614D-03
   0.174063D-01  -0.574659D-02   0.293852D-01
   0.149814D-01   0.387454D-02  -0.323419D-01
  -0.185540D-01   0.326958D-02   0.252019D-01
  -0.138641D-01  -0.210982D-02  -0.267894D-01
  -0.173738D-01  -0.436843D-05   0.258464D-02
  -0.259287D-01  -0.491481D-01  -0.588291D-01
   0.218249D-02  -0.276986D-02  -0.590047D-02
  -0.375707D-03   0.113641D-02  -0.120630D-02
  -0.432344D-03  -0.220554D-02   0.154953D-02
   0.569040D-03  -0.289751D-03  -0.118575D-02
   0.557806D-03   0.496046D-03   0.114834D-02
   0.521542D-03  -0.305002D-03   0.640134D-04
===================================
 --- Computing gradient for DRT:1, State; 4

starting cigrd.x -m 200000 at Tue May 24 02:23:35 EDT 2022

 -------------------- cigrd.x ------------------------
 Total energy (ciudg) :  -285.852595580155 
  Effective energy     :  -285.852595595752 
  Delta E              :     0.000000015597 
  --------------------------------------------------- 
 starting tran.x -m 200000  at Tue May 24 02:34:02 EDT 2022

 -------------------- tran.x ------------------------
 --------------------------------------------------- 
 starting pymolcas molcas.input.alaska > molcas.output.alaska  at Tue May 24 02:41:27 EDT 2022

Generating link ln -s ./molcas.OrdInt ORDINT 
 -------------------- alaska ------------------------
 --------------------------------------------------- 
 cartesian gradient by alaska (MOLCAS)

 === Gradient of DRT 1, state 4 === 
  -0.845021D-02   0.501785D-01   0.585053D-01
   0.461366D-01  -0.376761D-02  -0.102724D-02
   0.389559D-01   0.593018D-03  -0.179140D-02
   0.353867D-01  -0.456432D-03   0.182414D-02
  -0.432463D-01  -0.883662D-03  -0.106575D-01
  -0.439683D-01  -0.475596D-03   0.105171D-01
  -0.840074D-02   0.201311D-03  -0.107000D-02
  -0.222944D-01  -0.424164D-01  -0.523753D-01
   0.451513D-02  -0.264039D-02  -0.431559D-02
  -0.552290D-03  -0.451541D-03  -0.318470D-02
  -0.741195D-03   0.238333D-03   0.333848D-02
   0.465312D-03   0.521760D-04  -0.105505D-02
   0.435329D-03  -0.152387D-03   0.126263D-02
   0.175846D-02  -0.193049D-04   0.290906D-04
===================================
 --- Computing gradient for DRT:2, State; 1

starting cigrd.x -m 200000 at Tue May 24 02:42:47 EDT 2022

 -------------------- cigrd.x ------------------------
 Total energy (ciudg) :  -285.935230219027 
  Effective energy     :  -285.935230236465 
  Delta E              :     0.000000017438 
  --------------------------------------------------- 
 starting tran.x -m 200000  at Tue May 24 02:53:29 EDT 2022

 -------------------- tran.x ------------------------
 --------------------------------------------------- 
 starting pymolcas molcas.input.alaska > molcas.output.alaska  at Tue May 24 03:00:54 EDT 2022

Generating link ln -s ./molcas.OrdInt ORDINT 
 -------------------- alaska ------------------------
 --------------------------------------------------- 
 cartesian gradient by alaska (MOLCAS)

 === Gradient of DRT 2, state 1 === 
   0.107499D-01   0.455229D-01   0.610011D-01
   0.502616D-01  -0.278094D-02  -0.107674D-01
  -0.141734D-01  -0.136902D-02   0.415148D-01
  -0.137615D-01   0.431711D-03  -0.328559D-01
   0.846018D-02   0.115573D-02   0.310219D-01
   0.170746D-01   0.140041D-02  -0.412457D-01
  -0.364314D-01  -0.801090D-03   0.988948D-02
  -0.242618D-01  -0.409478D-01  -0.557930D-01
   0.132335D-02  -0.133534D-02  -0.284385D-02
  -0.827944D-03  -0.635655D-03  -0.407284D-03
  -0.819882D-03  -0.269784D-03   0.275759D-03
   0.672852D-03   0.151765D-03  -0.529860D-03
   0.800079D-03  -0.201461D-04   0.566298D-03
   0.933439D-03  -0.502696D-03   0.173557D-03
===================================
 --- Computing gradient for DRT:2, State; 2

starting cigrd.x -m 200000 at Tue May 24 03:02:17 EDT 2022

 -------------------- cigrd.x ------------------------
 Total energy (ciudg) :  -285.912748840726 
  Effective energy     :  -285.912748859893 
  Delta E              :     0.000000019167 
  --------------------------------------------------- 
 starting tran.x -m 200000  at Tue May 24 03:12:28 EDT 2022

 -------------------- tran.x ------------------------
 --------------------------------------------------- 
 starting pymolcas molcas.input.alaska > molcas.output.alaska  at Tue May 24 03:19:37 EDT 2022

Generating link ln -s ./molcas.OrdInt ORDINT 
 -------------------- alaska ------------------------
 --------------------------------------------------- 
 cartesian gradient by alaska (MOLCAS)

 === Gradient of DRT 2, state 2 === 
  -0.597220D-02   0.578601D-01   0.532800D-01
   0.359427D-01  -0.582514D-02   0.317600D-01
   0.351161D-01   0.436382D-02   0.151810D-01
   0.171852D-01  -0.302716D-02  -0.415381D-01
  -0.229655D-01  -0.146239D-02   0.334504D-01
  -0.340747D-01   0.148435D-02  -0.132291D-01
  -0.250274D-03   0.734965D-03  -0.215855D-01
  -0.269634D-01  -0.460876D-01  -0.534661D-01
   0.123091D-02  -0.604763D-02  -0.305750D-02
   0.223434D-03  -0.196713D-02  -0.191129D-02
  -0.952607D-04   0.950571D-03   0.154081D-02
   0.420824D-03  -0.861619D-05  -0.154837D-02
   0.382799D-03  -0.680381D-03   0.147951D-02
  -0.180676D-03  -0.287718D-03  -0.355774D-03
===================================
 --- Computing gradient for DRT:2, State; 3

starting cigrd.x -m 200000 at Tue May 24 03:21:00 EDT 2022

 -------------------- cigrd.x ------------------------
 Total energy (ciudg) :  -285.908889145913 
  Effective energy     :  -285.908889164482 
  Delta E              :     0.000000018569 
  --------------------------------------------------- 
 starting tran.x -m 200000  at Tue May 24 03:31:49 EDT 2022

 -------------------- tran.x ------------------------
 --------------------------------------------------- 
 starting pymolcas molcas.input.alaska > molcas.output.alaska  at Tue May 24 03:39:08 EDT 2022

Generating link ln -s ./molcas.OrdInt ORDINT 
 -------------------- alaska ------------------------
 --------------------------------------------------- 
 cartesian gradient by alaska (MOLCAS)

 === Gradient of DRT 2, state 3 === 
  -0.186388D-01   0.591041D-01   0.581986D-01
   0.409725D-01  -0.174043D-01  -0.218373D-01
   0.181244D-01  -0.175622D-02   0.264637D-01
   0.291744D-01   0.495377D-02  -0.108248D-01
  -0.313638D-01   0.433977D-02   0.476459D-02
  -0.238089D-01   0.151069D-02  -0.155563D-01
  -0.412933D-02  -0.232266D-02   0.129059D-01
  -0.171305D-01  -0.408006D-01  -0.435531D-01
   0.571496D-02  -0.457882D-02  -0.109285D-01
  -0.190566D-03  -0.341569D-03  -0.202946D-02
  -0.249470D-03  -0.216511D-02   0.231411D-02
   0.641143D-03  -0.105347D-03  -0.115266D-02
   0.450381D-03   0.202575D-03   0.114072D-02
   0.433547D-03  -0.636290D-03   0.945917D-04
===================================
 --- Computing gradient for DRT:2, State; 4

starting cigrd.x -m 200000 at Tue May 24 03:40:30 EDT 2022

 -------------------- cigrd.x ------------------------
 Total energy (ciudg) :  -285.903105020381 
  Effective energy     :  -285.903105038338 
  Delta E              :     0.000000017957 
[...]
   4.107425E-01  -3.415901E-01  -4.409692E+00
  -1.006097E+00   2.008403E-02   2.154544E+00
   1.447231E-01   1.562921E-01   1.852618E+00
  -8.912919E-01   6.075717E-02  -1.924760E+00
   1.714781E+00   6.461123E-02  -1.990310E+00
   1.725793E-02  -6.054744E-02   3.846500E+00
   1.637799E-01   3.262218E-01   3.847037E-01
   3.203058E-02  -1.341721E-01  -9.898652E-02
  -2.160567E-02  -4.707569E-02  -2.160468E-02
   2.218789E-02   2.258422E-03  -6.590551E-03
  -2.006178E-02  -7.987955E-03   1.228661E-02
   2.916739E-02  -5.921981E-03   6.414033E-03
  -2.694913E-03  -1.021824E-02   6.767416E-02
===================================

 Norm of the nonadiabatic coupling vector: 
 |h(drt2.state1,drt2.state2)|= 7.46685613978526 

 Cross-check of the non-adiabatic coupling term:
  DeltaE= -0.0224813783999593

  <L>*dE form CIGRD   :    0.0001195110    -0.0046091547     0.0018248360
  <L>*dE form NADCOUPL:   -0.0004158678     0.0175383613     0.0014003272
 -------------------------------------------------------------------------
  Difference          :    0.0005353788    -0.0221475159     0.0004245088

 NOTE: This test is meaningless at a point of conical intersection!


 -------- NAD. COUPLING for DRT:2 STATE:1 AND DRT:2 STATE:3 --------
opening file =ciudgls.drt2.sp
opening file =ciudgls.drt2.sp
extracted: energy1= -285.9352302188   energy2=-285.9088891456   deltae=-0.0263410731999443
starting cigrd.x -m 200000 at Tue May 24 06:26:41 EDT 2022

 -------------------- cigrd.x ------------------------
 Total energy (ciudg) :    -0.000000000545 
  Effective energy     :    -0.000000009179 
  Delta E              :     0.000000008634 
  --------------------------------------------------- 
 starting tran.x -m 200000  at Tue May 24 06:37:32 EDT 2022

 -------------------- tran.x ------------------------
 --------------------------------------------------- 
  adding keyword NONUC to alaska input
starting pymolcas molcas.input.alaska > molcas.output.alaska  at Tue May 24 06:44:36 EDT 2022

Generating link ln -s ./molcas.OrdInt ORDINT 
 -------------------- alaska ------------------------
 --------------------------------------------------- 
 cartesian gradient by alaska (MOLCAS)

 Calculating the Dx(r,s) term of D[CSF] nonadiabatic coupling term.
dxcalc: INPUT LINE SEPARATOR 
 
starting tran.x -m 200000  at Tue May 24 06:45:48 EDT 2022

 -------------------- tran.x ------------------------
 --------------------------------------------------- 
 starting tdmrunfile.x > tdmrunfilels at Tue May 24 06:45:48 EDT 2022

 -------------------- tdmrunfile.x ------------------------
 --------------------------------------------------- 
 starting pymolcas molcas.input.alaska > molcas.output.alaska  at Tue May 24 06:45:48 EDT 2022

Generating link ln -s ./molcas.OrdInt ORDINT 
 -------------------- alaska ------------------------
 --------------------------------------------------- 
 
 === Non-adiabatic coupling for DRT 2 STATE 1 and DRT 2 STATE 3 === 
   8.867231E-01  -8.093804E-02   2.184386E-01
  -1.098039E+00   6.581675E-01  -1.358759E+00
   1.801106E+00  -9.788332E-02  -2.375210E-02
   2.273363E+00  -1.222669E-01   1.330923E+00
  -2.404873E+00  -1.320480E-01  -1.106505E+00
  -1.560038E+00  -1.687069E-01  -1.392482E-01
   5.335615E-01   1.305073E-01   1.244216E+00
  -2.940990E-01  -2.585649E-01  -4.766779E-01
  -1.373013E-01  -3.097708E-02   2.859867E-01
   1.068210E-02   2.108307E-02  -9.996131E-03
   2.799540E-02   3.587125E-02   8.032964E-03
  -2.895583E-02  -3.501434E-03  -1.886923E-02
  -1.300266E-02   6.209619E-03   2.178635E-02
  -6.810355E-03   2.523936E-02   2.117567E-02
===================================

 Norm of the nonadiabatic coupling vector: 
 |h(drt2.state1,drt2.state3)|= 5.13603031481195 

 Cross-check of the non-adiabatic coupling term:
  DeltaE= -0.0263410731999443

  <L>*dE form CIGRD   :    0.0001400291    -0.0054004732     0.0021381313
  <L>*dE form NADCOUPL:    0.0004506604     0.0068730656    -0.0029584631
 -------------------------------------------------------------------------
  Difference          :   -0.0003106313    -0.0122735388     0.0050965944

 NOTE: This test is meaningless at a point of conical intersection!


 -------- NAD. COUPLING for DRT:2 STATE:1 AND DRT:2 STATE:4 --------
opening file =ciudgls.drt2.sp
opening file =ciudgls.drt2.sp
extracted: energy1= -285.9352302188   energy2=-285.9031050201   deltae=-0.0321251986999869
starting cigrd.x -m 200000 at Tue May 24 06:47:02 EDT 2022

 -------------------- cigrd.x ------------------------
 Total energy (ciudg) :    -0.000000000107 
  Effective energy     :     0.000000001183 
  Delta E              :    -0.000000001290 
  --------------------------------------------------- 
 starting tran.x -m 200000  at Tue May 24 06:57:30 EDT 2022

 -------------------- tran.x ------------------------
 --------------------------------------------------- 
  adding keyword NONUC to alaska input
starting pymolcas molcas.input.alaska > molcas.output.alaska  at Tue May 24 07:04:28 EDT 2022

Generating link ln -s ./molcas.OrdInt ORDINT 
 -------------------- alaska ------------------------
 --------------------------------------------------- 
 cartesian gradient by alaska (MOLCAS)

 Calculating the Dx(r,s) term of D[CSF] nonadiabatic coupling term.
dxcalc: INPUT LINE SEPARATOR 
 
starting tran.x -m 200000  at Tue May 24 07:05:42 EDT 2022

 -------------------- tran.x ------------------------
 --------------------------------------------------- 
 starting tdmrunfile.x > tdmrunfilels at Tue May 24 07:05:42 EDT 2022

 -------------------- tdmrunfile.x ------------------------
 --------------------------------------------------- 
 starting pymolcas molcas.input.alaska > molcas.output.alaska  at Tue May 24 07:05:42 EDT 2022

Generating link ln -s ./molcas.OrdInt ORDINT 
 -------------------- alaska ------------------------
 --------------------------------------------------- 
 
 === Non-adiabatic coupling for DRT 2 STATE 1 and DRT 2 STATE 4 === 
  -3.568198E-01   2.833110E-02  -9.985125E-02
  -5.407307E-01  -5.814621E-01   3.196276E-01
   1.851518E+00   1.759794E-01  -8.016267E-01
   1.696631E+00   1.819642E-01   4.748855E-01
  -1.744774E+00   8.444444E-02  -5.567668E-01
  -1.912690E+00   8.912157E-02   8.924100E-01
   8.372427E-01  -1.013846E-01  -3.241305E-01
   1.330924E-01   1.682176E-01   2.474881E-01
   6.226987E-02   4.410609E-02  -1.413135E-01
   2.440474E-02  -1.912513E-02  -3.319183E-02
   1.882915E-02  -1.849795E-02   3.345686E-02
  -1.658265E-02  -7.722529E-03  -1.904055E-02
  -2.309747E-02  -1.466460E-02   1.716787E-02
  -1.382633E-02  -8.564915E-03  -5.869647E-03
===================================

 Norm of the nonadiabatic coupling vector: 
 |h(drt2.state1,drt2.state4)|= 4.10962097260999 

 Cross-check of the non-adiabatic coupling term:
  DeltaE= -0.0321251986999869

  <L>*dE form CIGRD   :    0.0001707776    -0.0065863404     0.0026076345
  <L>*dE form NADCOUPL:   -0.0006737750    -0.0024225151     0.0040531950
 -------------------------------------------------------------------------
  Difference          :    0.0008445525    -0.0041638252    -0.0014455605

 NOTE: This test is meaningless at a point of conical intersection!


 -------- NAD. COUPLING for DRT:2 STATE:2 AND DRT:2 STATE:3 --------
opening file =ciudgls.drt2.sp
opening file =ciudgls.drt2.sp
extracted: energy1= -285.9127488404   energy2=-285.9088891456   deltae=-0.00385969479998494
starting cigrd.x -m 200000 at Tue May 24 07:06:55 EDT 2022

 -------------------- cigrd.x ------------------------
 Total energy (ciudg) :     0.000000001549 
  Effective energy     :     0.000000006768 
  Delta E              :    -0.000000005219 
  --------------------------------------------------- 
 starting tran.x -m 200000  at Tue May 24 07:17:36 EDT 2022

 -------------------- tran.x ------------------------
 --------------------------------------------------- 
  adding keyword NONUC to alaska input
starting pymolcas molcas.input.alaska > molcas.output.alaska  at Tue May 24 07:24:37 EDT 2022

Generating link ln -s ./molcas.OrdInt ORDINT 
 -------------------- alaska ------------------------
 --------------------------------------------------- 
 cartesian gradient by alaska (MOLCAS)

 Calculating the Dx(r,s) term of D[CSF] nonadiabatic coupling term.
dxcalc: INPUT LINE SEPARATOR 
 
starting tran.x -m 200000  at Tue May 24 07:25:45 EDT 2022

 -------------------- tran.x ------------------------
 --------------------------------------------------- 
 starting tdmrunfile.x > tdmrunfilels at Tue May 24 07:25:45 EDT 2022

 -------------------- tdmrunfile.x ------------------------
 --------------------------------------------------- 
 starting pymolcas molcas.input.alaska > molcas.output.alaska  at Tue May 24 07:25:45 EDT 2022

Generating link ln -s ./molcas.OrdInt ORDINT 
 -------------------- alaska ------------------------
 --------------------------------------------------- 
 
 === Non-adiabatic coupling for DRT 2 STATE 2 and DRT 2 STATE 3 === 
  -2.739485E+00  -2.155887E-01  -2.590500E+00
   8.753047E-01  -1.098104E+00   5.607491E+00
   1.264586E+00   9.918194E-01  -3.006107E+00
  -2.617569E+00  -6.626149E-01  -7.892526E-01
   1.908247E+00  -3.716664E-01  -3.472931E-01
  -8.766817E-01   6.397731E-01   2.785664E+00
   2.389604E-01  -8.024288E-02  -3.784742E+00
   1.304844E+00   1.484123E+00   2.704395E+00
   6.212718E-01  -4.935948E-01  -4.512480E-01
  -2.675765E-02  -3.347171E-01  -1.862363E-01
  -2.528029E-02   2.204437E-01   2.141988E-02
  -2.025841E-02   5.503674E-02   6.720035E-02
   5.158614E-02  -1.150434E-01  -1.938276E-03
   4.217336E-02  -2.183466E-02  -2.358186E-02
===================================

 Norm of the nonadiabatic coupling vector: 
 |h(drt2.state2,drt2.state3)|= 10.3301933769821 

 Cross-check of the non-adiabatic coupling term:
  DeltaE= -0.00385969479998494

  <L>*dE form CIGRD   :    0.0000205181    -0.0007913185     0.0003132953
  <L>*dE form NADCOUPL:   -0.0002982394    -0.0005978399    -0.0000744034
 -------------------------------------------------------------------------
  Difference          :    0.0003187576    -0.0001934785     0.0003876987

 NOTE: This test is meaningless at a point of conical intersection!


 -------- NAD. COUPLING for DRT:2 STATE:2 AND DRT:2 STATE:4 --------
opening file =ciudgls.drt2.sp
opening file =ciudgls.drt2.sp
extracted: energy1= -285.9127488404   energy2=-285.9031050201   deltae=-0.00964382030002753
starting cigrd.x -m 200000 at Tue May 24 07:26:57 EDT 2022

 -------------------- cigrd.x ------------------------
 Total energy (ciudg) :    -0.000000000083 
  Effective energy     :    -0.000000004362 
  Delta E              :     0.000000004279 
  --------------------------------------------------- 
 starting tran.x -m 200000  at Tue May 24 07:39:56 EDT 2022

 -------------------- tran.x ------------------------
 --------------------------------------------------- 
  adding keyword NONUC to alaska input
starting pymolcas molcas.input.alaska > molcas.output.alaska  at Tue May 24 07:46:57 EDT 2022

Generating link ln -s ./molcas.OrdInt ORDINT 
 -------------------- alaska ------------------------
 --------------------------------------------------- 
 cartesian gradient by alaska (MOLCAS)

 Calculating the Dx(r,s) term of D[CSF] nonadiabatic coupling term.
dxcalc: INPUT LINE SEPARATOR 
 
starting tran.x -m 200000  at Tue May 24 07:48:06 EDT 2022

 -------------------- tran.x ------------------------
 --------------------------------------------------- 
 starting tdmrunfile.x > tdmrunfilels at Tue May 24 07:48:06 EDT 2022

 -------------------- tdmrunfile.x ------------------------
 --------------------------------------------------- 
 starting pymolcas molcas.input.alaska > molcas.output.alaska  at Tue May 24 07:48:07 EDT 2022

Generating link ln -s ./molcas.OrdInt ORDINT 
 -------------------- alaska ------------------------
 --------------------------------------------------- 
 
 === Non-adiabatic coupling for DRT 2 STATE 2 and DRT 2 STATE 4 === 
   1.063457E+00  -2.131563E-01   5.924752E-01
  -8.229867E-01  -1.547595E-01   1.118805E+00
   2.008604E+00  -2.922710E-01  -4.657778E-01
   1.763707E+00   5.611795E-01   1.672388E-01
  -1.196803E+00   3.485596E-01  -2.214951E-01
  -2.395097E+00  -1.826770E-01  -5.945015E-02
   9.659785E-02  -9.908466E-02  -4.958767E-01
  -3.503446E-01  -2.701885E-01  -7.888538E-01
  -1.755154E-01   3.451816E-01   9.965888E-02
   3.340687E-04   1.213375E-01   2.384592E-02
   5.258937E-02  -1.521310E-01  -4.314796E-02
  -5.370235E-02  -3.962821E-02   9.372530E-03
   7.177568E-03   3.214487E-02   3.784424E-02
  -4.367858E-03  -9.881915E-03   2.240037E-02
===================================

 Norm of the nonadiabatic coupling vector: 
 |h(drt2.state2,drt2.state4)|= 4.46551096598672 

 Cross-check of the non-adiabatic coupling term:
  DeltaE= -0.00964382030002753

  <L>*dE form CIGRD   :    0.0000512665    -0.0019771857     0.0007827985
  <L>*dE form NADCOUPL:    0.0007833757    -0.0042342714    -0.0002566734
 -------------------------------------------------------------------------
  Difference          :   -0.0007321091     0.0022570857     0.0010394719

 NOTE: This test is meaningless at a point of conical intersection!


 -------- NAD. COUPLING for DRT:2 STATE:3 AND DRT:2 STATE:4 --------
opening file =ciudgls.drt2.sp
opening file =ciudgls.drt2.sp
extracted: energy1= -285.9088891456   energy2=-285.9031050201   deltae=-0.00578412550004259
starting cigrd.x -m 200000 at Tue May 24 07:49:16 EDT 2022

 -------------------- cigrd.x ------------------------
 Total energy (ciudg) :     0.000000002013 
  Effective energy     :     0.000000004327 
  Delta E              :    -0.000000002314 
  --------------------------------------------------- 
 starting tran.x -m 200000  at Tue May 24 08:00:01 EDT 2022

 -------------------- tran.x ------------------------
 --------------------------------------------------- 
  adding keyword NONUC to alaska input
starting pymolcas molcas.input.alaska > molcas.output.alaska  at Tue May 24 08:07:10 EDT 2022

Generating link ln -s ./molcas.OrdInt ORDINT 
 -------------------- alaska ------------------------
 --------------------------------------------------- 
 cartesian gradient by alaska (MOLCAS)

 Calculating the Dx(r,s) term of D[CSF] nonadiabatic coupling term.
dxcalc: INPUT LINE SEPARATOR 
 
starting tran.x -m 200000  at Tue May 24 08:08:25 EDT 2022

 -------------------- tran.x ------------------------
 --------------------------------------------------- 
 starting tdmrunfile.x > tdmrunfilels at Tue May 24 08:08:25 EDT 2022

 -------------------- tdmrunfile.x ------------------------
 --------------------------------------------------- 
 starting pymolcas molcas.input.alaska > molcas.output.alaska  at Tue May 24 08:08:25 EDT 2022

Generating link ln -s ./molcas.OrdInt ORDINT 
 -------------------- alaska ------------------------
 --------------------------------------------------- 
 
 === Non-adiabatic coupling for DRT 2 STATE 3 and DRT 2 STATE 4 === 
  -4.860492E+00   2.051757E+00  -7.179062E-01
   2.746619E+00  -7.476545E-01  -2.387529E-01
  -5.987606E+00  -6.170428E-01   1.354133E+00
  -5.701186E+00  -7.175387E-02  -1.015116E+00
   5.567663E+00   1.514002E-01  -1.085780E-01
   5.100661E+00  -2.063420E-01  -4.764545E-01
   1.110202E+00   1.471769E-01   2.734853E-01
   1.261509E+00  -1.439913E-02   2.073120E+00
   8.356305E-01  -7.415615E-01  -1.204021E+00
  -8.610988E-02   1.307021E-01  -1.523989E-01
  -6.722361E-02  -1.463849E-01   1.610303E-01
   5.895287E-02  -1.187899E-02   2.246811E-02
   7.694828E-02   8.753904E-02   1.558151E-02
  -4.504871E-02   6.115058E-03   1.533676E-02
===================================

 Norm of the nonadiabatic coupling vector: 
 |h(drt2.state3,drt2.state4)|= 13.2465252683399 

 Cross-check of the non-adiabatic coupling term:
  DeltaE= -0.00578412550004259

  <L>*dE form CIGRD   :    0.0000307484    -0.0011858672     0.0004695033
  <L>*dE form NADCOUPL:    0.0000308411    -0.0011855558     0.0004714647
 -------------------------------------------------------------------------
  Difference          :   -0.0000000927    -0.0000003113    -0.0000019615

 NOTE: This test is meaningless at a point of conical intersection!



============== timings ===================

   unik.gets.x    
   mcdrt.x        
   mcuft.x        
 * mcscf.x          walltime    0:02:57
   mcpc.x         
   mcpc.x         
   mcpc.x         
   mcpc.x         
   exptvl.x       
   exptvl.x       
   exptvl.x       
   exptvl.x       
   cidrt.x        
   cidrt.x        
 * tran.x           walltime    0:07:38
 * pciudg.x -m 19000   walltime   18:29:23
 * cipc.x           walltime    0:00:12
 * pciudg.x -m 19000   walltime   41:41:19
 * cipc.x           walltime    0:00:21
 * reindex.x        walltime    0:03:55
 * pciudg.x -m 19000   walltime    2:00:34
 * transci.x        walltime    0:02:20
 * transci.x        walltime    0:02:19
 * transci.x        walltime    0:02:19
 * transci.x        walltime    0:02:16
 * transci.x        walltime    0:02:16
 * transci.x        walltime    0:02:16
 * transci.x        walltime    0:04:18
 * transci.x        walltime    0:04:13
 * transci.x        walltime    0:04:24
 * transci.x        walltime    0:04:09
 * transci.x        walltime    0:04:10
 * transci.x        walltime    0:04:12
   exptvl.x       
   exptvl.x       
   exptvl.x       
   exptvl.x       
   exptvl.x       
   exptvl.x       
   exptvl.x       
   exptvl.x       
   mo_convert.x   
   mo_convert.x   
   mo_convert.x   
   mo_convert.x   
   mo_convert.x   
   mo_convert.x   
   mo_convert.x   
   mo_convert.x   
   mo_convert.x   
   mo_convert.x   
   mo_convert.x   
   mo_convert.x   
   mo_convert.x   
   mo_convert.x   
 * cidrt.x          walltime    0:00:07
 * tran.x           walltime    0:08:25
 * cigrd.x          walltime    0:10:04
 * tran.x           walltime    0:07:13
 * cigrd.x          walltime    0:10:46
 * tran.x           walltime    0:07:14
 * cigrd.x          walltime    0:09:59
 * tran.x           walltime    0:07:17
 * cigrd.x          walltime    0:10:25
 * tran.x           walltime    0:07:25
 * cigrd.x          walltime    0:10:41
 * tran.x           walltime    0:07:24
 * cigrd.x          walltime    0:10:10
 * tran.x           walltime    0:07:08
 * cigrd.x          walltime    0:10:48
 * tran.x           walltime    0:07:18
 * cigrd.x          walltime    0:11:03
 * tran.x           walltime    0:07:13
 * cigrd.x          walltime    0:10:05
 * tran.x           walltime    0:07:13
   tran.x         
   tdmrunfile.x   
 * cigrd.x          walltime    0:13:02
 * tran.x           walltime    0:06:58
   tran.x         
   tdmrunfile.x   
 * cigrd.x          walltime    0:10:38
 * tran.x           walltime    0:06:47
   tran.x         
   tdmrunfile.x   
 * cigrd.x          walltime    0:09:58
 * tran.x           walltime    0:06:58
   tran.x         
   tdmrunfile.x   
 * cigrd.x          walltime    0:12:37
 * tran.x           walltime    0:07:02
   tran.x         
   tdmrunfile.x   
 * cigrd.x          walltime    0:10:40
 * tran.x           walltime    0:07:01
   tran.x         
   tdmrunfile.x   
 * cigrd.x          walltime    0:13:29
 * tran.x           walltime    0:07:02
   tran.x         
   tdmrunfile.x   
 * cigrd.x          walltime    0:10:50
 * tran.x           walltime    0:07:03
   tran.x         
   tdmrunfile.x   
 * cigrd.x          walltime    0:10:26
 * tran.x           walltime    0:06:57
   tran.x         
   tdmrunfile.x   
 * cigrd.x          walltime    0:10:40
 * tran.x           walltime    0:07:00
   tran.x         
   tdmrunfile.x   
 * cigrd.x          walltime    0:12:58
 * tran.x           walltime    0:07:00
   tran.x         
   tdmrunfile.x   
 * cigrd.x          walltime    0:10:44
 * tran.x           walltime    0:07:09
   tran.x         
   tdmrunfile.x   

==========================================

