===========================================================
===                   runc                              ===
===           version 7.0.2 , April 2021              ===
===          requires COLUMBUS version Col_7.0.2        ===
===                                                     ===
===   written by: Thomas Mueller                        ===
===   gradient ext. by: Michal Dallos                   ===
===               University of Vienna                  ===
===   maintained by: Felix Plasser                      ===
===               Loughborough University               ===
===========================================================


coremem. (seq.): 200000 MB,  coremem. (par.): 19000 MB
Vdisk size: 0 DP
Reading job control file control.run ... 
 ****** This is an 2c-QDPT MRCISD calculation ****** 
 model space size=4:0:4
SMOLCAS=/home-4/yshen57@jhu.edu/Software/Chemistry/Columbus-7.0.2_OpenMolcas-18.09-col/OpenMolcas/build
Found serial Molcas Installation at /home-4/yshen57@jhu.edu/Software/Chemistry/Columbus-7.0.2_OpenMolcas-18.09-col/OpenMolcas/build
  done 
INFO: keywords nadcoupl and seward are supported for DCI mode only!
seward specified, using also alaska
Creating various directories ... 
 done 
SMOLCAS=/home-4/yshen57@jhu.edu/Software/Chemistry/Columbus-7.0.2_OpenMolcas-18.09-col/OpenMolcas/build
PMOLCAS=
Checking for illegal keywords and keyword combinations ... done 

 Nonadiabatic coupling term calculation type: DCI+DCSF
  States involved in calcualtion:
   DRT1,state1;  DRT1,state2
   DRT1,state1;  DRT1,state3
   DRT1,state1;  DRT1,state4
   DRT1,state2;  DRT1,state3
   DRT1,state2;  DRT1,state4
   DRT1,state3;  DRT1,state4
   DRT2,state1;  DRT2,state2
   DRT2,state1;  DRT2,state3
   DRT2,state1;  DRT2,state4
   DRT2,state2;  DRT2,state3
   DRT2,state2;  DRT2,state4
   DRT2,state3;  DRT2,state4

Additional gradients computed:
   DRT1,state1
   DRT1,state2
   DRT1,state3
   DRT1,state4
   DRT2,state1
   DRT2,state2
   DRT2,state3
   DRT2,state4

Checking for complete set of input files ... 
mcscf calculation without preceeding scf calculation 
will use 
 /scratch/users/yshen57@jhu.edu/Molcas/slow/1.2/mrci/mocoef as starting MOs 
Performing coupled non-rel. SO-CI calculation, nrroots: 4 0 4
starting cidrt.x   -m 200000 < cidrtin > temp at Fri May  6 22:26:23 EDT 2022

 -------------------- cidrt.x ------------------------
 spatial symmetry:  
 total number of configurations          0
 number of reference configurations     0
 --------------------------------------------------- 
 Preparing SO cidrtin files for 1 symmetries
cat ../cidrtin | sed -e 's/^.*input the molecular spatial symmetry/1 \/ molsym/' > cidrtin.so_A 
calling cidrt.x -m 200000 < cidrtin.so_A > cidrtls.soci_A ...
Checking the DRTs for consistency ...
calling reindex.x -i 1 -m 200000  ...
done

 ++++++++++++++++++ input file generation +++++++++++++ 
 runc start: Fri May  6 22:26:42 EDT 2022
 
  runc start: Fri May  6 22:26:42 EDT 2022
 
 starting unik.gets.x > unikls at Fri May  6 22:26:42 EDT 2022

 -------------------- unik.gets.x ------------------------
 --------------------------------------------------- 
 ++++++++++++++++++++ ao integral calculation ++++++++++++++++
starting pymolcas molcas.input.seward > molcas.output.seward  at Fri May  6 22:26:42 EDT 2022

Generating link ln -s ./molcas.OrdInt ORDINT 
 -------------------- seward ------------------------
      Basis set label: N.ANILINE.........
      Basis set label: C.ANILINE.........
      Basis set label: H.ANILINE.........
  Nuclear Coordinates in                   atomic units                                   Angstrom 
     Center  Label                x              y              z                     x              y              z
        1      N1              -4.466702       0.208789      -0.002190             -2.363677       0.110486      -0.001159
        2      C2              -1.767020      -0.021896      -0.008314             -0.935067      -0.011587      -0.004400
        3      C3              -0.424079      -0.002936      -2.275040             -0.224413      -0.001554      -1.203899
        4      C4              -0.431682      -0.020889       2.262849             -0.228436      -0.011054       1.197448
        5      C5               2.190896       0.002964      -2.258154              1.159372       0.001569      -1.194964
        6      C6               2.185798      -0.005430       2.256339              1.156674      -0.002873       1.194003
        7      C7               3.512445       0.004720       0.002140              1.858706       0.002497       0.001133
        8      H8              -5.248988      -1.039750      -1.725997             -2.777645      -0.550212      -0.913358
        9      H9              -5.170428      -0.727253       1.550010             -2.736073      -0.384846       0.820230
       10      H10             -1.427472       0.012191      -4.036905             -0.755386       0.006451      -2.136238
       11      H11             -1.437761      -0.032561       4.023941             -0.760830      -0.017231       2.129378
       12      H12              3.197717       0.007487      -4.020012              1.692159       0.003962      -2.127299
       13      H13              3.185851      -0.009853       4.022031              1.685880      -0.005214       2.128367
       14      H14              5.540483       0.009905       0.004636              2.931897       0.005241       0.002453
 
            Nuclear Potential Energy            271.33503087 au
 --------------------------------------------------- 
  >>>>>>>>>>>>> info: preparing drt no 1 out of 1 <<<<<<
starting mcdrt.x -m 200000 < mcdrtin > mcdrtls at Fri May  6 22:32:22 EDT 2022

 -------------------- mcdrt.x ------------------------
  Spin multiplicity: singlet 
  Spatial symmetry (#): 1
  Number of Configurations:       1275 
  --------------------------------------------------- 
 starting mcuft.x at Fri May  6 22:32:23 EDT 2022

 -------------------- mcuft.x ------------------------
 --------------------------------------------------- 
 ++++++++++++++++++++ MCSCF calculation +++++++++++++++
info: taking mocoef file from /scratch/users/yshen57@jhu.edu/Molcas/slow/1.2/mrci/mocoef
adding flag 30 to mcscfin
Writing mcdenin files for mcscf.x for 1 DRTs
adding flag 26 to mcscfin
starting mcscf.x -m 200000 at Fri May  6 22:32:23 EDT 2022

 -------------------- mcscf.x ------------------------
 Individual total energies for all states: 
    DRT #1 state # 1 wt 0.250 total energy=     -285.891599701, rel. (eV)=   0.000000
    DRT #1 state # 2 wt 0.250 total energy=     -285.661015397, rel. (eV)=   6.274521
    DRT #1 state # 3 wt 0.250 total energy=     -285.653224128, rel. (eV)=   6.486532
    DRT #1 state # 4 wt 0.250 total energy=     -285.611514318, rel. (eV)=   7.621514
  --------------------------------------------------- 
 starting mcpc.x -m 200000 < mcpcin > mcpcls at Fri May  6 22:35:23 EDT 2022

 -------------------- mcpc.x ------------------------
 --------------------------------------------------- 
 starting mcpc.x -m 200000 < mcpcin > mcpcls at Fri May  6 22:35:23 EDT 2022

 -------------------- mcpc.x ------------------------
 --------------------------------------------------- 
 starting mcpc.x -m 200000 < mcpcin > mcpcls at Fri May  6 22:35:23 EDT 2022

 -------------------- mcpc.x ------------------------
 --------------------------------------------------- 
 starting mcpc.x -m 200000 < mcpcin > mcpcls at Fri May  6 22:35:23 EDT 2022

 -------------------- mcpc.x ------------------------
 --------------------------------------------------- 
 
========= state properties for state-averaged MCSCF =========
mcscf.drt1.st01.sp
starting exptvl.x -m 200000   at Fri May  6 22:35:23 EDT 2022

 -------------------- exptvl.x ------------------------
  === dipole moment === 
                     X               Y               Z   
   orign x       0.00000000      0.00000000      0.00000000
   orign y       0.00000000      0.00000000      0.00000000
   orign z       0.00000000      0.00000000      0.00000000
   nuclear      -1.02936552     -0.57911204     -0.31870671
   electronic    0.72731815     -0.04398587      0.32597655
   total        -0.30204737     -0.62309791      0.00726984
   total Dipole moment =   1.76012488    Debye
 --------------------------------------------------- 
 mcscf.drt1.st02.sp
starting exptvl.x -m 200000   at Fri May  6 22:35:24 EDT 2022

 -------------------- exptvl.x ------------------------
  === dipole moment === 
                     X               Y               Z   
   orign x       0.00000000      0.00000000      0.00000000
   orign y       0.00000000      0.00000000      0.00000000
   orign z       0.00000000      0.00000000      0.00000000
   nuclear      -1.02936552     -0.57911204     -0.31870671
   electronic    4.80186930      0.05461539      0.43189155
   total         3.77250378     -0.52449665      0.11318484
   total Dipole moment =   9.68526189    Debye
 --------------------------------------------------- 
 mcscf.drt1.st03.sp
starting exptvl.x -m 200000   at Fri May  6 22:35:24 EDT 2022

 -------------------- exptvl.x ------------------------
  === dipole moment === 
                     X               Y               Z   
   orign x       0.00000000      0.00000000      0.00000000
   orign y       0.00000000      0.00000000      0.00000000
   orign z       0.00000000      0.00000000      0.00000000
   nuclear      -1.02936552     -0.57911204     -0.31870671
   electronic    0.62941919      0.02352826      0.31933926
   total        -0.39994633     -0.55558378      0.00063255
   total Dipole moment =   1.73999531    Debye
 --------------------------------------------------- 
 mcscf.drt1.st04.sp
starting exptvl.x -m 200000   at Fri May  6 22:35:24 EDT 2022

 -------------------- exptvl.x ------------------------
  === dipole moment === 
                     X               Y               Z   
   orign x       0.00000000      0.00000000      0.00000000
   orign y       0.00000000      0.00000000      0.00000000
   orign z       0.00000000      0.00000000      0.00000000
   nuclear      -1.02936552     -0.57911204     -0.31870671
   electronic    6.02926489     -0.01201918      0.40285013
   total         4.99989937     -0.59113122      0.08414342
   total Dipole moment =  12.79878774    Debye
 --------------------------------------------------- 
  using the MCSCF MOs ... 
starting cidrt.x  -m 200000 < cidrtin.1 > cidrtls at Fri May  6 22:35:24 EDT 2022

 -------------------- cidrt.x ------------------------
 total number of orbitals            :   246
 number of frozen core orbitals      :    18
 number of frozen virtual orbitals   :     0
 number of internal orbitals         :    14
 number of external orbitals         :   214
 spatial symmetry:   a  
 
 total number of configurations  158587185
 number of reference configurations  1275
 --------------------------------------------------- 
 starting cidrt.x  -m 200000 < cidrtin.2 > cidrtls at Fri May  6 22:35:26 EDT 2022

 -------------------- cidrt.x ------------------------
 total number of orbitals            :   246
 number of frozen core orbitals      :    18
 number of frozen virtual orbitals   :     0
 number of internal orbitals         :    14
 number of external orbitals         :   214
 spatial symmetry:   a  
 
 total number of configurations  282461366
 number of reference configurations  1666
 --------------------------------------------------- 
 starting tran.x -m 200000  at Fri May  6 22:35:30 EDT 2022

 -------------------- tran.x ------------------------
 --------------------------------------------------- 
  Starting ciudgav with DRT # 1 out of 2 

 *** starting pciudg section *** 
nproc: 48 machinefile:  
assuming machinefile syntax: one host name per line optionally repeated
 section2, MPI_STARTUP:
 /software/apps/mpi/openmpi/3.1/intel/18.0/bin/mpirun -np 48  /home-4/yshen57@jhu.edu/Software/Chemistry/Columbus-7.0.2_OpenMolcas-18.09-col/Columbus/pciudg.x -m 19000 
 -------------------- pciudg.x ------------------------
 type of calculation:          mr-sdci
 number of configurations:     158587185
 total mr-sdci energy             -286.0909633573 
 last mr-sdci energy change           0.0000000000 
 residual                             0.0000088274 
  type of calculation:          mr-sdci
 number of configurations:     158587185
 total mr-sdci energy             -285.9041568419 
 last mr-sdci energy change           0.0000000000 
 residual                             0.0000079431 
  type of calculation:          mr-sdci
 number of configurations:     158587185
 total mr-sdci energy             -285.9001780731 
 last mr-sdci energy change           0.0000000000 
 residual                             0.0000061969 
  type of calculation:          mr-sdci
 number of configurations:     158587185
 total mr-sdci energy             -285.8525955655 
 last mr-sdci energy change           0.0000000252 
 residual                             0.0002253200 
  --------------------------------------------------- 
 keyinfile returned docipci=0:
starting cipc.x -m 200000 < cipcin > cipcls at Sat May  7 14:20:01 EDT 2022

 -------------------- cipc.x ------------------------
 --------------------------------------------------- 
  Starting ciudgav with DRT # 2 out of 2 

 *** starting pciudg section *** 
nproc: 48 machinefile:  
assuming machinefile syntax: one host name per line optionally repeated
 section2, MPI_STARTUP:
 /software/apps/mpi/openmpi/3.1/intel/18.0/bin/mpirun -np 48  /home-4/yshen57@jhu.edu/Software/Chemistry/Columbus-7.0.2_OpenMolcas-18.09-col/Columbus/pciudg.x -m 19000 
 -------------------- pciudg.x ------------------------
 type of calculation:          mr-sdci
 number of configurations:     282461366
 total mr-sdci energy             -285.9352302188 
 last mr-sdci energy change           0.0000000000 
 residual                             0.0000072323 
  type of calculation:          mr-sdci
 number of configurations:     282461366
 total mr-sdci energy             -285.9127488404 
 last mr-sdci energy change           0.0000000000 
 residual                             0.0000099586 
  type of calculation:          mr-sdci
 number of configurations:     282461366
 total mr-sdci energy             -285.9088891456 
 last mr-sdci energy change           0.0000000000 
 residual                             0.0000072910 
  type of calculation:          mr-sdci
 number of configurations:     282461366
 total mr-sdci energy             -285.9031050199 
 last mr-sdci energy change           0.0000000002 
 residual                             0.0000214300 
  --------------------------------------------------- 
 keyinfile returned docipci=0:
starting cipc.x -m 200000 < cipcin > cipcls at Mon May  9 03:08:27 EDT 2022

 -------------------- cipc.x ------------------------
 --------------------------------------------------- 
 Reindex call
run_socinr: imult=1 irrep=1 
opening file =ciudgls.drt1.sp
opening file =ciudgls.drt1.sp
opening file =ciudgls.drt1.sp
opening file =ciudgls.drt1.sp
run_socinr: imult=3 irrep=1 
opening file =ciudgls.drt2.sp
opening file =ciudgls.drt2.sp
opening file =ciudgls.drt2.sp
opening file =ciudgls.drt2.sp
 copying /scratch/users/yshen57@jhu.edu/Molcas/slow/1.2/mrci/cidrtfl.so__A --> cidrtfl.so__A 
 copying /scratch/users/yshen57@jhu.edu/Molcas/slow/1.2/mrci/cidrtfl.so__A --> cidrtfl.so__A 
starting reindex.x -m 200000 > reindexls at Mon May  9 03:08:40 EDT 2022

 -------------------- reindex.x ------------------------
 --------------------------------------------------- 
 1      1        1           civfl_1_A             1      1    0+       1             1         civfl.so__A
1      1        2           civfl_1_A             1      1    0+       2    1005971284         civfl.so__A
1      1        3           civfl_1_A             1      1    0+       3    2011942567         civfl.so__A
1      1        4           civfl_1_A             1      1    0+       4    3017913850         civfl.so__A
3      1        1           civfl_3_A             1      3    0+       5    4023885133         civfl.so__A
3      1        1           civfl_3_A             1      3    1+       6    5029856416         civfl.so__A
3      1        1           civfl_3_A             1      3    1-       7    6035827699         civfl.so__A
3      1        2           civfl_3_A             1      3    0+       8    7041798982         civfl.so__A
3      1        2           civfl_3_A             1      3    1+       9    8047770265         civfl.so__A
3      1        2           civfl_3_A             1      3    1-      10    9053741548         civfl.so__A
3      1        3           civfl_3_A             1      3    0+      11   10059712831         civfl.so__A
3      1        3           civfl_3_A             1      3    1+      12   11065684114         civfl.so__A
3      1        3           civfl_3_A             1      3    1-      13   12071655397         civfl.so__A
3      1        4           civfl_3_A             1      3    0+      14   13077626680         civfl.so__A
3      1        4           civfl_3_A             1      3    1+      15   14083597963         civfl.so__A
3      1        4           civfl_3_A             1      3    1-      16   15089569246         civfl.so__A
 Executing ciudg.x  for gamma =A ...

 *** starting pciudg section *** 
nproc: 48 machinefile:  
assuming machinefile syntax: one host name per line optionally repeated
 section2, MPI_STARTUP:
 /software/apps/mpi/openmpi/3.1/intel/18.0/bin/mpirun -np 48  /home-4/yshen57@jhu.edu/Software/Chemistry/Columbus-7.0.2_OpenMolcas-18.09-col/Columbus/pciudg.x -m 19000 
 -------------------- pciudg.x ------------------------
 type of calculation:          mr-sdci
 number of configurations:     1005971283
 total mr-sdci energy             -286.0909633644 
 last mr-sdci energy change           0.0000000071 
 residual                            35.5790000000 
  type of calculation:          mr-sdci
 number of configurations:     1005971283
 total mr-sdci energy             -285.9352302252 
 last mr-sdci energy change           0.0310730000 
 residual                            35.4230000000 
  type of calculation:          mr-sdci
 number of configurations:     1005971283
 total mr-sdci energy             -285.9352302249 
 last mr-sdci energy change           0.0350520000 
 residual                            35.4230000000 
  type of calculation:          mr-sdci
 number of configurations:     1005971283
 total mr-sdci energy             -285.9352302238 
 last mr-sdci energy change           0.0826350000 
 residual                            35.4230000000 
  type of calculation:          mr-sdci
 number of configurations:     1005971283
 total mr-sdci energy             -285.9127488455 
 last mr-sdci energy change          -0.0224810000 
 residual                            35.4000000000 
  type of calculation:          mr-sdci
 number of configurations:     1005971283
 total mr-sdci energy             -285.9127488444 
 last mr-sdci energy change          -0.0224810000 
 residual                            35.4000000000 
  type of calculation:          mr-sdci
 number of configurations:     1005971283
 total mr-sdci energy             -285.9127488416 
 last mr-sdci energy change          -0.0224810000 
 residual                            35.4000000000 
  type of calculation:          mr-sdci
 number of configurations:     1005971283
 total mr-sdci energy             -285.9088891481 
 last mr-sdci energy change          -0.0038597000 
 residual                            35.3960000000 
  type of calculation:          mr-sdci
 number of configurations:     1005971283
 total mr-sdci energy             -285.9088891465 
 last mr-sdci energy change          -0.0038597000 
 residual                            35.3960000000 
  type of calculation:          mr-sdci
 number of configurations:     1005971283
 total mr-sdci energy             -285.9088891434 
 last mr-sdci energy change          -0.0038597000 
 residual                            35.3960000000 
  type of calculation:          mr-sdci
 number of configurations:     1005971283
 total mr-sdci energy             -285.9041568633 
 last mr-sdci energy change          -0.0047323000 
 residual                            35.3920000000 
  type of calculation:          mr-sdci
 number of configurations:     1005971283
 total mr-sdci energy             -285.9031050135 
 last mr-sdci energy change          -0.0057841000 
 residual                            35.3910000000 
  type of calculation:          mr-sdci
 number of configurations:     1005971283
 total mr-sdci energy             -285.9031050090 
 last mr-sdci energy change          -0.0057841000 
 residual                            35.3910000000 
  type of calculation:          mr-sdci
 number of configurations:     1005971283
 total mr-sdci energy             -285.9031049870 
 last mr-sdci energy change          -0.0000000329 
 residual                            35.3910000000 
  type of calculation:          mr-sdci
 number of configurations:     1005971283
 total mr-sdci energy             -285.9001780672 
 last mr-sdci energy change          -0.0029270000 
 residual                            35.3880000000 
  type of calculation:          mr-sdci
 number of configurations:     1005971283
 total mr-sdci energy             -285.8525955640 
 last mr-sdci energy change          -0.0505090000 
 residual                            35.3400000000 
  --------------------------------------------------- 
 ************* Results for Spin-Orbit CI gamma=A **************** 
Final spin-orbit CI state energies: 


-------------- HT matrix in AU ----------------  
-35.578550    
 0.000000    -35.391743    
 0.000000     0.000000    -35.387764    
 0.000000     0.000000     0.000000    -35.340182    
 0.000009     0.000011    -0.000004    -0.000000    -35.422817    
-0.000001    -0.000001    -0.000001     0.000000    -0.000000    -35.422817    
-0.000006    -0.000007    -0.000001     0.000002     0.000000     0.000000    -35.422817    
 0.000010    -0.000001     0.000000    -0.000007     0.000000    -0.000003     0.000001    -35.400335    
-0.000003     0.000001    -0.000001     0.000001     0.000003     0.000000     0.000004     0.000000    -35.400335    
-0.000013    -0.000003     0.000003     0.000001    -0.000001    -0.000004     0.000000    -0.000000     0.000000    -35.400335    
 0.000020     0.000003    -0.000001     0.000003     0.000000    -0.000003     0.000000     0.000000     0.000000    -0.000002    -35.396475    
-0.000002    -0.000001    -0.000001     0.000001     0.000003     0.000000     0.000007    -0.000000     0.000000    -0.000002     0.000000    -35.396475    
-0.000011     0.000000     0.000003    -0.000004    -0.000000    -0.000007     0.000000     0.000002     0.000002     0.000000     0.000000    -0.000000    -35.396475    
-0.000016     0.000005    -0.000003    -0.000002     0.000000     0.000004    -0.000000     0.000000     0.000005     0.000000     0.000000     0.000001    -0.000000    -35.390691    
 0.000002     0.000000     0.000001     0.000001    -0.000004     0.000000    -0.000008    -0.000005     0.000000    -0.000002    -0.000001     0.000000    -0.000005    -0.000000    -35.390691    
 0.000009    -0.000003    -0.000001     0.000001     0.000000     0.000008     0.000000    -0.000000     0.000002     0.000000     0.000000     0.000005     0.000000    -0.000000     0.000000    -35.390691    
-------------- HT matrix in eV ---------------- 
 -968.142   
    0.000    -963.058   
    0.000       0.000    -962.950   
    0.000       0.000       0.000    -961.655   
    0.000       0.000      -0.000      -0.000    -963.904   
   -0.000      -0.000      -0.000       0.000      -0.000    -963.904   
   -0.000      -0.000      -0.000       0.000       0.000       0.000    -963.904   
    0.000      -0.000       0.000      -0.000       0.000      -0.000       0.000    -963.292   
   -0.000       0.000      -0.000       0.000       0.000       0.000       0.000       0.000    -963.292   
   -0.000      -0.000       0.000       0.000      -0.000      -0.000       0.000      -0.000       0.000    -963.292   
    0.001       0.000      -0.000       0.000       0.000      -0.000       0.000       0.000       0.000      -0.000    -963.187   
   -0.000      -0.000      -0.000       0.000       0.000       0.000       0.000      -0.000       0.000      -0.000       0.000    -963.187   
   -0.000       0.000       0.000      -0.000      -0.000      -0.000       0.000       0.000       0.000       0.000       0.000      -0.000    -963.187   
   -0.000       0.000      -0.000      -0.000       0.000       0.000      -0.000       0.000       0.000       0.000       0.000       0.000      -0.000    -963.030   
    0.000       0.000       0.000       0.000      -0.000       0.000      -0.000      -0.000       0.000      -0.000      -0.000       0.000      -0.000      -0.000    -963.030   
    0.000      -0.000      -0.000       0.000       0.000       0.000       0.000      -0.000       0.000       0.000       0.000       0.000       0.000      -0.000       0.000    -963.030   
-------------- HT matrix in cm-1 ------------------- 
Eref = -35.57854970
     0.00   
     0.00    40999.36   
     0.00        0.00    41872.60   
     0.00        0.00        0.00    52315.77   
     1.91        2.44       -0.79       -0.04    34179.53   
    -0.28       -0.30       -0.29        0.00        0.00    34179.53   
    -1.33       -1.46       -0.15        0.53        0.00        0.00    34179.53   
     2.25       -0.20        0.06       -1.43        0.00       -0.56        0.24    39113.63   
    -0.73        0.25       -0.20        0.12        0.56        0.00        0.89        0.00    39113.63   
    -2.94       -0.58        0.66        0.32       -0.24       -0.89        0.00        0.00        0.00    39113.63   
     4.35        0.62       -0.22        0.65        0.00       -0.74        0.04        0.00        0.00       -0.44    39960.74   
    -0.43       -0.22       -0.15        0.13        0.74        0.00        1.60        0.00        0.00       -0.54        0.00    39960.74   
    -2.43        0.02        0.67       -0.95       -0.04       -1.60        0.00        0.44        0.54        0.00        0.00        0.00    39960.74   
    -3.60        1.05       -0.58       -0.50        0.00        0.83       -0.09        0.00        1.16        0.02        0.00        0.26       -0.04    41230.21   
     0.37        0.05        0.20        0.15       -0.83        0.00       -1.81       -1.16        0.00       -0.36       -0.26        0.00       -1.18        0.00    41230.21   
     2.01       -0.64       -0.32        0.25        0.09        1.81        0.00       -0.02        0.36        0.00        0.04        1.18        0.00        0.00        0.00    41230.21   


Spin-Orbit CI: perturbational estimate of Spin-Orbit CI energies and wavefunctions 
                SO   1         SO   2         SO   3         SO   4         SO   5         SO   6         SO   7         SO   8

   energy  -286.09096336  -285.93523023  -285.93523022  -285.93523022  -285.91274885  -285.91274884  -285.91274884  -285.90888915
 
   NR   1     0.99999998     0.00002115    -0.00000287     0.00006510     0.00001238     0.00001692    -0.00009410     0.00002068
   NR   2     0.00000000    -0.00010080     0.00001352    -0.00040627     0.00010675    -0.00031453     0.00011200    -0.00040690
   NR   3    -0.00000000    -0.00006090    -0.00002077     0.00009053    -0.00005456     0.00020504    -0.00013429    -0.00019099
   NR   4     0.00000000     0.00002539    -0.00001038     0.00001071     0.00007370    -0.00001965    -0.00008160     0.00002621
   NR   5    -0.00005574    -0.29177587     0.06866273     0.95401891     0.00004468     0.00011500     0.00001046    -0.00010252
   NR   6     0.00000816    -0.36966249    -0.92801340    -0.04626602    -0.00014631     0.00013930    -0.00006865    -0.00018742
   NR   7     0.00003899    -0.88216566     0.36616435    -0.29615399     0.00013316     0.00012278     0.00004585    -0.00021196
   NR   8    -0.00005746     0.00000080    -0.00012360     0.00000913     0.79229030    -0.25763308    -0.55308287     0.00026040
   NR   9     0.00001876     0.00019239    -0.00007389    -0.00005530     0.52485859     0.75001455     0.40249327     0.00031497
   NR  10     0.00007515    -0.00008089    -0.00016406     0.00003814     0.31112462    -0.60918189     0.72945048     0.00028562
   NR  11    -0.00010896    -0.00004079    -0.00012092    -0.00000376     0.00016188    -0.00031914     0.00038126     0.39021655
   NR  12     0.00001084     0.00028169    -0.00011032    -0.00003951     0.00019745    -0.00038531     0.00046036    -0.77476142
   NR  13     0.00006082    -0.00010462    -0.00025671    -0.00000592    -0.00074538    -0.00033946     0.00003420     0.49746800
   NR  14     0.00008717     0.00003239     0.00011435     0.00000179    -0.00029075    -0.00040727    -0.00022698     0.00017568
   NR  15    -0.00000900    -0.00026144     0.00010223     0.00003654     0.00048757    -0.00024445    -0.00018067     0.00054482
   NR  16    -0.00004887     0.00009875     0.00023788    -0.00000033    -0.00008256    -0.00012849    -0.00007220     0.00071072

                SO   9         SO  10         SO  11         SO  12         SO  13         SO  14         SO  15         SO  16

   energy  -285.90888915  -285.90888914  -285.90415686  -285.90310501  -285.90310501  -285.90310499  -285.90017807  -285.85259556
 
   NR   1     0.00005840     0.00010889     0.00000063    -0.00001303    -0.00001451    -0.00009843    -0.00000001     0.00000000
   NR   2    -0.00009863    -0.00047379     0.99998550     0.00034716     0.00012602     0.00530763     0.00000118    -0.00000001
   NR   3     0.00025646     0.00020363    -0.00000132     0.00097292     0.00012945     0.00043493    -0.99999931    -0.00000000
   NR   4    -0.00006018    -0.00006698    -0.00000028     0.00001047     0.00001548     0.00004870    -0.00000000     0.99999999
   NR   5    -0.00006225     0.00004398     0.00035732     0.00003785     0.00011141    -0.00001519     0.00010279    -0.00000209
   NR   6     0.00023264    -0.00006186    -0.00004335     0.00027001    -0.00006961    -0.00004880     0.00003796     0.00000027
   NR   7    -0.00014837     0.00009960    -0.00021411     0.00005306     0.00025002    -0.00003275     0.00001941     0.00002937
   NR   8    -0.00043955    -0.00010443    -0.00010354     0.00012244     0.00053433    -0.00004149    -0.00002179    -0.00010863
   NR   9    -0.00053339    -0.00012580     0.00013278     0.00044517    -0.00007691     0.00035593     0.00007144     0.00000882
   NR  10     0.00033279    -0.00069307    -0.00030668     0.00004363     0.00016303    -0.00000870    -0.00023988     0.00002459
   NR  11     0.01169806     0.92064840     0.00059609     0.00007137     0.00019446    -0.00003132     0.00011590     0.00005215
   NR  12    -0.53608618     0.33519382    -0.00020786     0.00085368    -0.00023603    -0.00035776     0.00007922     0.00001051
   NR  13    -0.84408124    -0.20012669     0.00002466     0.00020184     0.00090534    -0.00009979    -0.00035199    -0.00007720
   NR  14     0.00008754    -0.00007457    -0.00454334     0.56770788    -0.06741868     0.82045150     0.00090038    -0.00004487
   NR  15    -0.00078497     0.00000470    -0.00023286    -0.23380670    -0.96880381     0.08217138    -0.00031749     0.00001334
   NR  16     0.00049911    -0.00033947     0.00275905     0.78932886    -0.23847969    -0.56575486     0.00049092     0.00002297
rescaling new expansion vector ... old norm=   4300.7474372147

 model space basis from reindexls .. 
 --SO-CI-------         -----NR-CI-------             ---model space---- 
 Gamma  root             S   irrep   root                S   ms* 
A          1             1   A         1                 1   0+
A          2             1   A         2                 1   0+
A          3             1   A         3                 1   0+
A          4             1   A         4                 1   0+
A          5             3   A         1                 3   0+
A          6             3   A         1                 3   1+
A          7             3   A         1                 3   1-
A          8             3   A         2                 3   0+
A          9             3   A         2                 3   1+
A         10             3   A         2                 3   1-
A         11             3   A         3                 3   0+
A         12             3   A         3                 3   1+
A         13             3   A         3                 3   1-
A         14             3   A         4                 3   0+
A         15             3   A         4                 3   1+
A         16             3   A         4                 3   1-

************************** SUMMARY *********************************

--------------  SO matrix for irrep A in eV ---------------- 
|1,0+;1,A,1>  -968.142   
|1,0+;1,A,2>     0.000    -963.058   
|1,0+;1,A,3>     0.000       0.000    -962.950   
|1,0+;1,A,4>     0.000       0.000       0.000    -961.655   
|3,0+;3,A,1>     0.000       0.000      -0.000      -0.000    -963.904   
|3,1+;3,A,1>    -0.000      -0.000      -0.000       0.000      -0.000    -963.904   
|3,1-;3,A,1>    -0.000      -0.000      -0.000       0.000       0.000       0.000    -963.904   
|3,0+;3,A,2>     0.000      -0.000       0.000      -0.000       0.000      -0.000       0.000    -963.292   
|3,1+;3,A,2>    -0.000       0.000      -0.000       0.000       0.000       0.000       0.000       0.000    -963.292   
|3,1-;3,A,2>    -0.000      -0.000       0.000       0.000      -0.000      -0.000       0.000      -0.000       0.000    -963.292   
|3,0+;3,A,3>     0.001       0.000      -0.000       0.000       0.000      -0.000       0.000       0.000       0.000      -0.000    -963.187   
|3,1+;3,A,3>    -0.000      -0.000      -0.000       0.000       0.000       0.000       0.000      -0.000       0.000      -0.000       0.000    -963.187   
|3,1-;3,A,3>    -0.000       0.000       0.000      -0.000      -0.000      -0.000       0.000       0.000       0.000       0.000       0.000      -0.000    -963.187   
|3,0+;3,A,4>    -0.000       0.000      -0.000      -0.000       0.000       0.000      -0.000       0.000       0.000       0.000       0.000       0.000      -0.000    -963.030   
|3,1+;3,A,4>     0.000       0.000       0.000       0.000      -0.000       0.000      -0.000      -0.000       0.000      -0.000      -0.000       0.000      -0.000      -0.000    -963.030   
|3,1-;3,A,4>     0.000      -0.000      -0.000       0.000       0.000       0.000       0.000      -0.000       0.000       0.000       0.000       0.000       0.000      -0.000       0.000    -963.030   

--------------  SO matrix for irrep A in cm-1 ------------------- 
Eref = -35.57854970
|1,0+;1,A,1>      0.00   
|1,0+;1,A,2>      0.00    40999.36   
|1,0+;1,A,3>      0.00        0.00    41872.60   
|1,0+;1,A,4>      0.00        0.00        0.00    52315.77   
|3,0+;3,A,1>      1.91        2.44       -0.79       -0.04    34179.53   
|3,1+;3,A,1>     -0.28       -0.30       -0.29        0.00        0.00    34179.53   
|3,1-;3,A,1>     -1.33       -1.46       -0.15        0.53        0.00        0.00    34179.53   
|3,0+;3,A,2>      2.25       -0.20        0.06       -1.43        0.00       -0.56        0.24    39113.63   
|3,1+;3,A,2>     -0.73        0.25       -0.20        0.12        0.56        0.00        0.89        0.00    39113.63   
|3,1-;3,A,2>     -2.94       -0.58        0.66        0.32       -0.24       -0.89        0.00        0.00        0.00    39113.63   
|3,0+;3,A,3>      4.35        0.62       -0.22        0.65        0.00       -0.74        0.04        0.00        0.00       -0.44    39960.74   
|3,1+;3,A,3>     -0.43       -0.22       -0.15        0.13        0.74        0.00        1.60        0.00        0.00       -0.54        0.00    39960.74   
|3,1-;3,A,3>     -2.43        0.02        0.67       -0.95       -0.04       -1.60        0.00        0.44        0.54        0.00        0.00        0.00    39960.74   
|3,0+;3,A,4>     -3.60        1.05       -0.58       -0.50        0.00        0.83       -0.09        0.00        1.16        0.02        0.00        0.26       -0.04    41230.21   
|3,1+;3,A,4>      0.37        0.05        0.20        0.15       -0.83        0.00       -1.81       -1.16        0.00       -0.36       -0.26        0.00       -1.18        0.00    41230.21   
|3,1-;3,A,4>      2.01       -0.64       -0.32        0.25        0.09        1.81        0.00       -0.02        0.36        0.00        0.04        1.18        0.00        0.00        0.00    41230.21   


 ** perturbational estimate of Spin-Orbit CI energies and wavefunctions in model space basis** 

                      A  1         A  2         A  3         A  4         A  5         A  6         A  7         A  8

            energy  -286.09096336  -285.93523023  -285.93523022  -285.93523022  -285.91274885  -285.91274884  -285.91274884  -285.90888915
          
   |1,0+;1,A,1>     0.99999998     0.00002115    -0.00000287     0.00006510     0.00001238     0.00001692    -0.00009410     0.00002068
   |1,0+;1,A,2>     0.00000000    -0.00010080     0.00001352    -0.00040627     0.00010675    -0.00031453     0.00011200    -0.00040690
   |1,0+;1,A,3>    -0.00000000    -0.00006090    -0.00002077     0.00009053    -0.00005456     0.00020504    -0.00013429    -0.00019099
   |1,0+;1,A,4>     0.00000000     0.00002539    -0.00001038     0.00001071     0.00007370    -0.00001965    -0.00008160     0.00002621
   |3,0+;3,A,1>    -0.00005574    -0.29177587     0.06866273     0.95401891     0.00004468     0.00011500     0.00001046    -0.00010252
   |3,1+;3,A,1>     0.00000816    -0.36966249    -0.92801340    -0.04626602    -0.00014631     0.00013930    -0.00006865    -0.00018742
   |3,1-;3,A,1>     0.00003899    -0.88216566     0.36616435    -0.29615399     0.00013316     0.00012278     0.00004585    -0.00021196
   |3,0+;3,A,2>    -0.00005746     0.00000080    -0.00012360     0.00000913     0.79229030    -0.25763308    -0.55308287     0.00026040
   |3,1+;3,A,2>     0.00001876     0.00019239    -0.00007389    -0.00005530     0.52485859     0.75001455     0.40249327     0.00031497
   |3,1-;3,A,2>     0.00007515    -0.00008089    -0.00016406     0.00003814     0.31112462    -0.60918189     0.72945048     0.00028562
   |3,0+;3,A,3>    -0.00010896    -0.00004079    -0.00012092    -0.00000376     0.00016188    -0.00031914     0.00038126     0.39021655
   |3,1+;3,A,3>     0.00001084     0.00028169    -0.00011032    -0.00003951     0.00019745    -0.00038531     0.00046036    -0.77476142
   |3,1-;3,A,3>     0.00006082    -0.00010462    -0.00025671    -0.00000592    -0.00074538    -0.00033946     0.00003420     0.49746800
   |3,0+;3,A,4>     0.00008717     0.00003239     0.00011435     0.00000179    -0.00029075    -0.00040727    -0.00022698     0.00017568
   |3,1+;3,A,4>    -0.00000900    -0.00026144     0.00010223     0.00003654     0.00048757    -0.00024445    -0.00018067     0.00054482
   |3,1-;3,A,4>    -0.00004887     0.00009875     0.00023788    -0.00000033    -0.00008256    -0.00012849    -0.00007220     0.00071072

                      A  9         A 10         A 11         A 12         A 13         A 14         A 15         A 16

            energy  -285.90888915  -285.90888914  -285.90415686  -285.90310501  -285.90310501  -285.90310499  -285.90017807  -285.85259556
          
   |1,0+;1,A,1>     0.00005840     0.00010889     0.00000063    -0.00001303    -0.00001451    -0.00009843    -0.00000001     0.00000000
   |1,0+;1,A,2>    -0.00009863    -0.00047379     0.99998550     0.00034716     0.00012602     0.00530763     0.00000118    -0.00000001
   |1,0+;1,A,3>     0.00025646     0.00020363    -0.00000132     0.00097292     0.00012945     0.00043493    -0.99999931    -0.00000000
   |1,0+;1,A,4>    -0.00006018    -0.00006698    -0.00000028     0.00001047     0.00001548     0.00004870    -0.00000000     0.99999999
   |3,0+;3,A,1>    -0.00006225     0.00004398     0.00035732     0.00003785     0.00011141    -0.00001519     0.00010279    -0.00000209
   |3,1+;3,A,1>     0.00023264    -0.00006186    -0.00004335     0.00027001    -0.00006961    -0.00004880     0.00003796     0.00000027
   |3,1-;3,A,1>    -0.00014837     0.00009960    -0.00021411     0.00005306     0.00025002    -0.00003275     0.00001941     0.00002937
   |3,0+;3,A,2>    -0.00043955    -0.00010443    -0.00010354     0.00012244     0.00053433    -0.00004149    -0.00002179    -0.00010863
   |3,1+;3,A,2>    -0.00053339    -0.00012580     0.00013278     0.00044517    -0.00007691     0.00035593     0.00007144     0.00000882
   |3,1-;3,A,2>     0.00033279    -0.00069307    -0.00030668     0.00004363     0.00016303    -0.00000870    -0.00023988     0.00002459
   |3,0+;3,A,3>     0.01169806     0.92064840     0.00059609     0.00007137     0.00019446    -0.00003132     0.00011590     0.00005215
   |3,1+;3,A,3>    -0.53608618     0.33519382    -0.00020786     0.00085368    -0.00023603    -0.00035776     0.00007922     0.00001051
   |3,1-;3,A,3>    -0.84408124    -0.20012669     0.00002466     0.00020184     0.00090534    -0.00009979    -0.00035199    -0.00007720
   |3,0+;3,A,4>     0.00008754    -0.00007457    -0.00454334     0.56770788    -0.06741868     0.82045150     0.00090038    -0.00004487
   |3,1+;3,A,4>    -0.00078497     0.00000470    -0.00023286    -0.23380670    -0.96880381     0.08217138    -0.00031749     0.00001334
   |3,1-;3,A,4>     0.00049911    -0.00033947     0.00275905     0.78932886    -0.23847969    -0.56575486     0.00049092     0.00002297
rescaling new expansion vector ... old norm=   4300.7474372147

Sorted Energies:
1  -286.09096336 
2  -285.93523023 
3  -285.93523022 
4  -285.93523022 
5  -285.91274885 
6  -285.91274884 
7  -285.91274884 
8  -285.90888915 
9  -285.90888915 
10  -285.90888914 
11  -285.90415686 
12  -285.90310501 
13  -285.90310501 
14  -285.90310499 
15  -285.90017807 
16  -285.85259556 
Not computing transition moment with identical bra and ket.
 Calculating transition moment for (1,1) => (1,2)
 starting transci.x -m 200000 at Mon May  9 05:08:36 EDT 2022

 -------------------- transci.x ------------------------

                          State No. 1            State No. 2

   Space symmetry:           a                      a   
   No. of CSFs:          ********               ********
   State energies:      -286.09096336          -285.90415684  a.u.

   Transition energy:     0.18680652  a.u.
   Transition energy:     5.08        eV

       Transition moment components:

                 x            y            z

electron          0.203094     0.099682    -0.065479  e*bohr
frozen core       0.000000     0.000000     0.000000  e*bohr
total (elec)      0.203094     0.099682    -0.065479  e*bohr


   Tr.dipole length:     0.235523    e*bohr
   Oscillator strength :  0.006908
   Einstein A coef.:     0.7745E+07  1/sec
   Einstein B coef.:     0.2251E+08  sec/g

                 x            y            z

<L> electron     0.070031     0.273029    -0.408646  e*bohr


   <L> value length:     0.496428    e*bohr
 --------------------------------------------------- 
  Calculating transition moment for (1,1) => (1,3)
 starting transci.x -m 200000 at Mon May  9 05:10:58 EDT 2022

 -------------------- transci.x ------------------------

                          State No. 1            State No. 2

   Space symmetry:           a                      a   
   No. of CSFs:          ********               ********
   State energies:      -286.09096336          -285.90017807  a.u.

   Transition energy:     0.19078528  a.u.
   Transition energy:     5.19        eV

       Transition moment components:

                 x            y            z

electron         -0.046810    -0.032510    -0.241458  e*bohr
frozen core       0.000000     0.000000     0.000000  e*bohr
total (elec)     -0.046810    -0.032510    -0.241458  e*bohr


   Tr.dipole length:     0.248093    e*bohr
   Oscillator strength :  0.007829
   Einstein A coef.:     0.9155E+07  1/sec
   Einstein B coef.:     0.2498E+08  sec/g

                 x            y            z

<L> electron     0.005471     0.377100     0.164196  e*bohr


   <L> value length:     0.411332    e*bohr
 --------------------------------------------------- 
  Calculating transition moment for (1,1) => (1,4)
 starting transci.x -m 200000 at Mon May  9 05:13:18 EDT 2022

 -------------------- transci.x ------------------------

                          State No. 1            State No. 2

   Space symmetry:           a                      a   
   No. of CSFs:          ********               ********
   State energies:      -286.09096336          -285.85259557  a.u.

   Transition energy:     0.23836779  a.u.
   Transition energy:     6.49        eV

       Transition moment components:

                 x            y            z

electron         -0.076951    -0.004867     0.094661  e*bohr
frozen core       0.000000     0.000000     0.000000  e*bohr
total (elec)     -0.076951    -0.004867     0.094661  e*bohr


   Tr.dipole length:     0.122090    e*bohr
   Oscillator strength :  0.002369
   Einstein A coef.:     0.4324E+07  1/sec
   Einstein B coef.:     0.6049E+07  sec/g

                 x            y            z

<L> electron     0.436218    -0.117273     0.018038  e*bohr


   <L> value length:     0.452067    e*bohr
 --------------------------------------------------- 
 Not computing transition moment with identical bra and ket.
 Calculating transition moment for (1,2) => (1,3)
 starting transci.x -m 200000 at Mon May  9 05:15:39 EDT 2022

 -------------------- transci.x ------------------------

                          State No. 1            State No. 2

   Space symmetry:           a                      a   
   No. of CSFs:          ********               ********
   State energies:      -285.90415684          -285.90017807  a.u.

   Transition energy:     0.00397877  a.u.
   Transition energy:     0.11        eV

       Transition moment components:

                 x            y            z

electron          1.477313     0.019520    -0.053600  e*bohr
frozen core       0.000000     0.000000     0.000000  e*bohr
total (elec)      1.477313     0.019520    -0.053600  e*bohr


   Tr.dipole length:     1.478414    e*bohr
   Oscillator strength :  0.005798
   Einstein A coef.:     0.2949E+04  1/sec
   Einstein B coef.:     0.8870E+09  sec/g

                 x            y            z

<L> electron     0.120864     0.122862    -0.000580  e*bohr


   <L> value length:     0.172348    e*bohr
 --------------------------------------------------- 
  Calculating transition moment for (1,2) => (1,4)
 starting transci.x -m 200000 at Mon May  9 05:17:56 EDT 2022

 -------------------- transci.x ------------------------

                          State No. 1            State No. 2

   Space symmetry:           a                      a   
   No. of CSFs:          ********               ********
   State energies:      -285.90415684          -285.85259557  a.u.

   Transition energy:     0.05156128  a.u.
   Transition energy:     1.40        eV

       Transition moment components:

                 x            y            z

electron         -0.160254     0.012823    -0.108517  e*bohr
frozen core       0.000000     0.000000     0.000000  e*bohr
total (elec)     -0.160254     0.012823    -0.108517  e*bohr


   Tr.dipole length:     0.193963    e*bohr
   Oscillator strength :  0.001293
   Einstein A coef.:     0.1105E+06  1/sec
   Einstein B coef.:     0.1527E+08  sec/g

                 x            y            z

<L> electron    -0.035289     0.641700     0.083125  e*bohr


   <L> value length:     0.648023    e*bohr
 --------------------------------------------------- 
 Not computing transition moment with identical bra and ket.
 Calculating transition moment for (1,3) => (1,4)
 starting transci.x -m 200000 at Mon May  9 05:20:17 EDT 2022

 -------------------- transci.x ------------------------

                          State No. 1            State No. 2

   Space symmetry:           a                      a   
   No. of CSFs:          ********               ********
   State energies:      -285.90017807          -285.85259557  a.u.

   Transition energy:     0.04758251  a.u.
   Transition energy:     1.29        eV

       Transition moment components:

                 x            y            z

electron         -0.221264    -0.071162     0.026299  e*bohr
frozen core       0.000000     0.000000     0.000000  e*bohr
total (elec)     -0.221264    -0.071162     0.026299  e*bohr


   Tr.dipole length:     0.233909    e*bohr
   Oscillator strength :  0.001736
   Einstein A coef.:     0.1262E+06  1/sec
   Einstein B coef.:     0.2220E+08  sec/g

                 x            y            z

<L> electron    -0.008866    -0.078684     0.127942  e*bohr


   <L> value length:     0.150462    e*bohr
 --------------------------------------------------- 
 Not computing transition moment with identical bra and ket.
Not computing transition moment with identical bra and ket.
 Calculating transition moment for (2,1) => (2,2)
 starting transci.x -m 200000 at Mon May  9 05:22:34 EDT 2022

 -------------------- transci.x ------------------------

                          State No. 1            State No. 2

   Space symmetry:           a                      a   
   No. of CSFs:          ********               ********
   State energies:      -285.93523022          -285.91274884  a.u.

   Transition energy:     0.02248138  a.u.
   Transition energy:     0.61        eV

       Transition moment components:

                 x            y            z

electron         -0.174893    -0.054876     0.067497  e*bohr
frozen core       0.000000     0.000000     0.000000  e*bohr
total (elec)     -0.174893    -0.054876     0.067497  e*bohr


   Tr.dipole length:     0.195332    e*bohr
   Oscillator strength :  0.000572
   Einstein A coef.:     0.9286E+04  1/sec
   Einstein B coef.:     0.1548E+08  sec/g

                 x            y            z

<L> electron    -0.018454     0.780022     0.062329  e*bohr


   <L> value length:     0.782726    e*bohr
 --------------------------------------------------- 
  Calculating transition moment for (2,1) => (2,3)
 starting transci.x -m 200000 at Mon May  9 05:26:50 EDT 2022

 -------------------- transci.x ------------------------

                          State No. 1            State No. 2

   Space symmetry:           a                      a   
   No. of CSFs:          ********               ********
   State energies:      -285.93523022          -285.90888915  a.u.

   Transition energy:     0.02634107  a.u.
   Transition energy:     0.72        eV

       Transition moment components:

                 x            y            z

electron         -0.349487    -0.102644    -0.098339  e*bohr
frozen core       0.000000     0.000000     0.000000  e*bohr
total (elec)     -0.349487    -0.102644    -0.098339  e*bohr


   Tr.dipole length:     0.377290    e*bohr
   Oscillator strength :  0.002500
   Einstein A coef.:     0.5572E+05  1/sec
   Einstein B coef.:     0.5777E+08  sec/g

                 x            y            z

<L> electron    -0.017069    -0.260923     0.112390  e*bohr


   <L> value length:     0.284611    e*bohr
 --------------------------------------------------- 
  Calculating transition moment for (2,1) => (2,4)
 starting transci.x -m 200000 at Mon May  9 05:31:04 EDT 2022

 -------------------- transci.x ------------------------

                          State No. 1            State No. 2

   Space symmetry:           a                      a   
   No. of CSFs:          ********               ********
   State energies:      -285.93523022          -285.90310502  a.u.

   Transition energy:     0.03212520  a.u.
   Transition energy:     0.87        eV

       Transition moment components:

                 x            y            z

electron          0.490106     0.075185     0.056819  e*bohr
frozen core       0.000000     0.000000     0.000000  e*bohr
total (elec)      0.490106     0.075185     0.056819  e*bohr


   Tr.dipole length:     0.499084    e*bohr
   Oscillator strength :  0.005335
   Einstein A coef.:     0.1769E+06  1/sec
   Einstein B coef.:     0.1011E+09  sec/g

                 x            y            z

<L> electron     0.020980     0.075446    -0.126128  e*bohr


   <L> value length:     0.148460    e*bohr
 --------------------------------------------------- 
 Not computing transition moment with identical bra and ket.
 Calculating transition moment for (2,2) => (2,3)
 starting transci.x -m 200000 at Mon May  9 05:35:20 EDT 2022

 -------------------- transci.x ------------------------

                          State No. 1            State No. 2

   Space symmetry:           a                      a   
   No. of CSFs:          ********               ********
   State energies:      -285.91274884          -285.90888915  a.u.

   Transition energy:     0.00385969  a.u.
   Transition energy:     0.11        eV

       Transition moment components:

                 x            y            z

electron         -0.810593    -0.063171    -0.132938  e*bohr
frozen core       0.000000     0.000000     0.000000  e*bohr
total (elec)     -0.810593    -0.063171    -0.132938  e*bohr


   Tr.dipole length:     0.823848    e*bohr
   Oscillator strength :  0.001746
   Einstein A coef.:     0.8359E+03  1/sec
   Einstein B coef.:     0.2754E+09  sec/g

                 x            y            z

<L> electron    -0.076953    -0.155119    -0.019183  e*bohr


   <L> value length:     0.174217    e*bohr
 --------------------------------------------------- 
  Calculating transition moment for (2,2) => (2,4)
 starting transci.x -m 200000 at Mon May  9 05:39:33 EDT 2022

 -------------------- transci.x ------------------------

                          State No. 1            State No. 2

   Space symmetry:           a                      a   
   No. of CSFs:          ********               ********
   State energies:      -285.91274884          -285.90310502  a.u.

   Transition energy:     0.00964382  a.u.
   Transition energy:     0.26        eV

       Transition moment components:

                 x            y            z

electron          0.721393     0.027916     0.069594  e*bohr
frozen core       0.000000     0.000000     0.000000  e*bohr
total (elec)      0.721393     0.027916     0.069594  e*bohr


   Tr.dipole length:     0.725280    e*bohr
   Oscillator strength :  0.003382
   Einstein A coef.:     0.1011E+05  1/sec
   Einstein B coef.:     0.2135E+09  sec/g

                 x            y            z

<L> electron     0.081144    -0.438972    -0.026405  e*bohr


   <L> value length:     0.447189    e*bohr
 --------------------------------------------------- 
 Not computing transition moment with identical bra and ket.
 Calculating transition moment for (2,3) => (2,4)
 starting transci.x -m 200000 at Mon May  9 05:43:42 EDT 2022

 -------------------- transci.x ------------------------

                          State No. 1            State No. 2

   Space symmetry:           a                      a   
   No. of CSFs:          ********               ********
   State energies:      -285.90888915          -285.90310502  a.u.

   Transition energy:     0.00578413  a.u.
   Transition energy:     0.16        eV

       Transition moment components:

                 x            y            z

electron          1.614131     0.043966     0.020954  e*bohr
frozen core       0.000000     0.000000     0.000000  e*bohr
total (elec)      1.614131     0.043966     0.020954  e*bohr


   Tr.dipole length:     1.614865    e*bohr
   Oscillator strength :  0.010056
   Einstein A coef.:     0.1081E+05  1/sec
   Einstein B coef.:     0.1058E+10  sec/g

                 x            y            z

<L> electron    -0.005316     0.205012    -0.081170  e*bohr


   <L> value length:     0.220560    e*bohr
 --------------------------------------------------- 
 Not computing transition moment with identical bra and ket.
starting mo_convert.x at Mon May  9 05:47:51 EDT 2022

 -------------------- mo_convert.x ------------------------
 --------------------------------------------------- 
 starting pymolcas molcas.input.molden > molcas.output.molden at Mon May  9 05:47:52 EDT 2022

Generating link ln -s ./molcas.OrdInt ORDINT 
 -------------------- molden ------------------------
 --------------------------------------------------- 
 starting mo_convert.x at Mon May  9 05:48:20 EDT 2022

 -------------------- mo_convert.x ------------------------
 --------------------------------------------------- 
 starting pymolcas molcas.input.molden > molcas.output.molden at Mon May  9 05:48:20 EDT 2022

Generating link ln -s ./molcas.OrdInt ORDINT 
 -------------------- molden ------------------------
 --------------------------------------------------- 
 starting mo_convert.x at Mon May  9 05:48:43 EDT 2022

 -------------------- mo_convert.x ------------------------
 --------------------------------------------------- 
 starting pymolcas molcas.input.molden > molcas.output.molden at Mon May  9 05:48:44 EDT 2022

Generating link ln -s ./molcas.OrdInt ORDINT 
 -------------------- molden ------------------------
 --------------------------------------------------- 
 starting mo_convert.x at Mon May  9 05:49:05 EDT 2022

 -------------------- mo_convert.x ------------------------
 --------------------------------------------------- 
 starting pymolcas molcas.input.molden > molcas.output.molden at Mon May  9 05:49:05 EDT 2022

Generating link ln -s ./molcas.OrdInt ORDINT 
 -------------------- molden ------------------------
 --------------------------------------------------- 
 starting mo_convert.x at Mon May  9 05:49:29 EDT 2022

 -------------------- mo_convert.x ------------------------
 --------------------------------------------------- 
 starting pymolcas molcas.input.molden > molcas.output.molden at Mon May  9 05:49:30 EDT 2022

Generating link ln -s ./molcas.OrdInt ORDINT 
 -------------------- molden ------------------------
 --------------------------------------------------- 
 starting mo_convert.x at Mon May  9 05:49:51 EDT 2022

 -------------------- mo_convert.x ------------------------
 --------------------------------------------------- 
 starting pymolcas molcas.input.molden > molcas.output.molden at Mon May  9 05:49:51 EDT 2022

Generating link ln -s ./molcas.OrdInt ORDINT 
 -------------------- molden ------------------------
 --------------------------------------------------- 
 

 +++++++++++ STARTING GRADIENTS AND NAD. COUPLINGS CALCULATION +++++++++++ 

 Using new transition density code ... 
INFO: this is a frozen core gradient calculation
starting cidrt.x  -m 200000 < cidrtin.cigrd > cidrtls.cigrd at Mon May  9 05:50:12 EDT 2022

 -------------------- cidrt.x ------------------------
 total number of orbitals            :   246
 number of frozen core orbitals      :    18
 number of frozen virtual orbitals   :     0
 number of internal orbitals         :    14
 number of external orbitals         :   214
 spatial symmetry:   a  
 
 total number of configurations  282461366
 number of reference configurations  1666
 --------------------------------------------------- 
 starting tran.x -m 200000  at Mon May  9 05:50:19 EDT 2022

 -------------------- tran.x ------------------------
 --------------------------------------------------- 
 ---- Computing 8 gradient(s)  ----

 --- Computing gradient for DRT:1, State; 1

starting cigrd.x -m 200000 at Mon May  9 05:58:59 EDT 2022


 *** Error occured! ***

end of transci
 numv1=                284669
 numv1=                284669
end of transci
end of cidrt
 prnopt=                     0
end of tran
 allocate: status=                     0
 bummer (fatal):rdhcid: from sifrh1, ierr=-1
bummer
