[Molden Format]
[Atoms] AU
  N     1    7    -0.0045310900   -0.0019107400   -4.3424638300        
  C     2    6    -0.0029708500   -0.0031509500   -1.7502169800        
  C     3    6     0.0914838400   -2.3266905300   -0.4141331000        
  C     4    6    -0.0958157800    2.3191090700   -0.4117976800        
  C     5    6     0.1525652600   -2.2951376500    2.1746725500        
  C     6    6    -0.1537808100    2.2850790500    2.1770482500        
  C     7    6     0.0001730900   -0.0056500000    3.4732395900        
  H     8    1    -1.2990031900   -1.0539292900   -5.3534833400        
  H     9    1     1.2887236500    1.0510754500   -5.3540337800        
  H    10    1     0.1944774000   -4.0535581800   -1.4566887700        
  H    11    1    -0.2000632700    4.0469734600   -1.4525757400        
  H    12    1     0.3068481700   -4.0307245200    3.2062400000        
  H    13    1    -0.3068208100    4.0196779800    3.2104609100        
  H    14    1     0.0013938000   -0.0066203500    5.5014356300        
[5D]
[7F]
[GTO]
  1  0
   s    12 1.00
  0.114200D+05  0.172695D-04
  0.171200D+04  0.134411D-03
  0.389300D+03  0.694561D-03
  0.110000D+03  0.278531D-02
  0.355700D+02  0.863457D-02
  0.125400D+02  0.199805D-01
  0.464400D+01  0.262908D-01
  0.129300D+01 -0.243845D-01
  0.511800D+00 -0.924934D-01
  0.178700D+00 -0.339683D+00
  0.246240D-01  0.345111D+00
  0.112530D-01  0.752750D+00
   s    10 1.00
  0.114200D+05  0.523000D-03
  0.171200D+04  0.404500D-02
  0.389300D+03  0.207750D-01
  0.110000D+03  0.807269D-01
  0.355700D+02  0.233074D+00
  0.125400D+02  0.433501D+00
  0.464400D+01  0.347472D+00
  0.129300D+01  0.412620D-01
  0.511800D+00 -0.850799D-02
  0.178700D+00  0.238400D-02
   s    10 1.00
  0.114200D+05 -0.115000D-03
  0.171200D+04 -0.895000D-03
  0.389300D+03 -0.462400D-02
  0.110000D+03 -0.185280D-01
  0.355700D+02 -0.573390D-01
  0.125400D+02 -0.132076D+00
  0.464400D+01 -0.172510D+00
  0.129300D+01  0.151814D+00
  0.511800D+00  0.599944D+00
  0.178700D+00  0.387462D+00
   s     1 1.00
  0.129300D+01  0.100000D+01
   s     1 1.00
  0.178700D+00  0.100000D+01
   p     5 1.00
  0.266300D+02  0.146700D-01
  0.594800D+01  0.917640D-01
  0.174200D+01  0.298683D+00
  0.555000D+00  0.498487D+00
  0.172500D+00  0.337023D+00
   p     1 1.00
  0.174200D+01  0.100000D+01
   p     1 1.00
  0.555000D+00  0.100000D+01
   d     1 1.00
  0.165400D+01  0.100000D+01
   d     1 1.00
  0.469000D+00  0.100000D+01
   f     1 1.00
  0.109300D+01  0.100000D+01
  
  2  0
   s    10 1.00
  0.823600D+04  0.531000D-03
  0.123500D+04  0.410800D-02
  0.280800D+03  0.210870D-01
  0.792700D+02  0.818530D-01
  0.255900D+02  0.234817D+00
  0.899700D+01  0.434401D+00
  0.331900D+01  0.346129D+00
  0.905900D+00  0.393780D-01
  0.364300D+00 -0.898300D-02
  0.128500D+00  0.238500D-02
   s    10 1.00
  0.823600D+04 -0.113000D-03
  0.123500D+04 -0.878000D-03
  0.280800D+03 -0.454000D-02
  0.792700D+02 -0.181330D-01
  0.255900D+02 -0.557600D-01
  0.899700D+01 -0.126895D+00
  0.331900D+01 -0.170352D+00
  0.905900D+00  0.140382D+00
  0.364300D+00  0.598684D+00
  0.128500D+00  0.395389D+00
   s     1 1.00
  0.905900D+00  0.100000D+01
   s     1 1.00
  0.364300D+00  0.100000D+01
   p     5 1.00
  0.187100D+02  0.140310D-01
  0.413300D+01  0.868660D-01
  0.120000D+01  0.290216D+00
  0.382700D+00  0.501008D+00
  0.120900D+00  0.343406D+00
   p     1 1.00
  0.382700D+00  0.100000D+01
   p     1 1.00
  0.120900D+00  0.100000D+01
   d     1 1.00
  0.109700D+01  0.100000D+01
   d     1 1.00
  0.318000D+00  0.100000D+01
   f     1 1.00
  0.761000D+00  0.100000D+01
  
  3  0
   s    10 1.00
  0.823600D+04  0.531000D-03
  0.123500D+04  0.410800D-02
  0.280800D+03  0.210870D-01
  0.792700D+02  0.818530D-01
  0.255900D+02  0.234817D+00
  0.899700D+01  0.434401D+00
  0.331900D+01  0.346129D+00
  0.905900D+00  0.393780D-01
  0.364300D+00 -0.898300D-02
  0.128500D+00  0.238500D-02
   s    10 1.00
  0.823600D+04 -0.113000D-03
  0.123500D+04 -0.878000D-03
  0.280800D+03 -0.454000D-02
  0.792700D+02 -0.181330D-01
  0.255900D+02 -0.557600D-01
  0.899700D+01 -0.126895D+00
  0.331900D+01 -0.170352D+00
  0.905900D+00  0.140382D+00
  0.364300D+00  0.598684D+00
  0.128500D+00  0.395389D+00
   s     1 1.00
  0.905900D+00  0.100000D+01
   s     1 1.00
  0.364300D+00  0.100000D+01
   p     5 1.00
  0.187100D+02  0.140310D-01
  0.413300D+01  0.868660D-01
  0.120000D+01  0.290216D+00
  0.382700D+00  0.501008D+00
  0.120900D+00  0.343406D+00
   p     1 1.00
  0.382700D+00  0.100000D+01
   p     1 1.00
  0.120900D+00  0.100000D+01
   d     1 1.00
  0.109700D+01  0.100000D+01
   d     1 1.00
  0.318000D+00  0.100000D+01
   f     1 1.00
  0.761000D+00  0.100000D+01
  
  4  0
   s    10 1.00
  0.823600D+04  0.531000D-03
  0.123500D+04  0.410800D-02
  0.280800D+03  0.210870D-01
  0.792700D+02  0.818530D-01
  0.255900D+02  0.234817D+00
  0.899700D+01  0.434401D+00
  0.331900D+01  0.346129D+00
  0.905900D+00  0.393780D-01
  0.364300D+00 -0.898300D-02
  0.128500D+00  0.238500D-02
   s    10 1.00
  0.823600D+04 -0.113000D-03
  0.123500D+04 -0.878000D-03
  0.280800D+03 -0.454000D-02
  0.792700D+02 -0.181330D-01
  0.255900D+02 -0.557600D-01
  0.899700D+01 -0.126895D+00
  0.331900D+01 -0.170352D+00
  0.905900D+00  0.140382D+00
  0.364300D+00  0.598684D+00
  0.128500D+00  0.395389D+00
   s     1 1.00
  0.905900D+00  0.100000D+01
   s     1 1.00
  0.364300D+00  0.100000D+01
   p     5 1.00
  0.187100D+02  0.140310D-01
  0.413300D+01  0.868660D-01
  0.120000D+01  0.290216D+00
  0.382700D+00  0.501008D+00
  0.120900D+00  0.343406D+00
   p     1 1.00
  0.382700D+00  0.100000D+01
   p     1 1.00
  0.120900D+00  0.100000D+01
   d     1 1.00
  0.109700D+01  0.100000D+01
   d     1 1.00
  0.318000D+00  0.100000D+01
   f     1 1.00
  0.761000D+00  0.100000D+01
  
  5  0
   s    10 1.00
  0.823600D+04  0.531000D-03
  0.123500D+04  0.410800D-02
  0.280800D+03  0.210870D-01
  0.792700D+02  0.818530D-01
  0.255900D+02  0.234817D+00
  0.899700D+01  0.434401D+00
  0.331900D+01  0.346129D+00
  0.905900D+00  0.393780D-01
  0.364300D+00 -0.898300D-02
  0.128500D+00  0.238500D-02
   s    10 1.00
  0.823600D+04 -0.113000D-03
  0.123500D+04 -0.878000D-03
  0.280800D+03 -0.454000D-02
  0.792700D+02 -0.181330D-01
  0.255900D+02 -0.557600D-01
  0.899700D+01 -0.126895D+00
  0.331900D+01 -0.170352D+00
  0.905900D+00  0.140382D+00
  0.364300D+00  0.598684D+00
  0.128500D+00  0.395389D+00
   s     1 1.00
  0.905900D+00  0.100000D+01
   s     1 1.00
  0.364300D+00  0.100000D+01
   p     5 1.00
  0.187100D+02  0.140310D-01
  0.413300D+01  0.868660D-01
  0.120000D+01  0.290216D+00
  0.382700D+00  0.501008D+00
  0.120900D+00  0.343406D+00
   p     1 1.00
  0.382700D+00  0.100000D+01
   p     1 1.00
  0.120900D+00  0.100000D+01
   d     1 1.00
  0.109700D+01  0.100000D+01
   d     1 1.00
  0.318000D+00  0.100000D+01
   f     1 1.00
  0.761000D+00  0.100000D+01
  
  6  0
   s    10 1.00
  0.823600D+04  0.531000D-03
  0.123500D+04  0.410800D-02
  0.280800D+03  0.210870D-01
  0.792700D+02  0.818530D-01
  0.255900D+02  0.234817D+00
  0.899700D+01  0.434401D+00
  0.331900D+01  0.346129D+00
  0.905900D+00  0.393780D-01
  0.364300D+00 -0.898300D-02
  0.128500D+00  0.238500D-02
   s    10 1.00
  0.823600D+04 -0.113000D-03
  0.123500D+04 -0.878000D-03
  0.280800D+03 -0.454000D-02
  0.792700D+02 -0.181330D-01
  0.255900D+02 -0.557600D-01
  0.899700D+01 -0.126895D+00
  0.331900D+01 -0.170352D+00
  0.905900D+00  0.140382D+00
  0.364300D+00  0.598684D+00
  0.128500D+00  0.395389D+00
   s     1 1.00
  0.905900D+00  0.100000D+01
   s     1 1.00
  0.364300D+00  0.100000D+01
   p     5 1.00
  0.187100D+02  0.140310D-01
  0.413300D+01  0.868660D-01
  0.120000D+01  0.290216D+00
  0.382700D+00  0.501008D+00
  0.120900D+00  0.343406D+00
   p     1 1.00
  0.382700D+00  0.100000D+01
   p     1 1.00
  0.120900D+00  0.100000D+01
   d     1 1.00
  0.109700D+01  0.100000D+01
   d     1 1.00
  0.318000D+00  0.100000D+01
   f     1 1.00
  0.761000D+00  0.100000D+01
  
  7  0
   s    10 1.00
  0.823600D+04  0.531000D-03
  0.123500D+04  0.410800D-02
  0.280800D+03  0.210870D-01
  0.792700D+02  0.818530D-01
  0.255900D+02  0.234817D+00
  0.899700D+01  0.434401D+00
  0.331900D+01  0.346129D+00
  0.905900D+00  0.393780D-01
  0.364300D+00 -0.898300D-02
  0.128500D+00  0.238500D-02
   s    10 1.00
  0.823600D+04 -0.113000D-03
  0.123500D+04 -0.878000D-03
  0.280800D+03 -0.454000D-02
  0.792700D+02 -0.181330D-01
  0.255900D+02 -0.557600D-01
  0.899700D+01 -0.126895D+00
  0.331900D+01 -0.170352D+00
  0.905900D+00  0.140382D+00
  0.364300D+00  0.598684D+00
  0.128500D+00  0.395389D+00
   s     1 1.00
  0.905900D+00  0.100000D+01
   s     1 1.00
  0.364300D+00  0.100000D+01
   p     5 1.00
  0.187100D+02  0.140310D-01
  0.413300D+01  0.868660D-01
  0.120000D+01  0.290216D+00
  0.382700D+00  0.501008D+00
  0.120900D+00  0.343406D+00
   p     1 1.00
  0.382700D+00  0.100000D+01
   p     1 1.00
  0.120900D+00  0.100000D+01
   d     1 1.00
  0.109700D+01  0.100000D+01
   d     1 1.00
  0.318000D+00  0.100000D+01
   f     1 1.00
  0.761000D+00  0.100000D+01
  
  8  0
   s     4 1.00
  0.130100D+02  0.196850D-01
  0.196200D+01  0.137977D+00
  0.444600D+00  0.478148D+00
  0.122000D+00  0.501240D+00
   s     1 1.00
  0.122000D+00  0.100000D+01
   p     1 1.00
  0.727000D+00  0.100000D+01
  
  9  0
   s     4 1.00
  0.130100D+02  0.196850D-01
  0.196200D+01  0.137977D+00
  0.444600D+00  0.478148D+00
  0.122000D+00  0.501240D+00
   s     1 1.00
  0.122000D+00  0.100000D+01
   p     1 1.00
  0.727000D+00  0.100000D+01
  
 10  0
   s     4 1.00
  0.130100D+02  0.196850D-01
  0.196200D+01  0.137977D+00
  0.444600D+00  0.478148D+00
  0.122000D+00  0.501240D+00
   s     1 1.00
  0.122000D+00  0.100000D+01
   p     1 1.00
  0.727000D+00  0.100000D+01
  
 11  0
   s     4 1.00
  0.130100D+02  0.196850D-01
  0.196200D+01  0.137977D+00
  0.444600D+00  0.478148D+00
  0.122000D+00  0.501240D+00
   s     1 1.00
  0.122000D+00  0.100000D+01
   p     1 1.00
  0.727000D+00  0.100000D+01
  
 12  0
   s     4 1.00
  0.130100D+02  0.196850D-01
  0.196200D+01  0.137977D+00
  0.444600D+00  0.478148D+00
  0.122000D+00  0.501240D+00
   s     1 1.00
  0.122000D+00  0.100000D+01
   p     1 1.00
  0.727000D+00  0.100000D+01
  
 13  0
   s     4 1.00
  0.130100D+02  0.196850D-01
  0.196200D+01  0.137977D+00
  0.444600D+00  0.478148D+00
  0.122000D+00  0.501240D+00
   s     1 1.00
  0.122000D+00  0.100000D+01
   p     1 1.00
  0.727000D+00  0.100000D+01
  
 14  0
   s     4 1.00
  0.130100D+02  0.196850D-01
  0.196200D+01  0.137977D+00
  0.444600D+00  0.478148D+00
  0.122000D+00  0.501240D+00
   s     1 1.00
  0.122000D+00  0.100000D+01
   p     1 1.00
  0.727000D+00  0.100000D+01
  
[MO]
 Sym= __1_A__
 Ene=  0.000000000000000E+000
 Spin= Alpha
 Occup=    2.00000000000000     
                     1  5.834867995218718E-005
                     2  0.997804514067101     
                     3  1.219090209891144E-002
                     4  2.144025130957953E-003
                     5  1.037725443069360E-003
                     6  2.233669084609618E-006
                     7 -1.781938571513990E-006
                     8  3.693807795207654E-003
                     9 -1.533183347358763E-007
                    10  1.286323120407709E-007
                    11 -2.459062693056037E-004
                    12 -2.567698656507997E-007
                    13  1.705419838247288E-007
                    14 -4.224953215926640E-004
                    15  1.917916475800261E-004
                    16  2.509438412103472E-007
                    17 -2.239220706242087E-007
                    18  1.945144224543232E-006
                    19  1.071629627674222E-004
                    20  1.032231789433779E-004
                    21 -9.665233184555818E-008
                    22  2.382299202606554E-007
                    23 -8.126977014517194E-005
                    24 -5.164084959705759E-004
                    25 -1.879767216603388E-004
                    26  2.085420654309000E-007
                    27 -1.633892130413176E-007
                    28  1.393176150467343E-005
                    29 -7.249104082399874E-005
                    30  3.278025255580172E-008
                    31 -6.208505009380703E-008
                    32 -2.495198554297883E-004
                    33  2.913672469042030E-003
                    34  1.180479185653576E-004
                    35 -5.181819314723593E-004
                    36 -4.236483142179126E-006
                    37  3.383580016401126E-006
                    38 -7.030537072743674E-003
                    39  1.456450388500982E-008
                    40 -6.171010277489630E-008
                    41  7.218390618438283E-006
                    42  2.403384828018672E-006
                    43 -1.867360586190378E-006
                    44  4.008042777170465E-003
                    45  3.818516170104098E-004
                    46  3.259684183911770E-007
                    47 -3.524260588209371E-007
                    48  1.113542050054513E-004
                    49 -1.135880043107863E-005
                    50  5.179718705562006E-004
                    51  6.333586196168248E-007
                    52 -6.255552089711996E-007
                    53 -6.059492425833900E-005
                    54  1.186722822987470E-004
                    55 -7.142776477783806E-005
                    56  3.860371528065704E-008
                    57 -1.028847236390053E-007
                    58  5.182249052369470E-005
                    59 -2.421307108681868E-005
                    60 -2.414387432658729E-008
                    61 -5.220052130292477E-008
                    62 -1.964118722029993E-004
                    63 -1.744823417816659E-003
                    64  1.208039364946002E-005
                    65  7.613861785203429E-004
                    66 -1.422844846336629E-005
                    67 -9.037612523910409E-004
                    68  1.205652401605633E-003
                    69  5.572779354179682E-005
                    70  7.071574392135859E-005
                    71  2.720967205099736E-004
                    72  4.619784498690960E-005
                    73 -6.138878184178833E-004
                    74 -2.620611211101297E-004
                    75  9.360384995421421E-005
                    76  2.657034193445414E-006
                    77 -1.237000137914836E-005
                    78  3.703571046288996E-005
                    79  4.481392492701739E-007
                    80  4.093474199499076E-005
                    81 -2.615876014478093E-005
                    82  5.331298381011136E-005
                    83  8.409897408961358E-006
                    84  3.453801918496927E-005
                    85 -7.956087307420008E-005
                    86  6.730094435212995E-006
                    87 -9.522190735885005E-006
                    88  2.102539575781078E-005
                    89 -6.333970453964021E-006
                    90  2.040886400565924E-006
                    91  2.184852441424938E-005
                    92 -1.963725901050892E-004
                    93 -1.744666188223748E-003
                    94  1.225783826469040E-005
                    95  7.608211452198618E-004
                    96  1.567745963427685E-005
                    97  9.026283805517459E-004
                    98  1.206616875977763E-003
                    99 -5.538039997017233E-005
                   100 -7.113079187485313E-005
                   101  2.714291213017285E-004
                   102 -4.647265331112698E-005
                   103  6.135183319086349E-004
                   104 -2.612339234128789E-004
                   105  9.359519551612654E-005
                   106 -2.505311319217441E-006
                   107  1.219723634382411E-005
                   108  3.704622680081900E-005
                   109  4.648189927785886E-007
                   110  4.031429968645170E-005
                   111  2.628487788624092E-005
                   112 -5.354793300768117E-005
                   113  8.294657569754401E-006
                   114  3.444440299744084E-005
                   115 -7.952874082266527E-005
                   116 -6.542028379671018E-006
                   117  9.318817635876452E-006
                   118  2.099353741792644E-005
                   119 -6.277259518037130E-006
                   120 -2.064960178942973E-006
                   121 -2.188136749328213E-005
                   122 -1.548479069208826E-004
                   123  3.049671886821386E-005
                   124  8.930812630481606E-005
                   125  2.152401052207819E-004
                   126 -6.788629212125834E-005
                   127  5.211466056431673E-005
                   128 -8.684113577207350E-004
                   129 -2.305573668411894E-006
                   130  1.715432482151319E-005
                   131  2.536413139432311E-004
                   132  1.721826463117425E-005
                   133 -5.833770308829660E-005
                   134  6.040816417953166E-004
                   135 -5.026128382538643E-006
                   136  2.251219010936125E-006
                   137  5.438746631598272E-006
                   138 -5.923203322242794E-007
                   139  1.811416188543611E-006
                   140 -1.466927433914223E-004
                   141 -1.519289727202343E-005
                   142  1.174701368220996E-004
                   143  2.864413485794100E-005
                   144 -7.735104055166584E-006
                   145 -2.825487656268880E-005
                   146 -6.001680582551064E-007
                   147 -4.637376306157047E-006
                   148 -8.302237792552157E-006
                   149 -1.613846882393928E-006
                   150 -9.236620223485590E-007
                   151 -2.558264983879305E-006
                   152 -1.553636442121212E-004
                   153  2.866824755088677E-005
                   154  8.877345641876041E-005
                   155  2.185629856122141E-004
                   156  6.682945674477661E-005
                   157 -5.121762834875369E-005
                   158 -8.685102718931722E-004
                   159  2.663271364709389E-006
                   160 -1.781859247638030E-005
                   161  2.532624879721324E-004
                   162 -1.653920382720795E-005
                   163  5.833896162924300E-005
                   164  6.043499229052080E-004
                   165 -4.972395365398850E-006
                   166 -2.261700209325381E-006
                   167 -5.442055390844257E-006
                   168 -6.578470805628196E-007
                   169  1.797998064336360E-006
                   170 -1.467856094913981E-004
                   171  1.485259988229698E-005
                   172 -1.175310937361047E-004
                   173  2.849075021795566E-005
                   174 -7.893905075096375E-006
                   175 -2.816779094429406E-005
                   176  7.009846741087937E-007
                   177  4.593482656458417E-006
                   178 -8.347372819855283E-006
                   179 -1.617053066274180E-006
                   180  9.389745210411127E-007
                   181  2.576892717397210E-006
                   182 -1.316159896934395E-004
                   183 -3.581035927228085E-004
                   184  2.588487180442026E-005
                   185  2.260118582127587E-004
                   186 -3.610139540697697E-008
                   187  1.192791992628500E-007
                   188 -4.361804144319356E-005
                   189  4.548608405413478E-008
                   190 -5.071707718581918E-007
                   191  1.074949202602200E-005
                   192 -4.173995608747803E-009
                   193 -4.342720056353844E-008
                   194 -1.735755473420618E-005
                   195  2.087960231324526E-005
                   196  1.563968017126108E-008
                   197  5.098170952625362E-009
                   198  8.064973108519985E-006
                   199  2.017786148674585E-006
                   200  3.844494754709111E-005
                   201  7.896315379297093E-009
                   202  2.006613068942854E-007
                   203  2.656624877833126E-005
                   204 -2.475556654858762E-006
                   205 -1.176592480704130E-005
                   206  1.639939326331095E-008
                   207 -2.623733509171053E-008
                   208  3.379255198079186E-006
                   209  1.948266085169497E-006
                   210  2.424907377806052E-009
                   211  3.025684199913559E-008
                   212  5.520487557877686E-003
                   213 -3.081675153426670E-003
                   214  4.742767080543748E-004
                   215  3.666008656651306E-004
                   216  4.208959664511624E-004
                   217  5.520452382472133E-003
                   218 -3.081661671584707E-003
                   219 -4.737665716303238E-004
                   220 -3.670038805395044E-004
                   221  4.211139168461816E-004
                   222 -7.000716235746987E-004
                   223 -1.766009620225908E-004
                   224  4.171884782796855E-006
                   225 -3.593895083626668E-005
                   226 -4.404516343655948E-005
                   227 -7.001433242218849E-004
                   228 -1.761956450447401E-004
                   229 -4.224552917983082E-006
                   230  3.596109838890137E-005
                   231 -4.403461444610207E-005
                   232 -2.721194490678110E-004
                   233 -2.779402138706803E-004
                   234 -3.021367058059882E-006
                   235 -1.277138312803477E-005
                   236  8.914302184136721E-007
                   237 -2.721654559637262E-004
                   238 -2.781078353033756E-004
                   239  3.017771004241768E-006
                   240  1.282062749498827E-005
                   241  9.532654233869887E-007
                   242  9.967459394875604E-005
                   243 -5.532303032526151E-005
                   244  9.527757421564588E-009
                   245 -3.154002529719707E-008
                   246  1.455302921322681E-005
 Sym= __2_A__
 Ene=  0.000000000000000E+000
 Spin= Alpha
 Occup=    2.00000000000000     
                     1 -2.132797397065184E-005
                     2 -1.010246177430180E-004
                     3  2.001604275205753E-003
                     4  5.415469008951237E-005
                     5  1.183520666775764E-003
                     6  1.375172965063798E-006
                     7 -1.097246601188019E-006
                     8  2.297740851917792E-003
                     9 -5.357764395927781E-008
                    10  4.301980470097899E-008
                    11 -9.446326897798240E-005
                    12 -8.064785673625124E-008
                    13  7.185194665784089E-008
                    14 -1.402313020403989E-004
                    15  5.233758066788652E-005
                    16  2.785364096883232E-008
                    17 -3.726486246251306E-008
                    18  2.218846765122038E-005
                    19 -2.705224454381466E-005
                    20 -1.410980131116789E-004
                    21 -3.168264741916173E-008
                    22  8.501505757244509E-008
                    23 -8.866251058259416E-005
                    24  1.254717251588090E-004
                    25  1.953195948088551E-004
                    26 -2.687041179385870E-007
                    27  2.883822326623368E-007
                    28 -4.270959658656998E-005
                    29 -2.960223228236569E-005
                    30  4.877486029502420E-008
                    31  3.710289636106200E-009
                    32   1.00103586694538     
                    33  8.982977766571044E-003
                    34  2.612761315403003E-003
                    35 -7.900391220628744E-003
                    36 -2.042589684579646E-006
                    37  1.617064192365163E-006
                    38 -3.392917647484537E-003
                    39  7.512245439728654E-007
                    40 -5.926492335139412E-007
                    41  1.249695993575908E-003
                    42  2.320633977948624E-006
                    43 -1.909308715511568E-006
                    44  3.844392861429340E-003
                    45  3.280913969976896E-004
                    46  5.880079374404789E-007
                    47 -8.650051283440781E-008
                    48 -4.028821067400068E-004
                    49  7.349018179677753E-006
                    50  4.040903290338296E-004
                    51 -7.658497018521656E-008
                    52 -7.346499291362173E-007
                    53  8.441406336766642E-004
                    54  1.899809043388668E-005
                    55  3.178035817589501E-004
                    56 -2.886891280178162E-007
                    57  5.046727983869328E-007
                    58 -1.836853595667919E-004
                    59  7.449822115913355E-006
                    60  1.312232393288023E-007
                    61  1.149157860415711E-007
                    62  1.091651109566670E-002
                    63 -1.867286756537157E-003
                    64 -2.756620112534953E-004
                    65  2.948855942526496E-003
                    66 -2.827344144025824E-006
                    67  2.076812026530067E-004
                    68 -9.520959504549845E-005
                    69 -3.442588723909451E-005
                    70  5.125007720799761E-004
                    71  8.223170952180690E-005
                    72  1.022784987957693E-004
                    73 -1.895942981852539E-003
                    74  1.185284184982070E-004
                    75 -2.222652397086211E-005
                    76  1.968017192714814E-006
                    77  2.045653902442404E-005
                    78  2.680615139493426E-005
                    79  2.644267706924976E-006
                    80  7.862485589269213E-004
                    81  3.811501738044009E-005
                    82 -4.419520358658444E-004
                    83 -1.339818271185819E-005
                    84 -1.791245355474019E-005
                    85  5.554724197657827E-005
                    86 -5.839683213523860E-007
                    87  3.273687261946392E-005
                    88 -1.124942723194007E-004
                    89 -2.529527317473166E-006
                    90  5.855676342715054E-006
                    91  5.163128246876649E-005
                    92  1.091648200365035E-002
                    93 -1.867368355884708E-003
                    94 -2.757096266556950E-004
                    95  2.949061101048370E-003
                    96  2.713166822540655E-006
                    97 -2.075918451613567E-004
                    98 -9.543892562413404E-005
                    99  3.452086874712323E-005
                   100 -5.125709951404757E-004
                   101  8.184979698774355E-005
                   102 -1.021454681066803E-004
                   103  1.895975253160536E-003
                   104  1.203073821172703E-004
                   105 -2.224193319933433E-005
                   106 -2.044475846946219E-006
                   107 -2.045488910494791E-005
                   108  2.678271811863508E-005
                   109  2.621776771023774E-006
                   110  7.871384765519515E-004
                   111 -3.648038616098838E-005
                   112  4.407315236427052E-004
                   113 -1.299823924928114E-005
                   114 -1.734426235315295E-005
                   115  5.560927916552939E-005
                   116  6.295946297926653E-007
                   117 -3.242987384373373E-005
                   118 -1.126090876668107E-004
                   119 -2.522921474595787E-006
                   120 -5.686406722359585E-006
                   121 -5.150220669399372E-005
                   122 -1.717972451610739E-004
                   123 -7.494257888853867E-004
                   124  2.288854617119690E-004
                   125 -1.826317179260505E-004
                   126 -1.074117924794101E-005
                   127 -3.759131079815629E-005
                   128 -2.075716466301555E-004
                   129  2.156824128491835E-005
                   130  3.268898892319676E-005
                   131  5.637772350497296E-004
                   132 -1.322194743104232E-005
                   133  3.106305580980676E-004
                   134  6.630508397483386E-004
                   135 -2.149988305431260E-005
                   136 -4.024860777028541E-006
                   137  4.881210665400775E-005
                   138  1.550386526572427E-005
                   139  4.240967364380171E-006
                   140 -3.060386908744478E-004
                   141 -3.754535216055181E-006
                   142 -2.518883237595792E-004
                   143 -2.768129897063034E-005
                   144 -2.151997903001668E-005
                   145 -5.730117573109922E-006
                   146  5.698272626046609E-006
                   147 -2.772727750651710E-005
                   148 -3.061848805974856E-005
                   149 -4.860173800523794E-006
                   150  4.475959073181118E-007
                   151 -7.329901546004392E-006
                   152 -1.715032553254603E-004
                   153 -7.484510314286968E-004
                   154  2.289722170792800E-004
                   155 -1.837386458256565E-004
                   156  1.049304849463949E-005
                   157  3.777689971143035E-005
                   158 -2.075526737629598E-004
                   159 -2.089869844543914E-005
                   160 -3.315925369052518E-005