[Molden Format]
[Atoms] AU
  N     1    7    -0.0045310900   -0.0019107400   -4.3424638300        
  C     2    6    -0.0029708500   -0.0031509500   -1.7502169800        
  C     3    6     0.0914838400   -2.3266905300   -0.4141331000        
  C     4    6    -0.0958157800    2.3191090700   -0.4117976800        
  C     5    6     0.1525652600   -2.2951376500    2.1746725500        
  C     6    6    -0.1537808100    2.2850790500    2.1770482500        
  C     7    6     0.0001730900   -0.0056500000    3.4732395900        
  H     8    1    -1.2990031900   -1.0539292900   -5.3534833400        
  H     9    1     1.2887236500    1.0510754500   -5.3540337800        
  H    10    1     0.1944774000   -4.0535581800   -1.4566887700        
  H    11    1    -0.2000632700    4.0469734600   -1.4525757400        
  H    12    1     0.3068481700   -4.0307245200    3.2062400000        
  H    13    1    -0.3068208100    4.0196779800    3.2104609100        
  H    14    1     0.0013938000   -0.0066203500    5.5014356300        
[5D]
[7F]
[GTO]
  1  0
   s    12 1.00
  0.114200D+05  0.172695D-04
  0.171200D+04  0.134411D-03
  0.389300D+03  0.694561D-03
  0.110000D+03  0.278531D-02
  0.355700D+02  0.863457D-02
  0.125400D+02  0.199805D-01
  0.464400D+01  0.262908D-01
  0.129300D+01 -0.243845D-01
  0.511800D+00 -0.924934D-01
  0.178700D+00 -0.339683D+00
  0.246240D-01  0.345111D+00
  0.112530D-01  0.752750D+00
   s    10 1.00
  0.114200D+05  0.523000D-03
  0.171200D+04  0.404500D-02
  0.389300D+03  0.207750D-01
  0.110000D+03  0.807269D-01
  0.355700D+02  0.233074D+00
  0.125400D+02  0.433501D+00
  0.464400D+01  0.347472D+00
  0.129300D+01  0.412620D-01
  0.511800D+00 -0.850799D-02
  0.178700D+00  0.238400D-02
   s    10 1.00
  0.114200D+05 -0.115000D-03
  0.171200D+04 -0.895000D-03
  0.389300D+03 -0.462400D-02
  0.110000D+03 -0.185280D-01
  0.355700D+02 -0.573390D-01
  0.125400D+02 -0.132076D+00
  0.464400D+01 -0.172510D+00
  0.129300D+01  0.151814D+00
  0.511800D+00  0.599944D+00
  0.178700D+00  0.387462D+00
   s     1 1.00
  0.129300D+01  0.100000D+01
   s     1 1.00
  0.178700D+00  0.100000D+01
   p     5 1.00
  0.266300D+02  0.146700D-01
  0.594800D+01  0.917640D-01
  0.174200D+01  0.298683D+00
  0.555000D+00  0.498487D+00
  0.172500D+00  0.337023D+00
   p     1 1.00
  0.174200D+01  0.100000D+01
   p     1 1.00
  0.555000D+00  0.100000D+01
   d     1 1.00
  0.165400D+01  0.100000D+01
   d     1 1.00
  0.469000D+00  0.100000D+01
   f     1 1.00
  0.109300D+01  0.100000D+01
  
  2  0
   s    10 1.00
  0.823600D+04  0.531000D-03
  0.123500D+04  0.410800D-02
  0.280800D+03  0.210870D-01
  0.792700D+02  0.818530D-01
  0.255900D+02  0.234817D+00
  0.899700D+01  0.434401D+00
  0.331900D+01  0.346129D+00
  0.905900D+00  0.393780D-01
  0.364300D+00 -0.898300D-02
  0.128500D+00  0.238500D-02
   s    10 1.00
  0.823600D+04 -0.113000D-03
  0.123500D+04 -0.878000D-03
  0.280800D+03 -0.454000D-02
  0.792700D+02 -0.181330D-01
  0.255900D+02 -0.557600D-01
  0.899700D+01 -0.126895D+00
  0.331900D+01 -0.170352D+00
  0.905900D+00  0.140382D+00
  0.364300D+00  0.598684D+00
  0.128500D+00  0.395389D+00
   s     1 1.00
  0.905900D+00  0.100000D+01
   s     1 1.00
  0.364300D+00  0.100000D+01
   p     5 1.00
  0.187100D+02  0.140310D-01
  0.413300D+01  0.868660D-01
  0.120000D+01  0.290216D+00
  0.382700D+00  0.501008D+00
  0.120900D+00  0.343406D+00
   p     1 1.00
  0.382700D+00  0.100000D+01
   p     1 1.00
  0.120900D+00  0.100000D+01
   d     1 1.00
  0.109700D+01  0.100000D+01
   d     1 1.00
  0.318000D+00  0.100000D+01
   f     1 1.00
  0.761000D+00  0.100000D+01
  
  3  0
   s    10 1.00
  0.823600D+04  0.531000D-03
  0.123500D+04  0.410800D-02
  0.280800D+03  0.210870D-01
  0.792700D+02  0.818530D-01
  0.255900D+02  0.234817D+00
  0.899700D+01  0.434401D+00
  0.331900D+01  0.346129D+00
  0.905900D+00  0.393780D-01
  0.364300D+00 -0.898300D-02
  0.128500D+00  0.238500D-02
   s    10 1.00
  0.823600D+04 -0.113000D-03
  0.123500D+04 -0.878000D-03
  0.280800D+03 -0.454000D-02
  0.792700D+02 -0.181330D-01
  0.255900D+02 -0.557600D-01
  0.899700D+01 -0.126895D+00
  0.331900D+01 -0.170352D+00
  0.905900D+00  0.140382D+00
  0.364300D+00  0.598684D+00
  0.128500D+00  0.395389D+00
   s     1 1.00
  0.905900D+00  0.100000D+01
   s     1 1.00
  0.364300D+00  0.100000D+01
   p     5 1.00
  0.187100D+02  0.140310D-01
  0.413300D+01  0.868660D-01
  0.120000D+01  0.290216D+00
  0.382700D+00  0.501008D+00
  0.120900D+00  0.343406D+00
   p     1 1.00
  0.382700D+00  0.100000D+01
   p     1 1.00
  0.120900D+00  0.100000D+01
   d     1 1.00
  0.109700D+01  0.100000D+01
   d     1 1.00
  0.318000D+00  0.100000D+01
   f     1 1.00
  0.761000D+00  0.100000D+01
  
  4  0
   s    10 1.00
  0.823600D+04  0.531000D-03
  0.123500D+04  0.410800D-02
  0.280800D+03  0.210870D-01
  0.792700D+02  0.818530D-01
  0.255900D+02  0.234817D+00
  0.899700D+01  0.434401D+00
  0.331900D+01  0.346129D+00
  0.905900D+00  0.393780D-01
  0.364300D+00 -0.898300D-02
  0.128500D+00  0.238500D-02
   s    10 1.00
  0.823600D+04 -0.113000D-03
  0.123500D+04 -0.878000D-03
  0.280800D+03 -0.454000D-02
  0.792700D+02 -0.181330D-01
  0.255900D+02 -0.557600D-01
  0.899700D+01 -0.126895D+00
  0.331900D+01 -0.170352D+00
  0.905900D+00  0.140382D+00
  0.364300D+00  0.598684D+00
  0.128500D+00  0.395389D+00
   s     1 1.00
  0.905900D+00  0.100000D+01
   s     1 1.00
  0.364300D+00  0.100000D+01
   p     5 1.00
  0.187100D+02  0.140310D-01
  0.413300D+01  0.868660D-01
  0.120000D+01  0.290216D+00
  0.382700D+00  0.501008D+00
  0.120900D+00  0.343406D+00
   p     1 1.00
  0.382700D+00  0.100000D+01
   p     1 1.00
  0.120900D+00  0.100000D+01
   d     1 1.00
  0.109700D+01  0.100000D+01
   d     1 1.00
  0.318000D+00  0.100000D+01
   f     1 1.00
  0.761000D+00  0.100000D+01
  
  5  0
   s    10 1.00
  0.823600D+04  0.531000D-03
  0.123500D+04  0.410800D-02
  0.280800D+03  0.210870D-01
  0.792700D+02  0.818530D-01
  0.255900D+02  0.234817D+00
  0.899700D+01  0.434401D+00
  0.331900D+01  0.346129D+00
  0.905900D+00  0.393780D-01
  0.364300D+00 -0.898300D-02
  0.128500D+00  0.238500D-02
   s    10 1.00
  0.823600D+04 -0.113000D-03
  0.123500D+04 -0.878000D-03
  0.280800D+03 -0.454000D-02
  0.792700D+02 -0.181330D-01
  0.255900D+02 -0.557600D-01
  0.899700D+01 -0.126895D+00
  0.331900D+01 -0.170352D+00
  0.905900D+00  0.140382D+00
  0.364300D+00  0.598684D+00
  0.128500D+00  0.395389D+00
   s     1 1.00
  0.905900D+00  0.100000D+01
   s     1 1.00
  0.364300D+00  0.100000D+01
   p     5 1.00
  0.187100D+02  0.140310D-01
  0.413300D+01  0.868660D-01
  0.120000D+01  0.290216D+00
  0.382700D+00  0.501008D+00
  0.120900D+00  0.343406D+00
   p     1 1.00
  0.382700D+00  0.100000D+01
   p     1 1.00
  0.120900D+00  0.100000D+01
   d     1 1.00
  0.109700D+01  0.100000D+01
   d     1 1.00
  0.318000D+00  0.100000D+01
   f     1 1.00
  0.761000D+00  0.100000D+01
  
  6  0
   s    10 1.00
  0.823600D+04  0.531000D-03
  0.123500D+04  0.410800D-02
  0.280800D+03  0.210870D-01
  0.792700D+02  0.818530D-01
  0.255900D+02  0.234817D+00
  0.899700D+01  0.434401D+00
  0.331900D+01  0.346129D+00
  0.905900D+00  0.393780D-01
  0.364300D+00 -0.898300D-02
  0.128500D+00  0.238500D-02
   s    10 1.00
  0.823600D+04 -0.113000D-03
  0.123500D+04 -0.878000D-03
  0.280800D+03 -0.454000D-02
  0.792700D+02 -0.181330D-01
  0.255900D+02 -0.557600D-01
  0.899700D+01 -0.126895D+00
  0.331900D+01 -0.170352D+00
  0.905900D+00  0.140382D+00
  0.364300D+00  0.598684D+00
  0.128500D+00  0.395389D+00
   s     1 1.00
  0.905900D+00  0.100000D+01
   s     1 1.00
  0.364300D+00  0.100000D+01
   p     5 1.00
  0.187100D+02  0.140310D-01
  0.413300D+01  0.868660D-01
  0.120000D+01  0.290216D+00
  0.382700D+00  0.501008D+00
  0.120900D+00  0.343406D+00
   p     1 1.00
  0.382700D+00  0.100000D+01
   p     1 1.00
  0.120900D+00  0.100000D+01
   d     1 1.00
  0.109700D+01  0.100000D+01
   d     1 1.00
  0.318000D+00  0.100000D+01
   f     1 1.00
  0.761000D+00  0.100000D+01
  
  7  0
   s    10 1.00
  0.823600D+04  0.531000D-03
  0.123500D+04  0.410800D-02
  0.280800D+03  0.210870D-01
  0.792700D+02  0.818530D-01
  0.255900D+02  0.234817D+00
  0.899700D+01  0.434401D+00
  0.331900D+01  0.346129D+00
  0.905900D+00  0.393780D-01
  0.364300D+00 -0.898300D-02
  0.128500D+00  0.238500D-02
   s    10 1.00
  0.823600D+04 -0.113000D-03
  0.123500D+04 -0.878000D-03
  0.280800D+03 -0.454000D-02
  0.792700D+02 -0.181330D-01
  0.255900D+02 -0.557600D-01
  0.899700D+01 -0.126895D+00
  0.331900D+01 -0.170352D+00
  0.905900D+00  0.140382D+00
  0.364300D+00  0.598684D+00
  0.128500D+00  0.395389D+00
   s     1 1.00
  0.905900D+00  0.100000D+01
   s     1 1.00
  0.364300D+00  0.100000D+01
   p     5 1.00
  0.187100D+02  0.140310D-01
  0.413300D+01  0.868660D-01
  0.120000D+01  0.290216D+00
  0.382700D+00  0.501008D+00
  0.120900D+00  0.343406D+00
   p     1 1.00
  0.382700D+00  0.100000D+01
   p     1 1.00
  0.120900D+00  0.100000D+01
   d     1 1.00
  0.109700D+01  0.100000D+01
   d     1 1.00
  0.318000D+00  0.100000D+01
   f     1 1.00
  0.761000D+00  0.100000D+01
  
  8  0
   s     4 1.00
  0.130100D+02  0.196850D-01
  0.196200D+01  0.137977D+00
  0.444600D+00  0.478148D+00
  0.122000D+00  0.501240D+00
   s     1 1.00
  0.122000D+00  0.100000D+01
   p     1 1.00
  0.727000D+00  0.100000D+01
  
  9  0
   s     4 1.00
  0.130100D+02  0.196850D-01
  0.196200D+01  0.137977D+00
  0.444600D+00  0.478148D+00
  0.122000D+00  0.501240D+00
   s     1 1.00
  0.122000D+00  0.100000D+01
   p     1 1.00
  0.727000D+00  0.100000D+01
  
 10  0
   s     4 1.00
  0.130100D+02  0.196850D-01
  0.196200D+01  0.137977D+00
  0.444600D+00  0.478148D+00
  0.122000D+00  0.501240D+00
   s     1 1.00
  0.122000D+00  0.100000D+01
   p     1 1.00
  0.727000D+00  0.100000D+01
  
 11  0
   s     4 1.00
  0.130100D+02  0.196850D-01
  0.196200D+01  0.137977D+00
  0.444600D+00  0.478148D+00
  0.122000D+00  0.501240D+00
   s     1 1.00
  0.122000D+00  0.100000D+01
   p     1 1.00
  0.727000D+00  0.100000D+01
  
 12  0
   s     4 1.00
  0.130100D+02  0.196850D-01
  0.196200D+01  0.137977D+00
  0.444600D+00  0.478148D+00
  0.122000D+00  0.501240D+00
   s     1 1.00
  0.122000D+00  0.100000D+01
   p     1 1.00
  0.727000D+00  0.100000D+01
  
 13  0
   s     4 1.00
  0.130100D+02  0.196850D-01
  0.196200D+01  0.137977D+00
  0.444600D+00  0.478148D+00
  0.122000D+00  0.501240D+00
   s     1 1.00
  0.122000D+00  0.100000D+01
   p     1 1.00
  0.727000D+00  0.100000D+01
  
 14  0
   s     4 1.00
  0.130100D+02  0.196850D-01
  0.196200D+01  0.137977D+00
  0.444600D+00  0.478148D+00
  0.122000D+00  0.501240D+00
   s     1 1.00
  0.122000D+00  0.100000D+01
   p     1 1.00
  0.727000D+00  0.100000D+01
  
[MO]
 Sym= __1_A__
 Ene=   1.00000000000000     
 Spin= Alpha
 Occup=    1.00000000000000     
                     1  5.834867986807869E-005
                     2  0.997804514067299     
                     3  1.219090209814938E-002
                     4  2.144025130991872E-003
                     5  1.037725443993934E-003
                     6  2.233669099019997E-006
                     7 -1.781938606949596E-006
                     8  3.693807795112168E-003
                     9 -1.533183335057919E-007
                    10  1.286323129449199E-007
                    11 -2.459062694581902E-004
                    12 -2.567698650323864E-007
                    13  1.705419812602774E-007
                    14 -4.224953215274507E-004
                    15  1.917916475433867E-004
                    16  2.509438383343320E-007
                    17 -2.239220810005381E-007
                    18  1.945144230682007E-006
                    19  1.071629627576673E-004
                    20  1.032231787468598E-004
                    21 -9.665233292050015E-008
                    22  2.382299033263890E-007
                    23 -8.126977013260385E-005
                    24 -5.164084959113417E-004
                    25 -1.879767216319997E-004
                    26  2.085420645939888E-007
                    27 -1.633892159901506E-007
                    28  1.393176152411852E-005
                    29 -7.249104082274963E-005
                    30  3.278025226984616E-008
                    31 -6.208505062914629E-008
                    32 -2.495198518695007E-004
                    33  2.913672446486466E-003
                    34  1.180479188020114E-004
                    35 -5.181819304713646E-004
                    36 -4.236483241345999E-006
                    37  3.383578209923716E-006
                    38 -7.030537081082802E-003
                    39  1.456449432327979E-008
                    40 -6.170999480997436E-008
                    41  7.218390862428908E-006
                    42  2.403384788810397E-006
                    43 -1.867359812494949E-006
                    44  4.008042776490085E-003
                    45  3.818516172208716E-004
                    46  3.259684195886944E-007
                    47 -3.524261383870738E-007
                    48  1.113542055217762E-004
                    49 -1.135880040361533E-005
                    50  5.179718704338266E-004
                    51  6.333586243894227E-007
                    52 -6.255553043372513E-007
                    53 -6.059492361072478E-005
                    54  1.186722822652694E-004
                    55 -7.142776504439449E-005
                    56  3.860371551654494E-008
                    57 -1.028847496052011E-007
                    58  5.182249083378710E-005
                    59 -2.421307105370738E-005
                    60 -2.414387708334990E-008
                    61 -5.220051799284981E-008
                    62 -1.964118713146996E-004
                    63 -1.744823421007506E-003
                    64  1.208039365934680E-005
                    65  7.613861781575253E-004
                    66 -1.422844826340352E-005
                    67 -9.037612582960017E-004
                    68  1.205652413431650E-003
                    69  5.572779351655961E-005
                    70  7.071574425013361E-005
                    71  2.720967189107151E-004
                    72  4.619784475269663E-005
                    73 -6.138878146295455E-004
                    74 -2.620611244491368E-004
                    75  9.360385031074367E-005
                    76  2.657034188269997E-006
                    77 -1.237000120400255E-005
                    78  3.703571075784494E-005
                    79  4.481392766320344E-007
                    80  4.093474198868613E-005
                    81 -2.615876018765043E-005
                    82  5.331298425081209E-005
                    83  8.409897549412474E-006
                    84  3.453801919550200E-005
                    85 -7.956087305882642E-005
                    86  6.730094434578629E-006
                    87 -9.522190722683928E-006
                    88  2.102539565715144E-005
                    89 -6.333970463586577E-006
                    90  2.040886408209187E-006
                    91  2.184852447564622E-005
                    92 -1.963725894303158E-004
                    93 -1.744666194600659E-003
                    94  1.225783832351228E-005
                    95  7.608211451199235E-004
                    96  1.567745916012920E-005
                    97  9.026283898913053E-004
                    98  1.206616885562614E-003
                    99 -5.538039994290741E-005
                   100 -7.113079245983289E-005
                   101  2.714291199857253E-004
                   102 -4.647265306144745E-005
                   103  6.135183279962773E-004
                   104 -2.612339260544324E-004
                   105  9.359519576593909E-005
                   106 -2.505311302827572E-006
                   107  1.219723605744461E-005
                   108  3.704622709689638E-005
                   109  4.648190236489163E-007
                   110  4.031429959200158E-005
                   111  2.628487793552085E-005
                   112 -5.354793346424317E-005
                   113  8.294657776179672E-006
                   114  3.444440302179686E-005
                   115 -7.952874074774018E-005
                   116 -6.542028378810580E-006
                   117  9.318817645853338E-006
                   118  2.099353728699074E-005
                   119 -6.277259532661453E-006
                   120 -2.064960190436969E-006
                   121 -2.188136756952335E-005
                   122 -1.548479067456033E-004
                   123  3.049672523008525E-005
                   124  8.930812608185075E-005
                   125  2.152401048064612E-004
                   126 -6.788629254124118E-005
                   127  5.211466114494209E-005
                   128 -8.684113654740844E-004
                   129 -2.305573644866953E-006
                   130  1.715432458562788E-005
                   131  2.536413140776041E-004
                   132  1.721826466048670E-005
                   133 -5.833770316734189E-005
                   134  6.040816413383696E-004
                   135 -5.026128137601044E-006
                   136  2.251219021848589E-006
                   137  5.438746742544643E-006
                   138 -5.923203091198366E-007
                   139  1.811416191689215E-006
                   140 -1.466927428957208E-004
                   141 -1.519289724843281E-005
                   142  1.174701369874725E-004
                   143  2.864413489974388E-005
                   144 -7.735104033374227E-006
                   145 -2.825487642100975E-005
                   146 -6.001680665435014E-007
                   147 -4.637376361750587E-006
                   148 -8.302237798502767E-006
                   149 -1.613846882161481E-006
                   150 -9.236620251080339E-007
                   151 -2.558264996336923E-006
                   152 -1.553636438805977E-004
                   153  2.866825211129176E-005
                   154  8.877345622379366E-005
                   155  2.185629853068451E-004
                   156  6.682945707583684E-005
                   157 -5.121762912127396E-005
                   158 -8.685102766241466E-004
                   159  2.663271342145255E-006
                   160 -1.781859219295464E-005
                   161  2.532624878722374E-004
                   162 -1.653920383523445E-005
                   163  5.833896161812053E-005
                   164  6.043499217261493E-004
                   165 -4.972395216887798E-006
                   166 -2.261700209796803E-006
                   167 -5.442055559404689E-006
                   168 -6.578470755750288E-007
                   169  1.797998066423782E-006
                   170 -1.467856091273675E-004
                   171  1.485259987022617E-005
                   172 -1.175310939042842E-004
                   173  2.849075024397040E-005
                   174 -7.893905056072830E-006
                   175 -2.816779084614203E-005
                   176  7.009846778218604E-007
                   177  4.593482729138803E-006
                   178 -8.347372820737796E-006
                   179 -1.617053066121819E-006
                   180  9.389745240524197E-007
                   181  2.576892733572211E-006
                   182 -1.316159894767044E-004
                   183 -3.581035913254945E-004
                   184  2.588487175644719E-005
                   185  2.260118577762983E-004
                   186 -3.610144715977897E-008
                   187  1.192799323288554E-007
                   188 -4.361804205405061E-005
                   189  4.548608072693181E-008
                   190 -5.071707465564430E-007
                   191  1.074949194306155E-005
                   192 -4.173984241695495E-009
                   193 -4.342716552562781E-008
                   194 -1.735755382671965E-005
                   195  2.087960241234259E-005
                   196  1.563968142064680E-008
                   197  5.098171379917014E-009
                   198  8.064973148521467E-006
                   199  2.017786161622360E-006
                   200  3.844494749365367E-005
                   201  7.896316032781775E-009
                   202  2.006613082156620E-007
                   203  2.656624883393346E-005
                   204 -2.475556625243107E-006
                   205 -1.176592479662448E-005
                   206  1.639939413559642E-008
                   207 -2.623735363426088E-008
                   208  3.379255195631946E-006
                   209  1.948266079806726E-006
                   210  2.424904082441195E-009
                   211  3.025682743102967E-008
                   212  5.520487557412551E-003
                   213 -3.081675153755058E-003
                   214  4.742767080319044E-004
                   215  3.666008656612666E-004
                   216  4.208959664523405E-004
                   217  5.520452382140913E-003
                   218 -3.081661671904067E-003
                   219 -4.737665716143658E-004
                   220 -3.670038805355942E-004
                   221  4.211139168413783E-004
                   222 -7.000716267309805E-004
                   223 -1.766009597224784E-004
                   224  4.171884796825131E-006
                   225 -3.593895108816705E-005
                   226 -4.404516340546750E-005
                   227 -7.001433245108046E-004
                   228 -1.761956435238546E-004
                   229 -4.224552925327422E-006
                   230  3.596109852588268E-005
                   231 -4.403461434564824E-005
                   232 -2.721194514217128E-004
                   233 -2.779402128153042E-004
                   234 -3.021367052808193E-006
                   235 -1.277138323309638E-005
                   236  8.914301663004136E-007
                   237 -2.721654581190173E-004
                   238 -2.781078342988867E-004
                   239  3.017771000638134E-006
                   240  1.282062757522449E-005
                   241  9.532653926078544E-007
                   242  9.967459462065105E-005
                   243 -5.532303005183679E-005
                   244  9.527756799007810E-009
                   245 -3.154001104445426E-008
                   246  1.455302916191025E-005
 Sym= __2_A__
 Ene=   2.00000000000000     
 Spin= Alpha
 Occup=    1.00000000000000     
                     1 -2.132797399695837E-005
                     2 -1.010246206878096E-004
                     3  2.001604275057728E-003
                     4  5.415469009221616E-005
                     5  1.183520666883204E-003
                     6  1.375172976068071E-006
                     7 -1.097246654778010E-006
                     8  2.297740851877627E-003
                     9 -5.357762540615614E-008
                    10  4.301976961155818E-008
                    11 -9.446326899196127E-005
                    12 -8.064786169927628E-008
                    13  7.185205543621558E-008
                    14 -1.402313020278352E-004
                    15  5.233758066179534E-005
                    16  2.785363471973776E-008
                    17 -3.726488007459565E-008
                    18  2.218846765081452E-005
                    19 -2.705224454612091E-005
                    20 -1.410980131422989E-004
                    21 -3.168263755117057E-008
                    22  8.501512873728773E-008
                    23 -8.866251056299143E-005
                    24  1.254717251756390E-004
                    25  1.953195948098102E-004
                    26 -2.687041195269308E-007
                    27  2.883822500268019E-007
                    28 -4.270959657652132E-005
                    29 -2.960223228238533E-005
                    30  4.877485777933991E-008
                    31  3.710294112732596E-009
                    32   1.00103586694304     
                    33  8.982977762622944E-003
                    34  2.612761315348428E-003
                    35 -7.900391219864649E-003
                    36 -2.042589830899623E-006
                    37  1.617061793821028E-006
                    38 -3.392917648783882E-003
                    39  7.512245310166633E-007
                    40 -5.926494413795630E-007
                    41  1.249695993722133E-003
                    42  2.320633903984942E-006
                    43 -1.909307514801424E-006
                    44  3.844392861208296E-003
                    45  3.280913970272947E-004
                    46  5.880079386428433E-007
                    47 -8.650061219861983E-008
                    48 -4.028821066476614E-004
                    49  7.349018185053285E-006
                    50  4.040903289469129E-004
                    51 -7.658498101005540E-008
                    52 -7.346497981645467E-007
                    53  8.441406336211092E-004
                    54  1.899809042204204E-005
                    55  3.178035816968468E-004
                    56 -2.886891313424883E-007
                    57  5.046727839886075E-007
                    58 -1.836853594985017E-004
                    59  7.449822124303614E-006
                    60  1.312232287409308E-007
                    61  1.149157619658950E-007
                    62  1.091651146843491E-002
                    63 -1.867286753084260E-003
                    64 -2.756620101459647E-004
                    65  2.948855939295709E-003
                    66 -2.827344371175790E-006
                    67  2.076812028457934E-004
                    68 -9.520959366655880E-005
                    69 -3.442588716021489E-005
                    70  5.125007718531275E-004
                    71  8.223170910353348E-005
                    72  1.022784988014409E-004
                    73 -1.895942980998220E-003
                    74  1.185284180729793E-004
                    75 -2.222652379873811E-005
                    76  1.968017196306596E-006
                    77  2.045653899524556E-005
                    78  2.680615129791352E-005
                    79  2.644267696809320E-006
                    80  7.862485586518171E-004
                    81  3.811501736659615E-005
                    82 -4.419520355362819E-004
                    83 -1.339818266695521E-005
                    84 -1.791245354341310E-005
                    85  5.554724190135464E-005
                    86 -5.839683190687388E-007
                    87  3.273687261250687E-005
                    88 -1.124942722501272E-004
                    89 -2.529527308732216E-006
                    90  5.855676348762413E-006
                    91  5.163128250261304E-005
                    92  1.091648183275318E-002
                    93 -1.867368359266865E-003
                    94 -2.757096270793307E-004
                    95  2.949061102377501E-003
                    96  2.713166546985957E-006
                    97 -2.075918425619991E-004
                    98 -9.543892352996877E-005
                    99  3.452086878154418E-005
                   100 -5.125709952416414E-004
                   101  8.184979692797177E-005
                   102 -1.021454680386543E-004
                   103  1.895975252659482E-003
                   104  1.203073817004125E-004
                   105 -2.224193320585052E-005
                   106 -2.044475840695869E-006
                   107 -2.045488920367672E-005
                   108  2.678271825139434E-005
                   109  2.621776786084411E-006
                   110  7.871384766484021E-004
                   111 -3.648038614718103E-005
                   112  4.407315236109813E-004
                   113 -1.299823918795073E-005
                   114 -1.734426234751779E-005
                   115  5.560927920689249E-005
                   116  6.295946306520568E-007
                   117 -3.242987384448970E-005
                   118 -1.126090877315175E-004
                   119 -2.522921482710804E-006
                   120 -5.686406724476723E-006
                   121 -5.150220670715096E-005
                   122 -1.717972339005112E-004
                   123 -7.494257882821387E-004
                   124  2.288854615699531E-004
                   125 -1.826317170475715E-004
                   126 -1.074117931282526E-005
                   127 -3.759131087496183E-005
                   128 -2.075716479255132E-004
                   129  2.156824125753621E-005
                   130  3.268898898591974E-005
                   131  5.637772347972281E-004
                   132 -1.322194741775205E-005
                   133  3.106305579262921E-004
                   134  6.630508399867205E-004
                   135 -2.149988302323389E-005
                   136 -4.024860772283133E-006
                   137  4.881210664299507E-005
                   138  1.550386527629072E-005
                   139  4.240967364916684E-006
                   140 -3.060386906900127E-004
                   141 -3.754535200807288E-006
                   142 -2.518883235146337E-004
                   143 -2.768129907338630E-005
                   144 -2.151997903517039E-005
                   145 -5.730117602813279E-006
                   146  5.698272623246215E-006
                   147 -2.772727750340471E-005
                   148 -3.061848805892676E-005
                   149 -4.860173798948660E-006
                   150  4.475959039765151E-007
                   151 -7.329901559721917E-006
                   152 -1.715032636579337E-004
                   153 -7.484510307788479E-004
                   154  2.289722170795470E-004
                   155 -1.837386460477471E-004
                   156  1.049304856352630E-005
                   157  3.777689937960649E-005
                   158 -2.075526746235794E-004
                   159 -2.089869846812893E-005
                   160 -3.315925358859707E-005