[Molden Format]
[Atoms] AU
  N     1    7    -0.0030294400    0.0002010500   -4.3924779200        
  C     2    6    -0.0051800300   -0.0026050900   -1.7660466100        
  C     3    6     0.1892393200   -2.3243369300   -0.4031240400        
  C     4    6    -0.2018351700    2.3162094300   -0.3984861800        
  C     5    6     0.2094405600   -2.3107525400    2.1755681600        
  C     6    6    -0.2262593400    2.2971148300    2.1801345600        
  C     7    6    -0.0094707600   -0.0082037600    3.4740595500        
  H     8    1    -1.6393391300   -0.2553341400   -5.3915231300        
  H     9    1     1.6349136800    0.2578676000   -5.3882937800        
  H    10    1     0.3373821600   -4.0335149800   -1.4690379100        
  H    11    1    -0.3482352100    4.0276615300   -1.4609865500        
  H    12    1     0.3806826200   -4.0355558200    3.2212941700        
  H    13    1    -0.3992167100    4.0196799100    3.2292619900        
  H    14    1    -0.0111320800   -0.0103715100    5.5029787900        
[5D]
[7F]
[GTO]
  1  0
   s    12 1.00
  0.114200D+05  0.172695D-04
  0.171200D+04  0.134411D-03
  0.389300D+03  0.694561D-03
  0.110000D+03  0.278531D-02
  0.355700D+02  0.863457D-02
  0.125400D+02  0.199805D-01
  0.464400D+01  0.262908D-01
  0.129300D+01 -0.243845D-01
  0.511800D+00 -0.924934D-01
  0.178700D+00 -0.339683D+00
  0.246240D-01  0.345111D+00
  0.112530D-01  0.752750D+00
   s    10 1.00
  0.114200D+05  0.523000D-03
  0.171200D+04  0.404500D-02
  0.389300D+03  0.207750D-01
  0.110000D+03  0.807269D-01
  0.355700D+02  0.233074D+00
  0.125400D+02  0.433501D+00
  0.464400D+01  0.347472D+00
  0.129300D+01  0.412620D-01
  0.511800D+00 -0.850799D-02
  0.178700D+00  0.238400D-02
   s    10 1.00
  0.114200D+05 -0.115000D-03
  0.171200D+04 -0.895000D-03
  0.389300D+03 -0.462400D-02
  0.110000D+03 -0.185280D-01
  0.355700D+02 -0.573390D-01
  0.125400D+02 -0.132076D+00
  0.464400D+01 -0.172510D+00
  0.129300D+01  0.151814D+00
  0.511800D+00  0.599944D+00
  0.178700D+00  0.387462D+00
   s     1 1.00
  0.129300D+01  0.100000D+01
   s     1 1.00
  0.178700D+00  0.100000D+01
   p     5 1.00
  0.266300D+02  0.146700D-01
  0.594800D+01  0.917640D-01
  0.174200D+01  0.298683D+00
  0.555000D+00  0.498487D+00
  0.172500D+00  0.337023D+00
   p     1 1.00
  0.174200D+01  0.100000D+01
   p     1 1.00
  0.555000D+00  0.100000D+01
   d     1 1.00
  0.165400D+01  0.100000D+01
   d     1 1.00
  0.469000D+00  0.100000D+01
   f     1 1.00
  0.109300D+01  0.100000D+01
  
  2  0
   s    10 1.00
  0.823600D+04  0.531000D-03
  0.123500D+04  0.410800D-02
  0.280800D+03  0.210870D-01
  0.792700D+02  0.818530D-01
  0.255900D+02  0.234817D+00
  0.899700D+01  0.434401D+00
  0.331900D+01  0.346129D+00
  0.905900D+00  0.393780D-01
  0.364300D+00 -0.898300D-02
  0.128500D+00  0.238500D-02
   s    10 1.00
  0.823600D+04 -0.113000D-03
  0.123500D+04 -0.878000D-03
  0.280800D+03 -0.454000D-02
  0.792700D+02 -0.181330D-01
  0.255900D+02 -0.557600D-01
  0.899700D+01 -0.126895D+00
  0.331900D+01 -0.170352D+00
  0.905900D+00  0.140382D+00
  0.364300D+00  0.598684D+00
  0.128500D+00  0.395389D+00
   s     1 1.00
  0.905900D+00  0.100000D+01
   s     1 1.00
  0.364300D+00  0.100000D+01
   p     5 1.00
  0.187100D+02  0.140310D-01
  0.413300D+01  0.868660D-01
  0.120000D+01  0.290216D+00
  0.382700D+00  0.501008D+00
  0.120900D+00  0.343406D+00
   p     1 1.00
  0.382700D+00  0.100000D+01
   p     1 1.00
  0.120900D+00  0.100000D+01
   d     1 1.00
  0.109700D+01  0.100000D+01
   d     1 1.00
  0.318000D+00  0.100000D+01
   f     1 1.00
  0.761000D+00  0.100000D+01
  
  3  0
   s    10 1.00
  0.823600D+04  0.531000D-03
  0.123500D+04  0.410800D-02
  0.280800D+03  0.210870D-01
  0.792700D+02  0.818530D-01
  0.255900D+02  0.234817D+00
  0.899700D+01  0.434401D+00
  0.331900D+01  0.346129D+00
  0.905900D+00  0.393780D-01
  0.364300D+00 -0.898300D-02
  0.128500D+00  0.238500D-02
   s    10 1.00
  0.823600D+04 -0.113000D-03
  0.123500D+04 -0.878000D-03
  0.280800D+03 -0.454000D-02
  0.792700D+02 -0.181330D-01
  0.255900D+02 -0.557600D-01
  0.899700D+01 -0.126895D+00
  0.331900D+01 -0.170352D+00
  0.905900D+00  0.140382D+00
  0.364300D+00  0.598684D+00
  0.128500D+00  0.395389D+00
   s     1 1.00
  0.905900D+00  0.100000D+01
   s     1 1.00
  0.364300D+00  0.100000D+01
   p     5 1.00
  0.187100D+02  0.140310D-01
  0.413300D+01  0.868660D-01
  0.120000D+01  0.290216D+00
  0.382700D+00  0.501008D+00
  0.120900D+00  0.343406D+00
   p     1 1.00
  0.382700D+00  0.100000D+01
   p     1 1.00
  0.120900D+00  0.100000D+01
   d     1 1.00
  0.109700D+01  0.100000D+01
   d     1 1.00
  0.318000D+00  0.100000D+01
   f     1 1.00
  0.761000D+00  0.100000D+01
  
  4  0
   s    10 1.00
  0.823600D+04  0.531000D-03
  0.123500D+04  0.410800D-02
  0.280800D+03  0.210870D-01
  0.792700D+02  0.818530D-01
  0.255900D+02  0.234817D+00
  0.899700D+01  0.434401D+00
  0.331900D+01  0.346129D+00
  0.905900D+00  0.393780D-01
  0.364300D+00 -0.898300D-02
  0.128500D+00  0.238500D-02
   s    10 1.00
  0.823600D+04 -0.113000D-03
  0.123500D+04 -0.878000D-03
  0.280800D+03 -0.454000D-02
  0.792700D+02 -0.181330D-01
  0.255900D+02 -0.557600D-01
  0.899700D+01 -0.126895D+00
  0.331900D+01 -0.170352D+00
  0.905900D+00  0.140382D+00
  0.364300D+00  0.598684D+00
  0.128500D+00  0.395389D+00
   s     1 1.00
  0.905900D+00  0.100000D+01
   s     1 1.00
  0.364300D+00  0.100000D+01
   p     5 1.00
  0.187100D+02  0.140310D-01
  0.413300D+01  0.868660D-01
  0.120000D+01  0.290216D+00
  0.382700D+00  0.501008D+00
  0.120900D+00  0.343406D+00
   p     1 1.00
  0.382700D+00  0.100000D+01
   p     1 1.00
  0.120900D+00  0.100000D+01
   d     1 1.00
  0.109700D+01  0.100000D+01
   d     1 1.00
  0.318000D+00  0.100000D+01
   f     1 1.00
  0.761000D+00  0.100000D+01
  
  5  0
   s    10 1.00
  0.823600D+04  0.531000D-03
  0.123500D+04  0.410800D-02
  0.280800D+03  0.210870D-01
  0.792700D+02  0.818530D-01
  0.255900D+02  0.234817D+00
  0.899700D+01  0.434401D+00
  0.331900D+01  0.346129D+00
  0.905900D+00  0.393780D-01
  0.364300D+00 -0.898300D-02
  0.128500D+00  0.238500D-02
   s    10 1.00
  0.823600D+04 -0.113000D-03
  0.123500D+04 -0.878000D-03
  0.280800D+03 -0.454000D-02
  0.792700D+02 -0.181330D-01
  0.255900D+02 -0.557600D-01
  0.899700D+01 -0.126895D+00
  0.331900D+01 -0.170352D+00
  0.905900D+00  0.140382D+00
  0.364300D+00  0.598684D+00
  0.128500D+00  0.395389D+00
   s     1 1.00
  0.905900D+00  0.100000D+01
   s     1 1.00
  0.364300D+00  0.100000D+01
   p     5 1.00
  0.187100D+02  0.140310D-01
  0.413300D+01  0.868660D-01
  0.120000D+01  0.290216D+00
  0.382700D+00  0.501008D+00
  0.120900D+00  0.343406D+00
   p     1 1.00
  0.382700D+00  0.100000D+01
   p     1 1.00
  0.120900D+00  0.100000D+01
   d     1 1.00
  0.109700D+01  0.100000D+01
   d     1 1.00
  0.318000D+00  0.100000D+01
   f     1 1.00
  0.761000D+00  0.100000D+01
  
  6  0
   s    10 1.00
  0.823600D+04  0.531000D-03
  0.123500D+04  0.410800D-02
  0.280800D+03  0.210870D-01
  0.792700D+02  0.818530D-01
  0.255900D+02  0.234817D+00
  0.899700D+01  0.434401D+00
  0.331900D+01  0.346129D+00
  0.905900D+00  0.393780D-01
  0.364300D+00 -0.898300D-02
  0.128500D+00  0.238500D-02
   s    10 1.00
  0.823600D+04 -0.113000D-03
  0.123500D+04 -0.878000D-03
  0.280800D+03 -0.454000D-02
  0.792700D+02 -0.181330D-01
  0.255900D+02 -0.557600D-01
  0.899700D+01 -0.126895D+00
  0.331900D+01 -0.170352D+00
  0.905900D+00  0.140382D+00
  0.364300D+00  0.598684D+00
  0.128500D+00  0.395389D+00
   s     1 1.00
  0.905900D+00  0.100000D+01
   s     1 1.00
  0.364300D+00  0.100000D+01
   p     5 1.00
  0.187100D+02  0.140310D-01
  0.413300D+01  0.868660D-01
  0.120000D+01  0.290216D+00
  0.382700D+00  0.501008D+00
  0.120900D+00  0.343406D+00
   p     1 1.00
  0.382700D+00  0.100000D+01
   p     1 1.00
  0.120900D+00  0.100000D+01
   d     1 1.00
  0.109700D+01  0.100000D+01
   d     1 1.00
  0.318000D+00  0.100000D+01
   f     1 1.00
  0.761000D+00  0.100000D+01
  
  7  0
   s    10 1.00
  0.823600D+04  0.531000D-03
  0.123500D+04  0.410800D-02
  0.280800D+03  0.210870D-01
  0.792700D+02  0.818530D-01
  0.255900D+02  0.234817D+00
  0.899700D+01  0.434401D+00
  0.331900D+01  0.346129D+00
  0.905900D+00  0.393780D-01
  0.364300D+00 -0.898300D-02
  0.128500D+00  0.238500D-02
   s    10 1.00
  0.823600D+04 -0.113000D-03
  0.123500D+04 -0.878000D-03
  0.280800D+03 -0.454000D-02
  0.792700D+02 -0.181330D-01
  0.255900D+02 -0.557600D-01
  0.899700D+01 -0.126895D+00
  0.331900D+01 -0.170352D+00
  0.905900D+00  0.140382D+00
  0.364300D+00  0.598684D+00
  0.128500D+00  0.395389D+00
   s     1 1.00
  0.905900D+00  0.100000D+01
   s     1 1.00
  0.364300D+00  0.100000D+01
   p     5 1.00
  0.187100D+02  0.140310D-01
  0.413300D+01  0.868660D-01
  0.120000D+01  0.290216D+00
  0.382700D+00  0.501008D+00
  0.120900D+00  0.343406D+00
   p     1 1.00
  0.382700D+00  0.100000D+01
   p     1 1.00
  0.120900D+00  0.100000D+01
   d     1 1.00
  0.109700D+01  0.100000D+01
   d     1 1.00
  0.318000D+00  0.100000D+01
   f     1 1.00
  0.761000D+00  0.100000D+01
  
  8  0
   s     4 1.00
  0.130100D+02  0.196850D-01
  0.196200D+01  0.137977D+00
  0.444600D+00  0.478148D+00
  0.122000D+00  0.501240D+00
   s     1 1.00
  0.122000D+00  0.100000D+01
   p     1 1.00
  0.727000D+00  0.100000D+01
  
  9  0
   s     4 1.00
  0.130100D+02  0.196850D-01
  0.196200D+01  0.137977D+00
  0.444600D+00  0.478148D+00
  0.122000D+00  0.501240D+00
   s     1 1.00
  0.122000D+00  0.100000D+01
   p     1 1.00
  0.727000D+00  0.100000D+01
  
 10  0
   s     4 1.00
  0.130100D+02  0.196850D-01
  0.196200D+01  0.137977D+00
  0.444600D+00  0.478148D+00
  0.122000D+00  0.501240D+00
   s     1 1.00
  0.122000D+00  0.100000D+01
   p     1 1.00
  0.727000D+00  0.100000D+01
  
 11  0
   s     4 1.00
  0.130100D+02  0.196850D-01
  0.196200D+01  0.137977D+00
  0.444600D+00  0.478148D+00
  0.122000D+00  0.501240D+00
   s     1 1.00
  0.122000D+00  0.100000D+01
   p     1 1.00
  0.727000D+00  0.100000D+01
  
 12  0
   s     4 1.00
  0.130100D+02  0.196850D-01
  0.196200D+01  0.137977D+00
  0.444600D+00  0.478148D+00
  0.122000D+00  0.501240D+00
   s     1 1.00
  0.122000D+00  0.100000D+01
   p     1 1.00
  0.727000D+00  0.100000D+01
  
 13  0
   s     4 1.00
  0.130100D+02  0.196850D-01
  0.196200D+01  0.137977D+00
  0.444600D+00  0.478148D+00
  0.122000D+00  0.501240D+00
   s     1 1.00
  0.122000D+00  0.100000D+01
   p     1 1.00
  0.727000D+00  0.100000D+01
  
 14  0
   s     4 1.00
  0.130100D+02  0.196850D-01
  0.196200D+01  0.137977D+00
  0.444600D+00  0.478148D+00
  0.122000D+00  0.501240D+00
   s     1 1.00
  0.122000D+00  0.100000D+01
   p     1 1.00
  0.727000D+00  0.100000D+01
  
[MO]
 Sym= __1_a__
 Ene=  0.000000000000000E+000
 Spin= Alpha
 Occup=    2.00000000000000     
                     1  1.193685658005960E-004
                     2  0.997407963088367     
                     3  1.694056255399600E-002
                     4  2.244816254098210E-003
                     5  2.639541914305030E-004
                     6 -2.533372439820690E-006
                     7 -3.339288634496920E-006
                     8  3.103066125826880E-003
                     9  3.357966797129930E-007
                    10  4.588470507048710E-007
                    11 -4.143826435447150E-004
                    12  4.797996190576550E-007
                    13  5.907047685139150E-007
                    14 -5.864368480920860E-004
                    15  1.498371647034275E-004
                    16 -5.778126116658890E-008
                    17 -3.756564797218160E-007
                    18  1.279798981000804E-004
                    19  4.636965720318190E-005
                    20  1.332846184188371E-004
                    21 -8.640127712224810E-007
                    22  1.963158584540520E-007
                    23 -5.821883058253920E-004
                    24 -1.854443788507760E-004
                    25 -2.213279984880859E-004
                    26 -6.014301488098321E-007
                    27 -4.873556044565610E-007
                    28 -8.002562853391360E-005
                    29 -3.162879832501560E-005
                    30 -3.896249158526284E-008
                    31  1.359476597046927E-007
                    32 -2.469462402863250E-004
                    33  3.417590131561530E-003
                    34  1.506436981487720E-004
                    35 -7.381390373658610E-004
                    36  6.375611384593590E-006
                    37  8.347332054367160E-006
                    38 -7.790609703702240E-003
                    39 -2.310530925911540E-008
                    40 -1.212349051117290E-007
                    41  4.395833531115410E-005
                    42 -3.193621526341960E-006
                    43 -4.141170337052230E-006
                    44  3.899871721418040E-003
                    45  4.167421682602505E-004
                    46 -4.977556779424960E-007
                    47 -8.548081613626950E-007
                    48  9.892803603411480E-005
                    49  1.224974363025340E-005
                    50  7.601162868181678E-004
                    51 -9.177852755682640E-007
                    52 -1.699125215616750E-006
                    53  1.335744116212374E-004
                    54  3.452538121175270E-005
                    55 -5.905475014830700E-005
                    56 -9.991892520875909E-008
                    57 -1.859069234319914E-007
                    58  1.554356018215084E-005
                    59 -1.477181931020160E-006
                    60  1.720424947393603E-008
                    61 -2.263413366948203E-008
                    62 -2.150623504693290E-004
                    63 -1.958443890863760E-003
                    64  1.236706628261550E-005
                    65  8.742937594761970E-004
                    66  8.403007733661319E-005
                    67 -9.963928140609159E-004
                    68  1.420720203416130E-003
                    69 -5.216370222365320E-007
                    70  9.179697506245240E-005
                    71  8.580502243760230E-005
                    72  6.158082782380350E-005
                    73 -6.700840816947310E-004
                    74 -3.451058064673240E-004
                    75  1.042375812327134E-004
                    76  1.298545473365490E-006
                    77 -9.588234397266720E-006
                    78  4.105466311563640E-005
                    79  6.652847127321620E-006
                    80  5.173523052897627E-005
                    81 -1.048392921786030E-007
                    82 -2.838258673653270E-005
                    83  4.214906990915800E-005
                    84  1.147841911090250E-005
                    85 -6.675886107163241E-005
                    86  9.572129780875487E-007
                    87  6.167437982548841E-006
                    88  1.837047440196498E-005
                    89  2.246167085456970E-006
                    90  7.722672617233510E-006
                    91  3.092014661711805E-005
                    92 -2.150165756684210E-004
                    93 -1.958261738906980E-003
                    94  1.257550193722460E-005
                    95  8.736080204591789E-004
                    96 -8.635407978788320E-005
                    97  9.933820041089550E-004
                    98  1.422846885435010E-003
                    99  4.046132639627260E-007
                   100 -9.216317589823770E-005
                   101  8.479912248758850E-005
                   102 -6.095596244259830E-005
                   103  6.700884373086070E-004
                   104 -3.436086191223000E-004
                   105  1.042263470664454E-004
                   106 -1.513688370505760E-006
                   107  9.145571673423821E-006
                   108  4.107896131569860E-005
                   109  6.640150841081290E-006
                   110  5.128148125128613E-005
                   111  6.964385985555531E-008
                   112  2.799515404411810E-005
                   113  4.209632757499340E-005
                   114  1.141756361982130E-005
                   115 -6.663620801157546E-005
                   116 -1.168432967516439E-006
                   117 -6.572693641522198E-006
                   118  1.828182749427490E-005
                   119  2.182584072369120E-006
                   120 -7.691975629193395E-006
                   121 -3.097098776448916E-005
                   122 -1.736632299362470E-004
                   123  3.286801741672030E-005
                   124  7.524979057317100E-005
                   125  3.112338742296860E-004
                   126 -2.685664790298760E-005
                   127  7.428794198437959E-005
                   128 -9.511950538850870E-004
                   129 -1.221323090537640E-006
                   130  8.997966665660619E-006
                   131  1.722768082822790E-004
                   132 -1.878504056354230E-006
                   133  4.236577711191410E-005
                   134  5.708487980378341E-004
                   135  6.113438852697571E-006
                   136 -4.789861836924190E-007
                   137  1.069656484877930E-005
                   138 -9.721183948118940E-007
                   139  2.760797894047470E-007
                   140 -1.263645947414165E-004
                   141 -7.531678589801040E-006
                   142  7.360741131876560E-005
                   143  3.398317026523700E-005
                   144  3.834510100081270E-006
                   145 -2.145538853441857E-005
                   146  7.595483034927008E-007
                   147 -1.006471043537546E-005
                   148 -7.566737934601200E-006
                   149 -1.438344132548670E-006
                   150 -9.429217184808282E-007
                   151 -2.667441382201935E-006
                   152 -1.742637208135270E-004
                   153  3.074106038243280E-005
                   154  7.464370681719499E-005
                   155  3.150406377445360E-004
                   156  2.841036699161740E-005
                   157 -7.218142303753330E-005
                   158 -9.512642428517450E-004
                   159  9.955553922647891E-007
                   160 -9.815258720103219E-006
                   161  1.717906884932170E-004
                   162  8.785208153446680E-007
                   163 -4.290052788888190E-005
                   164  5.709161625695240E-004
                   165  6.143896587136601E-006
                   166  4.599322852304900E-007
                   167 -1.072606673414580E-005
                   168 -1.059205817873906E-006
                   169  2.799743205172530E-007
                   170 -1.264415956944875E-004
                   171  7.976314190232870E-006
                   172 -7.350494874313480E-005
                   173  3.375816059711540E-005
                   174  3.929337245286530E-006
                   175 -2.139361880081100E-005
                   176 -8.685574182992815E-007
                   177  9.983183794764827E-006
                   178 -7.589037655322640E-006
                   179 -1.465699057462560E-006
                   180  9.346793745331373E-007
                   181  2.702150344987851E-006
                   182 -1.497338905998700E-004
                   183 -4.017951234183250E-004
                   184  2.026114122441450E-005
                   185  3.100912985518100E-004
                   186  4.080781672083820E-008
                   187  1.747423912290040E-007
                   188 -6.157714478206561E-005
                   189  3.502579369702100E-008
                   190 -5.586012683469130E-007
                   191  2.355451323083750E-005
                   192  1.022080341369360E-007
                   193  1.152655732932130E-007
                   194 -1.232985977511810E-004
                   195  2.049668015005518E-005
                   196 -2.437282571390640E-008
                   197 -1.488633848133560E-008
                   198  7.235104836859280E-006
                   199  1.742149481412170E-006
                   200  2.628574230176805E-005
                   201 -6.192460446157140E-008
                   202  2.101262880009400E-007
                   203 -4.367377216771180E-007
                   204 -6.038037473267310E-007
                   205 -1.370749247166345E-005
                   206 -1.846975047993953E-008
                   207 -5.114966674801031E-008
                   208  4.704765421487540E-006
                   209  1.160570544886800E-006
                   210  1.302220448868559E-008
                   211  2.653407312596382E-008
                   212  8.032634426219310E-003
                   213 -4.199342157732500E-003
                   214  7.729521371823210E-004
                   215  1.175937189985520E-004
                   216  5.127689647446660E-004
                   217  8.032627584073400E-003
                   218 -4.199342757669340E-003
                   219 -7.737900215861980E-004
                   220 -1.186925516218400E-004
                   221  5.112497781467550E-004
                   222 -7.530532939218830E-004
                   223 -1.977916889268280E-004
                   224  4.065313322141620E-006
                   225 -4.300041916869290E-005
                   226 -5.302522113722640E-005
                   227 -7.531335680229289E-004
                   228 -1.973313219721500E-004
                   229 -3.976920664213530E-006
                   230  4.309011902230290E-005
                   231 -5.297525176076050E-005
                   232 -3.239465212157730E-004
                   233 -1.864141457866910E-004
                   234  9.455622680033180E-007
                   235 -1.921313301894970E-005
                   236 -3.419737528519620E-006
                   237 -3.240026099165420E-004
                   238 -1.865973411586160E-004
                   239 -9.460008150437710E-007
                   240  1.927833703736560E-005
                   241 -3.321831305778130E-006
                   242  1.070979577795050E-004
                   243  2.957014672681740E-005
                   244 -1.434552388113030E-008
                   245 -4.817161458032030E-008
                   246  2.008335938309540E-005
 Sym= __2_a__
 Ene=  0.000000000000000E+000
 Spin= Alpha
 Occup=    2.00000000000000     
                     1  1.086272975358960E-006
                     2 -6.748250924203160E-005
                     3  1.619738136377420E-003
                     4  4.552004246578780E-005
                     5  1.100458352969860E-003
                     6 -1.296415523474890E-006
                     7 -1.680322024131250E-006
                     8  1.579674175388960E-003
                     9  8.325746182838580E-008
                    10  1.027128116473230E-007
                    11 -1.003825053671560E-004
                    12 -1.233224961886850E-008
                    13 -1.309493421283030E-008
                    14  1.586742497751080E-005
                    15  4.625874241152618E-005
                    16 -6.756934525450110E-008
                    17 -9.136912572147811E-008
                    18  2.812354916123820E-006
                    19 -3.858340964182210E-006
                    20 -1.011872169391917E-004
                    21  1.752563312399070E-007
                    22  1.896121501823140E-007
                    23  1.414017225232294E-005
                    24  1.848717775480400E-005
                    25  1.911197100738505E-004
                    26  2.898788660326413E-007
                    27  5.746334920025478E-007
                    28 -5.504191112713280E-005
                    29 -1.367923823653180E-005
                    30 -3.705250657179511E-008
                    31  8.615555180377809E-008
                    32   1.00108412917663     
                    33  8.623742967668281E-003
                    34  2.495669866747170E-003
                    35 -7.875596095994419E-003
                    36  1.953334375423790E-006
                    37  2.549145589882070E-006
                    38 -2.389560765293090E-003
                    39 -7.670717375537000E-007
                    40 -9.962599315937670E-007
                    41  9.376452231581280E-004
                    42 -2.627244252596340E-006
                    43 -3.504070087849820E-006
                    44  3.217360156638600E-003
                    45  2.704959961870290E-004
                    46 -7.234988852804250E-007
                    47 -1.735212692811640E-007
                    48 -3.484555632268840E-004
                    49 -5.140586075660610E-005
                    50  2.329120554207256E-004
                    51  3.548739204812690E-007
                    52 -1.057489865562880E-006
                    53  6.915945258274100E-004
                    54  1.121440407876870E-004
                    55  2.804126286318964E-004
                    56  3.399055891598206E-007
                    57  9.568755450523157E-007
                    58 -1.465769935374360E-004
                    59 -1.916037914263460E-005
                    60 -1.215026249480329E-007
                    61  2.126171933562875E-007
                    62  1.161775753875280E-002
                    63 -1.658222946495890E-003
                    64 -2.853655994659570E-004
                    65  2.813784031300660E-003
                    66 -2.249904438712220E-005
                    67  2.827505279471070E-004
                    68 -2.025143396009860E-004
                    69 -4.451239893709310E-005
                    70  5.345573703259620E-004
                    71  1.435585624949410E-004
                    72  1.482882455446660E-004
                    73 -1.682918684989740E-003
                    74  2.072642786649300E-004
                    75 -2.909157783690359E-005
                    76  3.891401117866400E-007
                    77  7.591548575841010E-006
                    78  1.476095036200232E-005
                    79  2.076853175768260E-006
                    80  7.063396337321871E-004
                    81  3.354102356470510E-005
                    82 -3.539341118425410E-004
                    83 -6.996905807710440E-005
                    84 -1.393241784904190E-005
                    85  4.879480551289056E-005
                    86 -5.550735996737140E-007
                    87  1.289174104785647E-005
                    88 -1.094368193069314E-004
                    89 -1.692366368241990E-005
                    90  1.034637611370543E-005
                    91  4.126875346010265E-005
                    92  1.161774971165620E-002
                    93 -1.658301211898620E-003
                    94 -2.854160865177480E-004
                    95  2.813994945369210E-003
                    96  2.282862307917310E-005
                    97 -2.823201633896900E-004
                    98 -2.031104446129790E-004
                    99  4.427476574479410E-005
                   100 -5.348483056135250E-004
                   101  1.426564766505900E-004
                   102 -1.486438153842020E-004
                   103  1.682624968758830E-003
                   104  2.104643315204040E-004
                   105 -2.910598270874874E-005
                   106 -2.777086194532590E-007
                   107 -7.517957465777880E-006
                   108  1.474398609116170E-005
                   109  2.089956831162150E-006
                   110  7.076405850436402E-004
                   111 -3.569581656623920E-005
                   112  3.514911607838620E-004
                   113 -6.913499016433420E-005
                   114 -1.443202347981620E-005
                   115  4.884154739861523E-005
                   116  4.094849994793509E-007
                   117 -1.230807738114153E-005
                   118 -1.095653025138284E-004
                   119 -1.700216517734680E-005
                   120 -1.052144255784096E-005
                   121 -4.094738312819981E-005
                   122 -1.447562038277070E-004
                   123 -7.609420353775480E-004
                   124  2.263245365158930E-004
                   125 -1.760133556165990E-004
                   126 -6.798152026254870E-010
                   127 -2.444143079258720E-005
                   128 -1.581885243665790E-004
                   129  9.232376139952970E-006
                   130 -1.141520418407750E-005
                   131  5.922281361753050E-004
                   132 -2.200149394761560E-005
                   133  2.578974695253820E-004
                   134  6.275111761963860E-004
                   135 -2.580909148092076E-005
                   136 -3.893143079304300E-006
                   137  3.907027659857450E-005
                   138  1.425359303212556E-005
                   139  3.481324851133710E-006
                   140 -2.799539353350153E-004
                   141  9.289028675338700E-006
                   142 -1.818224514437080E-004
                   143 -1.631172058456106E-005
                   144 -9.605878608580440E-006
                   145 -6.501426225864900E-006
                   146  3.655358751873886E-006
                   147 -2.533983472140428E-005
                   148 -3.731949611337280E-005
                   149 -7.152085153770400E-006
                   150 -5.862925117742994E-007
                   151 -4.365389872646097E-006
                   152 -1.444756883384810E-004
                   153 -7.600120790496291E-004
                   154  2.264236324209890E-004
                   155 -1.771236812178160E-004
                   156  2.584907994391340E-007
                   157  2.476525514242070E-005
                   158 -1.581422977264290E-004
                   159 -1.021130925816870E-005
                   160  1.022340990446090E-005