[Molden Format]
[Atoms] AU
  N     1    7    -0.0030294400    0.0002010500   -4.3924779200        
  C     2    6    -0.0051800300   -0.0026050900   -1.7660466100        
  C     3    6     0.1892393200   -2.3243369300   -0.4031240400        
  C     4    6    -0.2018351700    2.3162094300   -0.3984861800        
  C     5    6     0.2094405600   -2.3107525400    2.1755681600        
  C     6    6    -0.2262593400    2.2971148300    2.1801345600        
  C     7    6    -0.0094707600   -0.0082037600    3.4740595500        
  H     8    1    -1.6393391300   -0.2553341400   -5.3915231300        
  H     9    1     1.6349136800    0.2578676000   -5.3882937800        
  H    10    1     0.3373821600   -4.0335149800   -1.4690379100        
  H    11    1    -0.3482352100    4.0276615300   -1.4609865500        
  H    12    1     0.3806826200   -4.0355558200    3.2212941700        
  H    13    1    -0.3992167100    4.0196799100    3.2292619900        
  H    14    1    -0.0111320800   -0.0103715100    5.5029787900        
[5D]
[7F]
[GTO]
  1  0
   s    12 1.00
  0.114200D+05  0.172695D-04
  0.171200D+04  0.134411D-03
  0.389300D+03  0.694561D-03
  0.110000D+03  0.278531D-02
  0.355700D+02  0.863457D-02
  0.125400D+02  0.199805D-01
  0.464400D+01  0.262908D-01
  0.129300D+01 -0.243845D-01
  0.511800D+00 -0.924934D-01
  0.178700D+00 -0.339683D+00
  0.246240D-01  0.345111D+00
  0.112530D-01  0.752750D+00
   s    10 1.00
  0.114200D+05  0.523000D-03
  0.171200D+04  0.404500D-02
  0.389300D+03  0.207750D-01
  0.110000D+03  0.807269D-01
  0.355700D+02  0.233074D+00
  0.125400D+02  0.433501D+00
  0.464400D+01  0.347472D+00
  0.129300D+01  0.412620D-01
  0.511800D+00 -0.850799D-02
  0.178700D+00  0.238400D-02
   s    10 1.00
  0.114200D+05 -0.115000D-03
  0.171200D+04 -0.895000D-03
  0.389300D+03 -0.462400D-02
  0.110000D+03 -0.185280D-01
  0.355700D+02 -0.573390D-01
  0.125400D+02 -0.132076D+00
  0.464400D+01 -0.172510D+00
  0.129300D+01  0.151814D+00
  0.511800D+00  0.599944D+00
  0.178700D+00  0.387462D+00
   s     1 1.00
  0.129300D+01  0.100000D+01
   s     1 1.00
  0.178700D+00  0.100000D+01
   p     5 1.00
  0.266300D+02  0.146700D-01
  0.594800D+01  0.917640D-01
  0.174200D+01  0.298683D+00
  0.555000D+00  0.498487D+00
  0.172500D+00  0.337023D+00
   p     1 1.00
  0.174200D+01  0.100000D+01
   p     1 1.00
  0.555000D+00  0.100000D+01
   d     1 1.00
  0.165400D+01  0.100000D+01
   d     1 1.00
  0.469000D+00  0.100000D+01
   f     1 1.00
  0.109300D+01  0.100000D+01
  
  2  0
   s    10 1.00
  0.823600D+04  0.531000D-03
  0.123500D+04  0.410800D-02
  0.280800D+03  0.210870D-01
  0.792700D+02  0.818530D-01
  0.255900D+02  0.234817D+00
  0.899700D+01  0.434401D+00
  0.331900D+01  0.346129D+00
  0.905900D+00  0.393780D-01
  0.364300D+00 -0.898300D-02
  0.128500D+00  0.238500D-02
   s    10 1.00
  0.823600D+04 -0.113000D-03
  0.123500D+04 -0.878000D-03
  0.280800D+03 -0.454000D-02
  0.792700D+02 -0.181330D-01
  0.255900D+02 -0.557600D-01
  0.899700D+01 -0.126895D+00
  0.331900D+01 -0.170352D+00
  0.905900D+00  0.140382D+00
  0.364300D+00  0.598684D+00
  0.128500D+00  0.395389D+00
   s     1 1.00
  0.905900D+00  0.100000D+01
   s     1 1.00
  0.364300D+00  0.100000D+01
   p     5 1.00
  0.187100D+02  0.140310D-01
  0.413300D+01  0.868660D-01
  0.120000D+01  0.290216D+00
  0.382700D+00  0.501008D+00
  0.120900D+00  0.343406D+00
   p     1 1.00
  0.382700D+00  0.100000D+01
   p     1 1.00
  0.120900D+00  0.100000D+01
   d     1 1.00
  0.109700D+01  0.100000D+01
   d     1 1.00
  0.318000D+00  0.100000D+01
   f     1 1.00
  0.761000D+00  0.100000D+01
  
  3  0
   s    10 1.00
  0.823600D+04  0.531000D-03
  0.123500D+04  0.410800D-02
  0.280800D+03  0.210870D-01
  0.792700D+02  0.818530D-01
  0.255900D+02  0.234817D+00
  0.899700D+01  0.434401D+00
  0.331900D+01  0.346129D+00
  0.905900D+00  0.393780D-01
  0.364300D+00 -0.898300D-02
  0.128500D+00  0.238500D-02
   s    10 1.00
  0.823600D+04 -0.113000D-03
  0.123500D+04 -0.878000D-03
  0.280800D+03 -0.454000D-02
  0.792700D+02 -0.181330D-01
  0.255900D+02 -0.557600D-01
  0.899700D+01 -0.126895D+00
  0.331900D+01 -0.170352D+00
  0.905900D+00  0.140382D+00
  0.364300D+00  0.598684D+00
  0.128500D+00  0.395389D+00
   s     1 1.00
  0.905900D+00  0.100000D+01
   s     1 1.00
  0.364300D+00  0.100000D+01
   p     5 1.00
  0.187100D+02  0.140310D-01
  0.413300D+01  0.868660D-01
  0.120000D+01  0.290216D+00
  0.382700D+00  0.501008D+00
  0.120900D+00  0.343406D+00
   p     1 1.00
  0.382700D+00  0.100000D+01
   p     1 1.00
  0.120900D+00  0.100000D+01
   d     1 1.00
  0.109700D+01  0.100000D+01
   d     1 1.00
  0.318000D+00  0.100000D+01
   f     1 1.00
  0.761000D+00  0.100000D+01
  
  4  0
   s    10 1.00
  0.823600D+04  0.531000D-03
  0.123500D+04  0.410800D-02
  0.280800D+03  0.210870D-01
  0.792700D+02  0.818530D-01
  0.255900D+02  0.234817D+00
  0.899700D+01  0.434401D+00
  0.331900D+01  0.346129D+00
  0.905900D+00  0.393780D-01
  0.364300D+00 -0.898300D-02
  0.128500D+00  0.238500D-02
   s    10 1.00
  0.823600D+04 -0.113000D-03
  0.123500D+04 -0.878000D-03
  0.280800D+03 -0.454000D-02
  0.792700D+02 -0.181330D-01
  0.255900D+02 -0.557600D-01
  0.899700D+01 -0.126895D+00
  0.331900D+01 -0.170352D+00
  0.905900D+00  0.140382D+00
  0.364300D+00  0.598684D+00
  0.128500D+00  0.395389D+00
   s     1 1.00
  0.905900D+00  0.100000D+01
   s     1 1.00
  0.364300D+00  0.100000D+01
   p     5 1.00
  0.187100D+02  0.140310D-01
  0.413300D+01  0.868660D-01
  0.120000D+01  0.290216D+00
  0.382700D+00  0.501008D+00
  0.120900D+00  0.343406D+00
   p     1 1.00
  0.382700D+00  0.100000D+01
   p     1 1.00
  0.120900D+00  0.100000D+01
   d     1 1.00
  0.109700D+01  0.100000D+01
   d     1 1.00
  0.318000D+00  0.100000D+01
   f     1 1.00
  0.761000D+00  0.100000D+01
  
  5  0
   s    10 1.00
  0.823600D+04  0.531000D-03
  0.123500D+04  0.410800D-02
  0.280800D+03  0.210870D-01
  0.792700D+02  0.818530D-01
  0.255900D+02  0.234817D+00
  0.899700D+01  0.434401D+00
  0.331900D+01  0.346129D+00
  0.905900D+00  0.393780D-01
  0.364300D+00 -0.898300D-02
  0.128500D+00  0.238500D-02
   s    10 1.00
  0.823600D+04 -0.113000D-03
  0.123500D+04 -0.878000D-03
  0.280800D+03 -0.454000D-02
  0.792700D+02 -0.181330D-01
  0.255900D+02 -0.557600D-01
  0.899700D+01 -0.126895D+00
  0.331900D+01 -0.170352D+00
  0.905900D+00  0.140382D+00
  0.364300D+00  0.598684D+00
  0.128500D+00  0.395389D+00
   s     1 1.00
  0.905900D+00  0.100000D+01
   s     1 1.00
  0.364300D+00  0.100000D+01
   p     5 1.00
  0.187100D+02  0.140310D-01
  0.413300D+01  0.868660D-01
  0.120000D+01  0.290216D+00
  0.382700D+00  0.501008D+00
  0.120900D+00  0.343406D+00
   p     1 1.00
  0.382700D+00  0.100000D+01
   p     1 1.00
  0.120900D+00  0.100000D+01
   d     1 1.00
  0.109700D+01  0.100000D+01
   d     1 1.00
  0.318000D+00  0.100000D+01
   f     1 1.00
  0.761000D+00  0.100000D+01
  
  6  0
   s    10 1.00
  0.823600D+04  0.531000D-03
  0.123500D+04  0.410800D-02
  0.280800D+03  0.210870D-01
  0.792700D+02  0.818530D-01
  0.255900D+02  0.234817D+00
  0.899700D+01  0.434401D+00
  0.331900D+01  0.346129D+00
  0.905900D+00  0.393780D-01
  0.364300D+00 -0.898300D-02
  0.128500D+00  0.238500D-02
   s    10 1.00
  0.823600D+04 -0.113000D-03
  0.123500D+04 -0.878000D-03
  0.280800D+03 -0.454000D-02
  0.792700D+02 -0.181330D-01
  0.255900D+02 -0.557600D-01
  0.899700D+01 -0.126895D+00
  0.331900D+01 -0.170352D+00
  0.905900D+00  0.140382D+00
  0.364300D+00  0.598684D+00
  0.128500D+00  0.395389D+00
   s     1 1.00
  0.905900D+00  0.100000D+01
   s     1 1.00
  0.364300D+00  0.100000D+01
   p     5 1.00
  0.187100D+02  0.140310D-01
  0.413300D+01  0.868660D-01
  0.120000D+01  0.290216D+00
  0.382700D+00  0.501008D+00
  0.120900D+00  0.343406D+00
   p     1 1.00
  0.382700D+00  0.100000D+01
   p     1 1.00
  0.120900D+00  0.100000D+01
   d     1 1.00
  0.109700D+01  0.100000D+01
   d     1 1.00
  0.318000D+00  0.100000D+01
   f     1 1.00
  0.761000D+00  0.100000D+01
  
  7  0
   s    10 1.00
  0.823600D+04  0.531000D-03
  0.123500D+04  0.410800D-02
  0.280800D+03  0.210870D-01
  0.792700D+02  0.818530D-01
  0.255900D+02  0.234817D+00
  0.899700D+01  0.434401D+00
  0.331900D+01  0.346129D+00
  0.905900D+00  0.393780D-01
  0.364300D+00 -0.898300D-02
  0.128500D+00  0.238500D-02
   s    10 1.00
  0.823600D+04 -0.113000D-03
  0.123500D+04 -0.878000D-03
  0.280800D+03 -0.454000D-02
  0.792700D+02 -0.181330D-01
  0.255900D+02 -0.557600D-01
  0.899700D+01 -0.126895D+00
  0.331900D+01 -0.170352D+00
  0.905900D+00  0.140382D+00
  0.364300D+00  0.598684D+00
  0.128500D+00  0.395389D+00
   s     1 1.00
  0.905900D+00  0.100000D+01
   s     1 1.00
  0.364300D+00  0.100000D+01
   p     5 1.00
  0.187100D+02  0.140310D-01
  0.413300D+01  0.868660D-01
  0.120000D+01  0.290216D+00
  0.382700D+00  0.501008D+00
  0.120900D+00  0.343406D+00
   p     1 1.00
  0.382700D+00  0.100000D+01
   p     1 1.00
  0.120900D+00  0.100000D+01
   d     1 1.00
  0.109700D+01  0.100000D+01
   d     1 1.00
  0.318000D+00  0.100000D+01
   f     1 1.00
  0.761000D+00  0.100000D+01
  
  8  0
   s     4 1.00
  0.130100D+02  0.196850D-01
  0.196200D+01  0.137977D+00
  0.444600D+00  0.478148D+00
  0.122000D+00  0.501240D+00
   s     1 1.00
  0.122000D+00  0.100000D+01
   p     1 1.00
  0.727000D+00  0.100000D+01
  
  9  0
   s     4 1.00
  0.130100D+02  0.196850D-01
  0.196200D+01  0.137977D+00
  0.444600D+00  0.478148D+00
  0.122000D+00  0.501240D+00
   s     1 1.00
  0.122000D+00  0.100000D+01
   p     1 1.00
  0.727000D+00  0.100000D+01
  
 10  0
   s     4 1.00
  0.130100D+02  0.196850D-01
  0.196200D+01  0.137977D+00
  0.444600D+00  0.478148D+00
  0.122000D+00  0.501240D+00
   s     1 1.00
  0.122000D+00  0.100000D+01
   p     1 1.00
  0.727000D+00  0.100000D+01
  
 11  0
   s     4 1.00
  0.130100D+02  0.196850D-01
  0.196200D+01  0.137977D+00
  0.444600D+00  0.478148D+00
  0.122000D+00  0.501240D+00
   s     1 1.00
  0.122000D+00  0.100000D+01
   p     1 1.00
  0.727000D+00  0.100000D+01
  
 12  0
   s     4 1.00
  0.130100D+02  0.196850D-01
  0.196200D+01  0.137977D+00
  0.444600D+00  0.478148D+00
  0.122000D+00  0.501240D+00
   s     1 1.00
  0.122000D+00  0.100000D+01
   p     1 1.00
  0.727000D+00  0.100000D+01
  
 13  0
   s     4 1.00
  0.130100D+02  0.196850D-01
  0.196200D+01  0.137977D+00
  0.444600D+00  0.478148D+00
  0.122000D+00  0.501240D+00
   s     1 1.00
  0.122000D+00  0.100000D+01
   p     1 1.00
  0.727000D+00  0.100000D+01
  
 14  0
   s     4 1.00
  0.130100D+02  0.196850D-01
  0.196200D+01  0.137977D+00
  0.444600D+00  0.478148D+00
  0.122000D+00  0.501240D+00
   s     1 1.00
  0.122000D+00  0.100000D+01
   p     1 1.00
  0.727000D+00  0.100000D+01
  
[MO]
 Sym= __1_A__
 Ene=  0.000000000000000E+000
 Spin= Alpha
 Occup=    2.00000000000000     
                     1  1.193685656101510E-004
                     2  0.997407963088687     
                     3  1.694056255313061E-002
                     4  2.244816254125896E-003
                     5  2.639541926024507E-004
                     6 -2.533372450239042E-006
                     7 -3.339288559068013E-006
                     8  3.103066126138924E-003
                     9  3.357966765654602E-007
                    10  4.588470720807820E-007
                    11 -4.143826438475539E-004
                    12  4.797996147118565E-007
                    13  5.907047956121243E-007
                    14 -5.864368479373648E-004
                    15  1.498371646555771E-004
                    16 -5.778126093090037E-008
                    17 -3.756564664180453E-007
                    18  1.279798980940496E-004
                    19  4.636965719989947E-005
                    20  1.332846181750215E-004
                    21 -8.640127732023476E-007
                    22  1.963159198250470E-007
                    23 -5.821883057605026E-004
                    24 -1.854443788247408E-004
                    25 -2.213279984568058E-004
                    26 -6.014301496074640E-007
                    27 -4.873555914768124E-007
                    28 -8.002562849638600E-005
                    29 -3.162879831695144E-005
                    30 -3.896249067368137E-008
                    31  1.359476614441680E-007
                    32 -2.469462483369339E-004
                    33  3.417590093910791E-003
                    34  1.506436985087879E-004
                    35 -7.381390357750258E-004
                    36  6.375611275971904E-006
                    37  8.347334584744454E-006
                    38 -7.790609718390006E-003
                    39 -2.310529836613261E-008
                    40 -1.212350370203935E-007
                    41  4.395833583195980E-005
                    42 -3.193621444737281E-006
                    43 -4.141171225084260E-006
                    44  3.899871720104984E-003
                    45  4.167421685841146E-004
                    46 -4.977556823947437E-007
                    47 -8.548080919964599E-007
                    48  9.892803687014740E-005
                    49  1.224974376456661E-005
                    50  7.601162864790336E-004
                    51 -9.177852825387473E-007
                    52 -1.699125082521305E-006
                    53  1.335744125376343E-004
                    54  3.452538134115710E-005
                    55 -5.905475062078148E-005
                    56 -9.991892493125347E-008
                    57 -1.859069259129765E-007
                    58  1.554356072359535E-005
                    59 -1.477181838218789E-006
                    60  1.720424603765158E-008
                    61 -2.263415369137949E-008
                    62 -2.150623486840788E-004
                    63 -1.958443899247095E-003
                    64  1.236706636528346E-005
                    65  8.742937588952489E-004
                    66  8.403007869574880E-005
                    67 -9.963928288781931E-004
                    68  1.420720222277812E-003
                    69 -5.216370981552399E-007
                    70  9.179697589696513E-005
                    71  8.580501997769998E-005
                    72  6.158082722037997E-005
                    73 -6.700840749794673E-004
                    74 -3.451058114114161E-004
                    75  1.042375817644451E-004
                    76  1.298545437408777E-006
                    77 -9.588233966303343E-006
                    78  4.105466362212286E-005
                    79  6.652847216114214E-006
                    80  5.173523049110367E-005
                    81 -1.048393713889511E-007
                    82 -2.838258594734708E-005
                    83  4.214907022732984E-005
                    84  1.147841917252331E-005
                    85 -6.675886099547693E-005
                    86  9.572129782793250E-007
                    87  6.167437979986203E-006
                    88  1.837047420886669E-005
                    89  2.246167051588442E-006
                    90  7.722672648603211E-006
                    91  3.092014673512156E-005
                    92 -2.150165740717191E-004
                    93 -1.958261745041648E-003
                    94  1.257550199126173E-005
                    95  8.736080196949233E-004
                    96 -8.635408089243986E-005
                    97  9.933820166202415E-004
                    98  1.422846901858538E-003
                    99  4.046133332142810E-007
                   100 -9.216317660076899E-005
                   101  8.479912018296217E-005
                   102 -6.095596185201452E-005
                   103  6.700884307876799E-004
                   104 -3.436086237754200E-004
                   105  1.042263475660524E-004
                   106 -1.513688344257733E-006
                   107  9.145571329770135E-006
                   108  4.107896176539256E-005
                   109  6.640150918056800E-006
                   110  5.128148122157731E-005
                   111  6.964392292844207E-008
                   112  2.799515338777004E-005
                   113  4.209632787670894E-005
                   114  1.141756367466489E-005
                   115 -6.663620794734923E-005
                   116 -1.168432966791898E-006
                   117 -6.572693650579675E-006
                   118  1.828182733340904E-005
                   119  2.182584044533125E-006
                   120 -7.691975655122246E-006
                   121 -3.097098786506312E-005
                   122 -1.736632296360529E-004
                   123  3.286802580999024E-005
                   124  7.524979022869071E-005
                   125  3.112338736457412E-004
                   126 -2.685664823431603E-005
                   127  7.428794336360257E-005
                   128 -9.511950654210762E-004
                   129 -1.221323039706194E-006
                   130  8.997966148251458E-006
                   131  1.722768084469752E-004
                   132 -1.878504077770848E-006
                   133  4.236577735963169E-005
                   134  5.708487969237480E-004
                   135  6.113439218081286E-006
                   136 -4.789862023309697E-007
                   137  1.069656512228655E-005
                   138 -9.721183371768430E-007
                   139  2.760798002646683E-007
                   140 -1.263645940452284E-004
                   141 -7.531678595829325E-006
                   142  7.360741156013133E-005
                   143  3.398317031033820E-005
                   144  3.834510114216960E-006
                   145 -2.145538833426994E-005
                   146  7.595483084296498E-007
                   147 -1.006471054906021E-005
                   148 -7.566737934943912E-006
                   149 -1.438344132342079E-006
                   150 -9.429217245465494E-007
                   151 -2.667441402197747E-006
                   152 -1.742637201499920E-004
                   153  3.074106794473529E-005
                   154  7.464370649510653E-005
                   155  3.150406371434808E-004
                   156  2.841036723488609E-005
                   157 -7.218142375477510E-005
                   158 -9.512642534561030E-004
                   159  9.955553480437273E-007
                   160 -9.815258265905845E-006
                   161  1.717906885840475E-004
                   162  8.785208295729003E-007
                   163 -4.290052803079170E-005
                   164  5.709161610964290E-004
                   165  6.143896917943544E-006
                   166  4.599322968644788E-007
                   167 -1.072606695626145E-005
                   168 -1.059205763491193E-006
                   169  2.799743320882971E-007
                   170 -1.264415949972274E-004
                   171  7.976314183526221E-006
                   172 -7.350494891752365E-005
                   173  3.375816066237388E-005
                   174  3.929337266027939E-006
                   175 -2.139361861854394E-005
                   176 -8.685574213535180E-007
                   177  9.983183898791049E-006
                   178 -7.589037645811366E-006
                   179 -1.465699055037842E-006
                   180  9.346793785364853E-007
                   181  2.702150359676959E-006
                   182 -1.497338901323255E-004
                   183 -4.017951215145963E-004
                   184  2.026114114022411E-005
                   185  3.100912979321227E-004
                   186  4.080780756431800E-008
                   187  1.747420467727716E-007
                   188 -6.157714459777035E-005
                   189  3.502579061334291E-008
                   190 -5.586012325944433E-007
                   191  2.355451299049133E-005
                   192  1.022080105542224E-007
                   193  1.152657683944842E-007
                   194 -1.232985962723301E-004
                   195  2.049668034792480E-005
                   196 -2.437282705602325E-008
                   197 -1.488632269844989E-008
                   198  7.235104933438522E-006
                   199  1.742149504482610E-006
                   200  2.628574211702226E-005
                   201 -6.192460479965915E-008
                   202  2.101263011397741E-007
                   203 -4.367376391512960E-007
                   204 -6.038037190415657E-007
                   205 -1.370749245632974E-005
                   206 -1.846975025114831E-008
                   207 -5.114966987722720E-008
                   208  4.704765407846288E-006
                   209  1.160570539629137E-006
                   210  1.302220407226072E-008
                   211  2.653407330529397E-008
                   212  8.032634425632295E-003
                   213 -4.199342158215315E-003
                   214  7.729521371769360E-004
                   215  1.175937189962235E-004
                   216  5.127689647631290E-004
                   217  8.032627583448160E-003
                   218 -4.199342758164767E-003
                   219 -7.737900215803614E-004
                   220 -1.186925516255220E-004
                   221  5.112497781657447E-004
                   222 -7.530532957705260E-004
                   223 -1.977916859269074E-004
                   224  4.065313349453030E-006
                   225 -4.300041946660053E-005
                   226 -5.302522099471220E-005
                   227 -7.531335698252015E-004
                   228 -1.973313192501470E-004
                   229 -3.976920685835051E-006
                   230  4.309011926976530E-005
                   231 -5.297525163946533E-005
                   232 -3.239465263879846E-004
                   233 -1.864141434709023E-004
                   234  9.455622881332567E-007
                   235 -1.921313325007988E-005
                   236 -3.419737561500628E-006
                   237 -3.240026141957077E-004
                   238 -1.865973389618936E-004
                   239 -9.460008324120809E-007
                   240  1.927833723117461E-005
                   241 -3.321831348037422E-006
                   242  1.070979599435752E-004
                   243  2.957014678047609E-005
                   244 -1.434552442907080E-008
                   245 -4.817161752186178E-008
                   246  2.008335924451271E-005
 Sym= __2_A__
 Ene=  0.000000000000000E+000
 Spin= Alpha
 Occup=    2.00000000000000     
                     1  1.086272921434193E-006
                     2 -6.748250022753363E-005
                     3  1.619738136685269E-003
                     4  4.552004249859959E-005
                     5  1.100458352684367E-003
                     6 -1.296415522555741E-006
                     7 -1.680322018280142E-006
                     8  1.579674175248966E-003
                     9  8.325745983267262E-008
                    10  1.027128208238279E-007
                    11 -1.003825052617245E-004
                    12 -1.233225032534618E-008
                    13 -1.309493952973647E-008
                    14  1.586742502912450E-005
                    15  4.625874241688355E-005
                    16 -6.756934511279827E-008
                    17 -9.136912349934509E-008
                    18  2.812354905772738E-006
                    19 -3.858340966042813E-006
                    20 -1.011872169095779E-004
                    21  1.752563311305446E-007
                    22  1.896121503999990E-007
                    23  1.414017237004109E-005
                    24  1.848717777690973E-005
                    25  1.911197100455337E-004
                    26  2.898788661820090E-007
                    27  5.746334899027871E-007
                    28 -5.504191109168308E-005
                    29 -1.367923823171367E-005
                    30 -3.705250649237924E-008
                    31  8.615555169204916E-008
                    32   1.00108412916146     
                    33  8.623742967761593E-003
                    34  2.495669866223836E-003
                    35 -7.875596092675033E-003
                    36  1.953334352289853E-006
                    37  2.549146064517552E-006
                    38 -2.389560764453723E-003
                    39 -7.670717439941064E-007
                    40 -9.962598442828204E-007
                    41  9.376452237102233E-004
                    42 -2.627244243297470E-006
                    43 -3.504070190566700E-006
                    44  3.217360155991194E-003
                    45  2.704959961672254E-004
                    46 -7.234988868848539E-007
                    47 -1.735212463400894E-007
                    48 -3.484555632038318E-004
                    49 -5.140586075212003E-005
                    50  2.329120549931001E-004
                    51  3.548739181495101E-007
                    52 -1.057489837486534E-006
                    53  6.915945248230316E-004
                    54  1.121440406285211E-004
                    55  2.804126285502000E-004
                    56  3.399055887242698E-007
                    57  9.568755511642188E-007
                    58 -1.465769934676473E-004
                    59 -1.916037912898205E-005
                    60 -1.215026252136157E-007
                    61  2.126171905286502E-007
                    62  1.161775810656857E-002
                    63 -1.658222941643379E-003
                    64 -2.853655975766625E-004
                    65  2.813784026330821E-003
                    66 -2.249904442812783E-005
                    67  2.827505284079360E-004
                    68 -2.025143394290707E-004
                    69 -4.451239887533575E-005
                    70  5.345573696821495E-004
                    71  1.435585623750348E-004
                    72  1.482882455447285E-004
                    73 -1.682918684894981E-003
                    74  2.072642789692641E-004
                    75 -2.909157763562192E-005
                    76  3.891401157795662E-007
                    77  7.591548548695629E-006
                    78  1.476095018730586E-005
                    79  2.076853146680400E-006
                    80  7.063396331931099E-004
                    81  3.354102351302001E-005
                    82 -3.539341112646270E-004
                    83 -6.996905803429018E-005
                    84 -1.393241783672123E-005
                    85  4.879480538336537E-005
                    86 -5.550735972436246E-007
                    87  1.289174102530113E-005
                    88 -1.094368191849235E-004
                    89 -1.692366366097102E-005
                    90  1.034637612951662E-005
                    91  4.126875351843668E-005
                    92  1.161775032681450E-002
                    93 -1.658301206635485E-003
                    94 -2.854160844411881E-004
                    95  2.813994939681186E-003
                    96  2.282862320601772E-005
                    97 -2.823201646115250E-004
                    98 -2.031104449739601E-004
                    99  4.427476567461303E-005
                   100 -5.348483048432116E-004
                   101  1.426564763930798E-004
                   102 -1.486438153903001E-004
                   103  1.682624968710986E-003
                   104  2.104643320627927E-004
                   105 -2.910598250120722E-005
                   106 -2.777086270641898E-007
                   107 -7.517957413189344E-006
                   108  1.474398589035678E-005
                   109  2.089956796891893E-006
                   110  7.076405844154663E-004
                   111 -3.569581649978174E-005
                   112  3.514911600740625E-004
                   113 -6.913499008084712E-005
                   114 -1.443202345894254E-005
                   115  4.884154724599779E-005
                   116  4.094849970269747E-007
                   117 -1.230807736357874E-005
                   118 -1.095653023760087E-004
                   119 -1.700216515303885E-005
                   120 -1.052144257501483E-005
                   121 -4.094738319405098E-005
                   122 -1.447561090214493E-004
                   123 -7.609420359046941E-004
                   124  2.263245365580455E-004
                   125 -1.760133539452517E-004
                   126 -6.797846965871653E-010
                   127 -2.444143117076689E-005
                   128 -1.581885247058038E-004
                   129  9.232376117030162E-006
                   130 -1.141520403773486E-005
                   131  5.922281358021132E-004
                   132 -2.200149391666631E-005
                   133  2.578974691963575E-004
                   134  6.275111772181001E-004
                   135 -2.580909145252207E-005
                   136 -3.893143077322992E-006
                   137  3.907027657293303E-005
                   138  1.425359301315931E-005
                   139  3.481324846861741E-006
                   140 -2.799539351798982E-004
                   141  9.289028650447236E-006
                   142 -1.818224510747707E-004
                   143 -1.631172073728754E-005
                   144 -9.605878634124972E-006
                   145 -6.501426281147449E-006
                   146  3.655358751800937E-006
                   147 -2.533983471121167E-005
                   148 -3.731949614228940E-005
                   149 -7.152085159250514E-006
                   150 -5.862925133658285E-007
                   151 -4.365389877912422E-006
                   152 -1.444757394964718E-004
                   153 -7.600120812525562E-004
                   154  2.264236320202981E-004
                   155 -1.771236781714516E-004
                   156  2.584907996948119E-007
                   157  2.476525514561506E-005
                   158 -1.581422977175814E-004
                   159 -1.021130923571637E-005
                   160  1.022340976984716E-005