[Molden Format]
[Atoms] AU
  N     1    7    -4.5082829200   -0.1342819900   -0.4228200100        
  C     2    6    -1.7496705200   -0.0824342700   -0.1838819400        
  C     3    6    -0.3491890900    0.2202010900   -2.3813599000        
  C     4    6    -0.4819141000   -0.3194027500    2.1144844200        
  C     5    6     2.2679837200    0.2851297300   -2.2867536700        
  C     6    6     2.1285900100   -0.2535069600    2.1993448600        
  C     7    6     3.5096699900    0.0491470500   -0.0030301700        
  H     8    1    -5.1840567300   -2.1697885400    0.7751543100        
  H     9    1    -5.1710165100    1.2661961700    0.9629770900        
  H    10    1    -1.3260875200    0.4019365300   -4.1451509600        
  H    11    1    -1.5448115400   -0.5543420500    3.8263524900        
  H    12    1     3.3318141500    0.5199799700   -3.9976458500        
  H    13    1     3.0845146800   -0.4378414600    3.9798216900        
  H    14    1     5.5368142800    0.0998677000    0.0666404700        
[5D]
[7F]
[GTO]
  1  0
   s    12 1.00
  0.114200D+05  0.172695D-04
  0.171200D+04  0.134411D-03
  0.389300D+03  0.694561D-03
  0.110000D+03  0.278531D-02
  0.355700D+02  0.863457D-02
  0.125400D+02  0.199805D-01
  0.464400D+01  0.262908D-01
  0.129300D+01 -0.243845D-01
  0.511800D+00 -0.924934D-01
  0.178700D+00 -0.339683D+00
  0.246240D-01  0.345111D+00
  0.112530D-01  0.752750D+00
   s    10 1.00
  0.114200D+05  0.523000D-03
  0.171200D+04  0.404500D-02
  0.389300D+03  0.207750D-01
  0.110000D+03  0.807269D-01
  0.355700D+02  0.233074D+00
  0.125400D+02  0.433501D+00
  0.464400D+01  0.347472D+00
  0.129300D+01  0.412620D-01
  0.511800D+00 -0.850799D-02
  0.178700D+00  0.238400D-02
   s    10 1.00
  0.114200D+05 -0.115000D-03
  0.171200D+04 -0.895000D-03
  0.389300D+03 -0.462400D-02
  0.110000D+03 -0.185280D-01
  0.355700D+02 -0.573390D-01
  0.125400D+02 -0.132076D+00
  0.464400D+01 -0.172510D+00
  0.129300D+01  0.151814D+00
  0.511800D+00  0.599944D+00
  0.178700D+00  0.387462D+00
   s     1 1.00
  0.129300D+01  0.100000D+01
   s     1 1.00
  0.178700D+00  0.100000D+01
   p     5 1.00
  0.266300D+02  0.146700D-01
  0.594800D+01  0.917640D-01
  0.174200D+01  0.298683D+00
  0.555000D+00  0.498487D+00
  0.172500D+00  0.337023D+00
   p     1 1.00
  0.174200D+01  0.100000D+01
   p     1 1.00
  0.555000D+00  0.100000D+01
   d     1 1.00
  0.165400D+01  0.100000D+01
   d     1 1.00
  0.469000D+00  0.100000D+01
   f     1 1.00
  0.109300D+01  0.100000D+01
  
  2  0
   s    10 1.00
  0.823600D+04  0.531000D-03
  0.123500D+04  0.410800D-02
  0.280800D+03  0.210870D-01
  0.792700D+02  0.818530D-01
  0.255900D+02  0.234817D+00
  0.899700D+01  0.434401D+00
  0.331900D+01  0.346129D+00
  0.905900D+00  0.393780D-01
  0.364300D+00 -0.898300D-02
  0.128500D+00  0.238500D-02
   s    10 1.00
  0.823600D+04 -0.113000D-03
  0.123500D+04 -0.878000D-03
  0.280800D+03 -0.454000D-02
  0.792700D+02 -0.181330D-01
  0.255900D+02 -0.557600D-01
  0.899700D+01 -0.126895D+00
  0.331900D+01 -0.170352D+00
  0.905900D+00  0.140382D+00
  0.364300D+00  0.598684D+00
  0.128500D+00  0.395389D+00
   s     1 1.00
  0.905900D+00  0.100000D+01
   s     1 1.00
  0.364300D+00  0.100000D+01
   p     5 1.00
  0.187100D+02  0.140310D-01
  0.413300D+01  0.868660D-01
  0.120000D+01  0.290216D+00
  0.382700D+00  0.501008D+00
  0.120900D+00  0.343406D+00
   p     1 1.00
  0.382700D+00  0.100000D+01
   p     1 1.00
  0.120900D+00  0.100000D+01
   d     1 1.00
  0.109700D+01  0.100000D+01
   d     1 1.00
  0.318000D+00  0.100000D+01
   f     1 1.00
  0.761000D+00  0.100000D+01
  
  3  0
   s    10 1.00
  0.823600D+04  0.531000D-03
  0.123500D+04  0.410800D-02
  0.280800D+03  0.210870D-01
  0.792700D+02  0.818530D-01
  0.255900D+02  0.234817D+00
  0.899700D+01  0.434401D+00
  0.331900D+01  0.346129D+00
  0.905900D+00  0.393780D-01
  0.364300D+00 -0.898300D-02
  0.128500D+00  0.238500D-02
   s    10 1.00
  0.823600D+04 -0.113000D-03
  0.123500D+04 -0.878000D-03
  0.280800D+03 -0.454000D-02
  0.792700D+02 -0.181330D-01
  0.255900D+02 -0.557600D-01
  0.899700D+01 -0.126895D+00
  0.331900D+01 -0.170352D+00
  0.905900D+00  0.140382D+00
  0.364300D+00  0.598684D+00
  0.128500D+00  0.395389D+00
   s     1 1.00
  0.905900D+00  0.100000D+01
   s     1 1.00
  0.364300D+00  0.100000D+01
   p     5 1.00
  0.187100D+02  0.140310D-01
  0.413300D+01  0.868660D-01
  0.120000D+01  0.290216D+00
  0.382700D+00  0.501008D+00
  0.120900D+00  0.343406D+00
   p     1 1.00
  0.382700D+00  0.100000D+01
   p     1 1.00
  0.120900D+00  0.100000D+01
   d     1 1.00
  0.109700D+01  0.100000D+01
   d     1 1.00
  0.318000D+00  0.100000D+01
   f     1 1.00
  0.761000D+00  0.100000D+01
  
  4  0
   s    10 1.00
  0.823600D+04  0.531000D-03
  0.123500D+04  0.410800D-02
  0.280800D+03  0.210870D-01
  0.792700D+02  0.818530D-01
  0.255900D+02  0.234817D+00
  0.899700D+01  0.434401D+00
  0.331900D+01  0.346129D+00
  0.905900D+00  0.393780D-01
  0.364300D+00 -0.898300D-02
  0.128500D+00  0.238500D-02
   s    10 1.00
  0.823600D+04 -0.113000D-03
  0.123500D+04 -0.878000D-03
  0.280800D+03 -0.454000D-02
  0.792700D+02 -0.181330D-01
  0.255900D+02 -0.557600D-01
  0.899700D+01 -0.126895D+00
  0.331900D+01 -0.170352D+00
  0.905900D+00  0.140382D+00
  0.364300D+00  0.598684D+00
  0.128500D+00  0.395389D+00
   s     1 1.00
  0.905900D+00  0.100000D+01
   s     1 1.00
  0.364300D+00  0.100000D+01
   p     5 1.00
  0.187100D+02  0.140310D-01
  0.413300D+01  0.868660D-01
  0.120000D+01  0.290216D+00
  0.382700D+00  0.501008D+00
  0.120900D+00  0.343406D+00
   p     1 1.00
  0.382700D+00  0.100000D+01
   p     1 1.00
  0.120900D+00  0.100000D+01
   d     1 1.00
  0.109700D+01  0.100000D+01
   d     1 1.00
  0.318000D+00  0.100000D+01
   f     1 1.00
  0.761000D+00  0.100000D+01
  
  5  0
   s    10 1.00
  0.823600D+04  0.531000D-03
  0.123500D+04  0.410800D-02
  0.280800D+03  0.210870D-01
  0.792700D+02  0.818530D-01
  0.255900D+02  0.234817D+00
  0.899700D+01  0.434401D+00
  0.331900D+01  0.346129D+00
  0.905900D+00  0.393780D-01
  0.364300D+00 -0.898300D-02
  0.128500D+00  0.238500D-02
   s    10 1.00
  0.823600D+04 -0.113000D-03
  0.123500D+04 -0.878000D-03
  0.280800D+03 -0.454000D-02
  0.792700D+02 -0.181330D-01
  0.255900D+02 -0.557600D-01
  0.899700D+01 -0.126895D+00
  0.331900D+01 -0.170352D+00
  0.905900D+00  0.140382D+00
  0.364300D+00  0.598684D+00
  0.128500D+00  0.395389D+00
   s     1 1.00
  0.905900D+00  0.100000D+01
   s     1 1.00
  0.364300D+00  0.100000D+01
   p     5 1.00
  0.187100D+02  0.140310D-01
  0.413300D+01  0.868660D-01
  0.120000D+01  0.290216D+00
  0.382700D+00  0.501008D+00
  0.120900D+00  0.343406D+00
   p     1 1.00
  0.382700D+00  0.100000D+01
   p     1 1.00
  0.120900D+00  0.100000D+01
   d     1 1.00
  0.109700D+01  0.100000D+01
   d     1 1.00
  0.318000D+00  0.100000D+01
   f     1 1.00
  0.761000D+00  0.100000D+01
  
  6  0
   s    10 1.00
  0.823600D+04  0.531000D-03
  0.123500D+04  0.410800D-02
  0.280800D+03  0.210870D-01
  0.792700D+02  0.818530D-01
  0.255900D+02  0.234817D+00
  0.899700D+01  0.434401D+00
  0.331900D+01  0.346129D+00
  0.905900D+00  0.393780D-01
  0.364300D+00 -0.898300D-02
  0.128500D+00  0.238500D-02
   s    10 1.00
  0.823600D+04 -0.113000D-03
  0.123500D+04 -0.878000D-03
  0.280800D+03 -0.454000D-02
  0.792700D+02 -0.181330D-01
  0.255900D+02 -0.557600D-01
  0.899700D+01 -0.126895D+00
  0.331900D+01 -0.170352D+00
  0.905900D+00  0.140382D+00
  0.364300D+00  0.598684D+00
  0.128500D+00  0.395389D+00
   s     1 1.00
  0.905900D+00  0.100000D+01
   s     1 1.00
  0.364300D+00  0.100000D+01
   p     5 1.00
  0.187100D+02  0.140310D-01
  0.413300D+01  0.868660D-01
  0.120000D+01  0.290216D+00
  0.382700D+00  0.501008D+00
  0.120900D+00  0.343406D+00
   p     1 1.00
  0.382700D+00  0.100000D+01
   p     1 1.00
  0.120900D+00  0.100000D+01
   d     1 1.00
  0.109700D+01  0.100000D+01
   d     1 1.00
  0.318000D+00  0.100000D+01
   f     1 1.00
  0.761000D+00  0.100000D+01
  
  7  0
   s    10 1.00
  0.823600D+04  0.531000D-03
  0.123500D+04  0.410800D-02
  0.280800D+03  0.210870D-01
  0.792700D+02  0.818530D-01
  0.255900D+02  0.234817D+00
  0.899700D+01  0.434401D+00
  0.331900D+01  0.346129D+00
  0.905900D+00  0.393780D-01
  0.364300D+00 -0.898300D-02
  0.128500D+00  0.238500D-02
   s    10 1.00
  0.823600D+04 -0.113000D-03
  0.123500D+04 -0.878000D-03
  0.280800D+03 -0.454000D-02
  0.792700D+02 -0.181330D-01
  0.255900D+02 -0.557600D-01
  0.899700D+01 -0.126895D+00
  0.331900D+01 -0.170352D+00
  0.905900D+00  0.140382D+00
  0.364300D+00  0.598684D+00
  0.128500D+00  0.395389D+00
   s     1 1.00
  0.905900D+00  0.100000D+01
   s     1 1.00
  0.364300D+00  0.100000D+01
   p     5 1.00
  0.187100D+02  0.140310D-01
  0.413300D+01  0.868660D-01
  0.120000D+01  0.290216D+00
  0.382700D+00  0.501008D+00
  0.120900D+00  0.343406D+00
   p     1 1.00
  0.382700D+00  0.100000D+01
   p     1 1.00
  0.120900D+00  0.100000D+01
   d     1 1.00
  0.109700D+01  0.100000D+01
   d     1 1.00
  0.318000D+00  0.100000D+01
   f     1 1.00
  0.761000D+00  0.100000D+01
  
  8  0
   s     4 1.00
  0.130100D+02  0.196850D-01
  0.196200D+01  0.137977D+00
  0.444600D+00  0.478148D+00
  0.122000D+00  0.501240D+00
   s     1 1.00
  0.122000D+00  0.100000D+01
   p     1 1.00
  0.727000D+00  0.100000D+01
  
  9  0
   s     4 1.00
  0.130100D+02  0.196850D-01
  0.196200D+01  0.137977D+00
  0.444600D+00  0.478148D+00
  0.122000D+00  0.501240D+00
   s     1 1.00
  0.122000D+00  0.100000D+01
   p     1 1.00
  0.727000D+00  0.100000D+01
  
 10  0
   s     4 1.00
  0.130100D+02  0.196850D-01
  0.196200D+01  0.137977D+00
  0.444600D+00  0.478148D+00
  0.122000D+00  0.501240D+00
   s     1 1.00
  0.122000D+00  0.100000D+01
   p     1 1.00
  0.727000D+00  0.100000D+01
  
 11  0
   s     4 1.00
  0.130100D+02  0.196850D-01
  0.196200D+01  0.137977D+00
  0.444600D+00  0.478148D+00
  0.122000D+00  0.501240D+00
   s     1 1.00
  0.122000D+00  0.100000D+01
   p     1 1.00
  0.727000D+00  0.100000D+01
  
 12  0
   s     4 1.00
  0.130100D+02  0.196850D-01
  0.196200D+01  0.137977D+00
  0.444600D+00  0.478148D+00
  0.122000D+00  0.501240D+00
   s     1 1.00
  0.122000D+00  0.100000D+01
   p     1 1.00
  0.727000D+00  0.100000D+01
  
 13  0
   s     4 1.00
  0.130100D+02  0.196850D-01
  0.196200D+01  0.137977D+00
  0.444600D+00  0.478148D+00
  0.122000D+00  0.501240D+00
   s     1 1.00
  0.122000D+00  0.100000D+01
   p     1 1.00
  0.727000D+00  0.100000D+01
  
 14  0
   s     4 1.00
  0.130100D+02  0.196850D-01
  0.196200D+01  0.137977D+00
  0.444600D+00  0.478148D+00
  0.122000D+00  0.501240D+00
   s     1 1.00
  0.122000D+00  0.100000D+01
   p     1 1.00
  0.727000D+00  0.100000D+01
  
[MO]
 Sym= __1_a__
 Ene=  0.000000000000000E+000
 Spin= Alpha
 Occup=    2.00000000000000     
                     1 -4.339225876259310E-004
                     2  0.998091286732028     
                     3 -3.074578732645010E-002
                     4  1.576065793440050E-003
                     5  4.926840309763380E-003
                     6  1.248147990362530E-002
                     7 -1.868703563531470E-003
                     8  2.300418624602140E-002
                     9 -1.429000539861720E-003
                    10  7.890119030084010E-005
                    11 -1.758260460906760E-003
                    12 -3.720836170637540E-003
                    13  2.939616393432490E-004
                    14 -5.658266522881990E-003
                    15  1.307067420600135E-004
                    16  4.898651999516960E-005
                    17 -9.836827426499299E-006
                    18  6.194589437024360E-005
                    19  5.359598557887100E-006
                    20  5.236977635994682E-004
                    21  7.905841907798670E-004
                    22 -4.035014513328090E-005
                    23  1.737004099573756E-004
                    24 -4.950471506359470E-005
                    25  3.774793518460522E-005
                    26 -5.130309775264497E-005
                    27  1.482651657930326E-005
                    28  4.634904364047140E-005
                    29  2.276050670334200E-005
                    30  2.330456457598245E-005
                    31 -4.687364824257450E-006
                    32 -3.783942005473270E-004
                    33  6.543444914162420E-004
                    34  2.476878792854670E-004
                    35  1.325391119058450E-004
                    36  1.099433132148950E-003
                    37  2.378095889078200E-004
                    38 -1.362819184964170E-003
                    39 -5.706484684046490E-004
                    40 -1.033428773142910E-004
                    41  6.079410895903340E-004
                    42  3.306449166310480E-003
                    43  3.110870237701070E-004
                    44 -1.692492973609650E-003
                    45  4.472118047019929E-005
                    46 -3.069393403996270E-004
                    47 -1.821042695176090E-005
                    48 -4.938256362151480E-005
                    49  3.204230929679050E-005
                    50  9.533624447196020E-005
                    51  1.305305324968460E-004
                    52  1.760350106345250E-005
                    53 -7.035154298216080E-005
                    54 -4.252719267162290E-005
                    55  1.028097878295301E-004
                    56 -4.661149684302332E-006
                    57  8.957369268618735E-006
                    58  1.123322011382280E-004
                    59  4.086110580741220E-006
                    60 -5.927148191671239E-005
                    61 -7.214076449803565E-006
                    62 -8.384954445261490E-004
                    63  1.415987824825610E-004
                    64 -1.621844514856320E-004
                    65  3.070270525168660E-003
                    66 -3.709815961075350E-003
                    67 -2.152990421814340E-004
                    68  1.056420399167880E-003
                    69  7.181300356115440E-004
                    70 -2.965912162859720E-005
                    71  6.174097639396670E-004
                    72  1.443241172846570E-003
                    73  2.965375817271020E-004
                    74 -2.369988970857900E-003
                    75  1.138943168631244E-004
                    76 -8.918524217737570E-005
                    77 -2.776210150116810E-005
                    78  2.437316938206560E-005
                    79  1.090646692537260E-005
                    80  2.103294485548604E-004
                    81 -2.649788339094070E-004
                    82 -4.220831935390970E-005
                    83 -1.992942602687062E-005
                    84  3.045970729397640E-005
                    85 -2.869268186649353E-005
                    86 -1.753324726110463E-004
                    87 -1.295765342618244E-005
                    88  4.883347592623140E-006
                    89  1.995314744098480E-005
                    90 -7.205528863310501E-005
                    91  6.113258082286604E-006
                    92  3.003257727173590E-005
                    93 -7.101761030178930E-004
                    94  3.037909359642370E-004
                    95 -1.194547603027340E-003
                    96 -2.646304900419350E-004
                    97 -1.967481613475610E-004
                    98  1.076951632698620E-003
                    99  7.812826203364951E-005
                   100 -4.485074301829460E-005
                   101  2.646534866633180E-004
                   102 -1.569568442407270E-003
                   103 -1.174625783758960E-005
                   104 -3.568638191997480E-004
                   105 -4.008362467908940E-005
                   106 -1.938547341684480E-005
                   107  3.173226449316000E-006
                   108  3.714894577078420E-005
                   109  3.709664103605050E-006
                   110 -3.929287369438786E-005
                   111  2.647223416582940E-004
                   112  3.925768527939680E-005
                   113 -1.271884901359540E-004
                   114 -3.500549213133160E-005
                   115 -3.199394060426742E-005
                   116  2.420156760221402E-005
                   117 -8.014886727381067E-006
                   118 -1.291783398754912E-005
                   119 -5.753910047049300E-006
                   120  1.226100387231811E-005
                   121 -4.502006061531873E-007
                   122 -3.000455977338580E-004
                   123 -2.007009406042840E-003
                   124  1.618053544015040E-004
                   125  6.290186828842890E-004
                   126  1.802458721313530E-003
                   127  1.060000476669060E-004
                   128 -1.892404573906980E-004
                   129  4.466476646362600E-004
                   130 -3.202846799698960E-005
                   131  3.440874602353010E-004
                   132  1.187149416363470E-003
                   133 -4.756755365921210E-005
                   134  8.725691161058300E-004
                   135  7.357918379120957E-005
                   136 -2.800352841416050E-005
                   137 -8.182662133407681E-006
                   138 -6.676984780056921E-005
                   139 -4.035674797573280E-007
                   140  2.307908187569963E-004
                   141  1.301001028719710E-004
                   142 -5.033306469750970E-006
                   143 -3.434174513056780E-004
                   144 -3.823611333453450E-005
                   145 -1.209091083499961E-005
                   146 -4.333470610908516E-005
                   147 -7.396866314297057E-006
                   148  1.328300278680072E-005
                   149 -4.810528257339520E-006
                   150 -9.147627593119409E-005
                   151  5.600858933896498E-006
                   152 -1.303327700382380E-004
                   153 -3.086761694472220E-004
                   154 -6.588864924087310E-005
                   155  7.089575110547100E-004
                   156  4.204897676080740E-004
                   157 -5.983026677783550E-005
                   158  8.090194620587531E-005
                   159 -3.393021969053700E-004
                   160 -1.079889585227300E-005
                   161  1.652900227090710E-005
                   162 -4.060016705177970E-004
                   163 -1.282247229552410E-004
                   164  9.797636857247060E-004
                   165 -3.312945713040757E-006
                   166 -1.364773174763030E-005
                   167 -1.284392563147660E-006
                   168  1.717021065900756E-005
                   169  3.110019167907330E-006
                   170 -5.930622961300743E-005
                   171  5.952870981708380E-005
                   172  2.168724124110320E-005
                   173 -6.602283185879180E-005
                   174 -6.844518621416270E-006
                   175 -3.389155421443821E-006
                   176 -1.528023234800980E-005
                   177 -7.505024893910204E-007
                   178 -4.994899126926320E-006
                   179  2.860626375317880E-006
                   180 -5.775842080210438E-008
                   181  5.885187832475964E-008
                   182 -1.244094257174080E-004
                   183 -1.914759871575630E-004
                   184  2.697895822762710E-005
                   185  2.426964439965320E-004
                   186 -2.431018220108310E-004
                   187 -1.436365504594320E-005
                   188 -8.843655137177849E-005
                   189  1.437349289237820E-004
                   190 -4.146783504603290E-005
                   191  3.919540929207970E-004
                   192 -4.885431098149350E-004
                   193 -1.511809041704730E-004
                   194  1.089917528982450E-003
                   195  2.839715599090313E-005
                   196 -1.103020279633530E-005
                   197 -6.246414700029680E-006
                   198 -1.558124444696058E-005
                   199  6.337805225358730E-007
                   200 -3.764144351417980E-005
                   201 -2.479209171503260E-004
                   202 -2.917712034867770E-006
                   203  4.056724421092460E-006
                   204  3.112349239930500E-005
                   205  5.521032572597963E-007
                   206  4.549599871632588E-006
                   207 -2.513310420106465E-006
                   208  1.409162998186860E-005
                   209 -5.126633445004750E-008
                   210 -5.282906301391053E-006
                   211 -1.933956666982191E-006
                   212 -7.270099069831430E-004
                   213  1.289965302057670E-003
                   214  1.358830920570970E-004
                   215 -2.035843243261110E-005
                   216  1.392399225245040E-004
                   217 -2.064393075971290E-003
                   218  1.607422393610760E-003
                   219  1.337062069343400E-004
                   220  3.767692401280340E-005
                   221  2.501684881628270E-004
                   222  1.478599056380580E-003
                   223 -1.791551668305350E-003
                   224 -2.712804759724350E-005
                   225 -1.490088985302280E-005
                   226  1.400082674216420E-004
                   227  6.771404726173070E-004
                   228 -1.053234469485050E-004
                   229 -2.386042970394000E-005
                   230  1.074558192415100E-005
                   231 -1.113290027899350E-004
                   232  8.790473947475010E-004
                   233 -8.809820357928370E-005
                   234 -1.789676376757190E-007
                   235 -5.897365252929740E-006
                   236  4.994645706151810E-005
                   237  1.146419578812620E-004
                   238 -6.037951952256030E-004
                   239 -2.398455047049340E-005
                   240 -2.374831940872610E-007
                   241 -1.258471415631340E-005
                   242 -3.673211871641620E-004
                   243  2.296275657516080E-004
                   244  3.690117737770920E-005
                   245  1.260944903451350E-006
                   246 -3.645421254943530E-006
 Sym= __2_a__
 Ene=  0.000000000000000E+000
 Spin= Alpha
 Occup=    2.00000000000000     
                     1 -3.351565573814400E-005
                     2 -1.563813951968420E-005
                     3 -2.860558560825970E-004
                     4 -1.807521736310410E-005
                     5  9.542483372162270E-004
                     6  1.614680634242080E-003
                     7 -1.346150562475240E-004
                     8  9.834084985689210E-004
                     9 -1.492186212532600E-004
                    10  1.590799353078450E-007
                    11 -1.086620879798940E-004
                    12  1.415264735123940E-004
                    13  1.874671025952540E-005
                    14 -1.443829366329100E-004
                    15 -4.702486764343686E-005
                    16  2.948467957809860E-005
                    17  3.467819823163100E-006
                    18  5.351485891897000E-005
                    19 -2.391871815721040E-007
                    20  4.579400482398437E-005
                    21 -5.036259475604400E-005
                    22 -2.353382682637440E-005
                    23  1.028518140880326E-004
                    24  2.135675372653960E-005
                    25 -2.702734295804356E-005
                    26  1.244497460474996E-004
                    27  1.143849057830292E-005
                    28 -6.266633029076040E-005
                    29 -8.361654630779280E-006
                    30  1.051262248161645E-004
                    31 -1.624117483199050E-006
                    32   1.00082378806696     
                    33  8.575456008444410E-003
                    34  2.844188824303130E-003
                    35 -8.436365353585761E-003
                    36 -1.335586783967340E-003
                    37 -1.146534023859250E-004
                    38  4.049680758158240E-005
                    39  7.024183398279480E-004
                    40  1.081588443695400E-004
                    41 -3.946550276323610E-004
                    42  2.463384893722730E-003
                    43  4.670475287928020E-005
                    44  3.894202856781030E-004
                    45  3.174688078246325E-004
                    46 -1.099507771204840E-005
                    47 -1.051087229087160E-004
                    48  3.123828899602780E-004
                    49  1.495068359932230E-005
                    50 -1.012769579313588E-003
                    51 -3.761189506947710E-004
                    52  2.159825894702910E-004
                    53 -1.110964568546942E-004
                    54  4.024965685306340E-005
                    55 -2.740982033569832E-005
                    56  2.541925911106298E-004
                    57  7.131378166525143E-006
                    58 -3.133832958165540E-005
                    59 -3.862521369394120E-005
                    60  7.085767630008137E-005
                    61 -1.372677461786624E-006
                    62  1.710931400627280E-002
                    63 -1.379183061107300E-003
                    64 -2.882715951276700E-004
                    65  2.754922679670210E-003
                    66 -3.915032845275020E-004
                    67 -7.099801996034640E-005
                    68  4.465953942434540E-004
                    69  2.410654748184540E-005
                    70 -3.804552756706100E-005
                    71  2.949695474670450E-004
                    72  2.006250049816340E-004
                    73  2.187859446437890E-004
                    74 -1.779292087772140E-003
                    75  1.397237106806575E-005
                    76  2.313657556268690E-005
                    77  2.946385142168080E-006
                    78 -4.745356544108800E-005
                    79 -4.979238182636020E-006
                    80 -5.566160958033384E-004
                    81 -3.760085716060280E-004
                    82  3.485442399813230E-006
                    83  8.096454453152040E-004
                    84  9.282577236252630E-005
                    85  3.490641466569549E-005
                    86  1.079694413592051E-004
                    87  1.892295089699744E-005
                    88 -2.968153284412100E-005
                    89 -2.569111265813480E-005
                    90 -2.627385092644283E-005
                    91  6.653155765687511E-006
                    92  1.874781131640580E-002
                    93 -1.752832458722600E-003
                    94 -3.386102957325930E-004
                    95  3.393068107675800E-003
                    96 -2.423408431418780E-004
                    97  1.785018564322950E-005
                    98 -2.996950248380070E-004
                    99 -1.195721713960060E-004
                   100  9.025289509053370E-005
                   101 -8.152239321581820E-004
                   102  3.390949298558120E-004
                   103 -1.697147894466770E-004
                   104  1.476942265449940E-003
                   105  6.158862544632746E-006
                   106 -1.901693742635360E-006
                   107  1.530349472156250E-006
                   108 -2.137543988163880E-005
                   109 -7.721189308151570E-007
                   110 -1.421040315326275E-004
                   111  5.276802693408540E-004
                   112 -2.300800639173980E-005
                   113  6.105877521759680E-004
                   114 -2.583803406325800E-005
                   115 -4.337512832700398E-005
                   116  8.289868293829061E-005
                   117 -1.520553306808457E-005
                   118  1.724946835902460E-005
                   119 -1.984850172508790E-005
                   120 -2.814889994223034E-005
                   121 -5.759419895821678E-007
                   122 -2.362427522734280E-005
                   123 -7.376206822126290E-004
                   124  2.441902275339880E-004
                   125 -4.222522451732180E-004
                   126 -4.675468641162100E-005
                   127  2.237034038453200E-006
                   128 -5.670426486402440E-005
                   129  6.268656346565800E-004
                   130  1.207374680158420E-005
                   131  5.684719702894300E-005
                   132  2.877974906231070E-004
                   133 -4.102036434156940E-005
                   134  4.257526547884020E-004
                   135  2.500653619154783E-006
                   136  3.516296035429700E-005
                   137  5.206376914125540E-006
                   138 -4.036051991955980E-005
                   139 -6.578862502845650E-006
                   140  1.862282014811679E-004
                   141 -2.924828521236560E-004
                   142 -2.018829052255040E-005
                   143 -2.204305286806180E-004
                   144  2.193518782976870E-005
                   145 -8.418369773723212E-006
                   146  1.189399672322363E-005
                   147 -1.874390365525016E-006
                   148 -1.412961834018284E-006
                   149 -5.339941392517070E-006
                   150 -1.957756078065996E-005
                   151  2.049935683414386E-006
                   152  5.327083699011850E-005
                   153 -7.561048887338810E-004
                   154  2.282937901305980E-004
                   155 -1.272115014494860E-004
                   156 -1.032900823785560E-004
                   157 -1.469950592845400E-005
                   158  3.746487487331520E-005
                   159  4.761458414151210E-004
                   160  1.485195448485750E-005