[Molden Format]
[Atoms] AU
  N     1    7    -4.5082829200   -0.1342819900   -0.4228200100        
  C     2    6    -1.7496705200   -0.0824342700   -0.1838819400        
  C     3    6    -0.3491890900    0.2202010900   -2.3813599000        
  C     4    6    -0.4819141000   -0.3194027500    2.1144844200        
  C     5    6     2.2679837200    0.2851297300   -2.2867536700        
  C     6    6     2.1285900100   -0.2535069600    2.1993448600        
  C     7    6     3.5096699900    0.0491470500   -0.0030301700        
  H     8    1    -5.1840567300   -2.1697885400    0.7751543100        
  H     9    1    -5.1710165100    1.2661961700    0.9629770900        
  H    10    1    -1.3260875200    0.4019365300   -4.1451509600        
  H    11    1    -1.5448115400   -0.5543420500    3.8263524900        
  H    12    1     3.3318141500    0.5199799700   -3.9976458500        
  H    13    1     3.0845146800   -0.4378414600    3.9798216900        
  H    14    1     5.5368142800    0.0998677000    0.0666404700        
[5D]
[7F]
[GTO]
  1  0
   s    12 1.00
  0.114200D+05  0.172695D-04
  0.171200D+04  0.134411D-03
  0.389300D+03  0.694561D-03
  0.110000D+03  0.278531D-02
  0.355700D+02  0.863457D-02
  0.125400D+02  0.199805D-01
  0.464400D+01  0.262908D-01
  0.129300D+01 -0.243845D-01
  0.511800D+00 -0.924934D-01
  0.178700D+00 -0.339683D+00
  0.246240D-01  0.345111D+00
  0.112530D-01  0.752750D+00
   s    10 1.00
  0.114200D+05  0.523000D-03
  0.171200D+04  0.404500D-02
  0.389300D+03  0.207750D-01
  0.110000D+03  0.807269D-01
  0.355700D+02  0.233074D+00
  0.125400D+02  0.433501D+00
  0.464400D+01  0.347472D+00
  0.129300D+01  0.412620D-01
  0.511800D+00 -0.850799D-02
  0.178700D+00  0.238400D-02
   s    10 1.00
  0.114200D+05 -0.115000D-03
  0.171200D+04 -0.895000D-03
  0.389300D+03 -0.462400D-02
  0.110000D+03 -0.185280D-01
  0.355700D+02 -0.573390D-01
  0.125400D+02 -0.132076D+00
  0.464400D+01 -0.172510D+00
  0.129300D+01  0.151814D+00
  0.511800D+00  0.599944D+00
  0.178700D+00  0.387462D+00
   s     1 1.00
  0.129300D+01  0.100000D+01
   s     1 1.00
  0.178700D+00  0.100000D+01
   p     5 1.00
  0.266300D+02  0.146700D-01
  0.594800D+01  0.917640D-01
  0.174200D+01  0.298683D+00
  0.555000D+00  0.498487D+00
  0.172500D+00  0.337023D+00
   p     1 1.00
  0.174200D+01  0.100000D+01
   p     1 1.00
  0.555000D+00  0.100000D+01
   d     1 1.00
  0.165400D+01  0.100000D+01
   d     1 1.00
  0.469000D+00  0.100000D+01
   f     1 1.00
  0.109300D+01  0.100000D+01
  
  2  0
   s    10 1.00
  0.823600D+04  0.531000D-03
  0.123500D+04  0.410800D-02
  0.280800D+03  0.210870D-01
  0.792700D+02  0.818530D-01
  0.255900D+02  0.234817D+00
  0.899700D+01  0.434401D+00
  0.331900D+01  0.346129D+00
  0.905900D+00  0.393780D-01
  0.364300D+00 -0.898300D-02
  0.128500D+00  0.238500D-02
   s    10 1.00
  0.823600D+04 -0.113000D-03
  0.123500D+04 -0.878000D-03
  0.280800D+03 -0.454000D-02
  0.792700D+02 -0.181330D-01
  0.255900D+02 -0.557600D-01
  0.899700D+01 -0.126895D+00
  0.331900D+01 -0.170352D+00
  0.905900D+00  0.140382D+00
  0.364300D+00  0.598684D+00
  0.128500D+00  0.395389D+00
   s     1 1.00
  0.905900D+00  0.100000D+01
   s     1 1.00
  0.364300D+00  0.100000D+01
   p     5 1.00
  0.187100D+02  0.140310D-01
  0.413300D+01  0.868660D-01
  0.120000D+01  0.290216D+00
  0.382700D+00  0.501008D+00
  0.120900D+00  0.343406D+00
   p     1 1.00
  0.382700D+00  0.100000D+01
   p     1 1.00
  0.120900D+00  0.100000D+01
   d     1 1.00
  0.109700D+01  0.100000D+01
   d     1 1.00
  0.318000D+00  0.100000D+01
   f     1 1.00
  0.761000D+00  0.100000D+01
  
  3  0
   s    10 1.00
  0.823600D+04  0.531000D-03
  0.123500D+04  0.410800D-02
  0.280800D+03  0.210870D-01
  0.792700D+02  0.818530D-01
  0.255900D+02  0.234817D+00
  0.899700D+01  0.434401D+00
  0.331900D+01  0.346129D+00
  0.905900D+00  0.393780D-01
  0.364300D+00 -0.898300D-02
  0.128500D+00  0.238500D-02
   s    10 1.00
  0.823600D+04 -0.113000D-03
  0.123500D+04 -0.878000D-03
  0.280800D+03 -0.454000D-02
  0.792700D+02 -0.181330D-01
  0.255900D+02 -0.557600D-01
  0.899700D+01 -0.126895D+00
  0.331900D+01 -0.170352D+00
  0.905900D+00  0.140382D+00
  0.364300D+00  0.598684D+00
  0.128500D+00  0.395389D+00
   s     1 1.00
  0.905900D+00  0.100000D+01
   s     1 1.00
  0.364300D+00  0.100000D+01
   p     5 1.00
  0.187100D+02  0.140310D-01
  0.413300D+01  0.868660D-01
  0.120000D+01  0.290216D+00
  0.382700D+00  0.501008D+00
  0.120900D+00  0.343406D+00
   p     1 1.00
  0.382700D+00  0.100000D+01
   p     1 1.00
  0.120900D+00  0.100000D+01
   d     1 1.00
  0.109700D+01  0.100000D+01
   d     1 1.00
  0.318000D+00  0.100000D+01
   f     1 1.00
  0.761000D+00  0.100000D+01
  
  4  0
   s    10 1.00
  0.823600D+04  0.531000D-03
  0.123500D+04  0.410800D-02
  0.280800D+03  0.210870D-01
  0.792700D+02  0.818530D-01
  0.255900D+02  0.234817D+00
  0.899700D+01  0.434401D+00
  0.331900D+01  0.346129D+00
  0.905900D+00  0.393780D-01
  0.364300D+00 -0.898300D-02
  0.128500D+00  0.238500D-02
   s    10 1.00
  0.823600D+04 -0.113000D-03
  0.123500D+04 -0.878000D-03
  0.280800D+03 -0.454000D-02
  0.792700D+02 -0.181330D-01
  0.255900D+02 -0.557600D-01
  0.899700D+01 -0.126895D+00
  0.331900D+01 -0.170352D+00
  0.905900D+00  0.140382D+00
  0.364300D+00  0.598684D+00
  0.128500D+00  0.395389D+00
   s     1 1.00
  0.905900D+00  0.100000D+01
   s     1 1.00
  0.364300D+00  0.100000D+01
   p     5 1.00
  0.187100D+02  0.140310D-01
  0.413300D+01  0.868660D-01
  0.120000D+01  0.290216D+00
  0.382700D+00  0.501008D+00
  0.120900D+00  0.343406D+00
   p     1 1.00
  0.382700D+00  0.100000D+01
   p     1 1.00
  0.120900D+00  0.100000D+01
   d     1 1.00
  0.109700D+01  0.100000D+01
   d     1 1.00
  0.318000D+00  0.100000D+01
   f     1 1.00
  0.761000D+00  0.100000D+01
  
  5  0
   s    10 1.00
  0.823600D+04  0.531000D-03
  0.123500D+04  0.410800D-02
  0.280800D+03  0.210870D-01
  0.792700D+02  0.818530D-01
  0.255900D+02  0.234817D+00
  0.899700D+01  0.434401D+00
  0.331900D+01  0.346129D+00
  0.905900D+00  0.393780D-01
  0.364300D+00 -0.898300D-02
  0.128500D+00  0.238500D-02
   s    10 1.00
  0.823600D+04 -0.113000D-03
  0.123500D+04 -0.878000D-03
  0.280800D+03 -0.454000D-02
  0.792700D+02 -0.181330D-01
  0.255900D+02 -0.557600D-01
  0.899700D+01 -0.126895D+00
  0.331900D+01 -0.170352D+00
  0.905900D+00  0.140382D+00
  0.364300D+00  0.598684D+00
  0.128500D+00  0.395389D+00
   s     1 1.00
  0.905900D+00  0.100000D+01
   s     1 1.00
  0.364300D+00  0.100000D+01
   p     5 1.00
  0.187100D+02  0.140310D-01
  0.413300D+01  0.868660D-01
  0.120000D+01  0.290216D+00
  0.382700D+00  0.501008D+00
  0.120900D+00  0.343406D+00
   p     1 1.00
  0.382700D+00  0.100000D+01
   p     1 1.00
  0.120900D+00  0.100000D+01
   d     1 1.00
  0.109700D+01  0.100000D+01
   d     1 1.00
  0.318000D+00  0.100000D+01
   f     1 1.00
  0.761000D+00  0.100000D+01
  
  6  0
   s    10 1.00
  0.823600D+04  0.531000D-03
  0.123500D+04  0.410800D-02
  0.280800D+03  0.210870D-01
  0.792700D+02  0.818530D-01
  0.255900D+02  0.234817D+00
  0.899700D+01  0.434401D+00
  0.331900D+01  0.346129D+00
  0.905900D+00  0.393780D-01
  0.364300D+00 -0.898300D-02
  0.128500D+00  0.238500D-02
   s    10 1.00
  0.823600D+04 -0.113000D-03
  0.123500D+04 -0.878000D-03
  0.280800D+03 -0.454000D-02
  0.792700D+02 -0.181330D-01
  0.255900D+02 -0.557600D-01
  0.899700D+01 -0.126895D+00
  0.331900D+01 -0.170352D+00
  0.905900D+00  0.140382D+00
  0.364300D+00  0.598684D+00
  0.128500D+00  0.395389D+00
   s     1 1.00
  0.905900D+00  0.100000D+01
   s     1 1.00
  0.364300D+00  0.100000D+01
   p     5 1.00
  0.187100D+02  0.140310D-01
  0.413300D+01  0.868660D-01
  0.120000D+01  0.290216D+00
  0.382700D+00  0.501008D+00
  0.120900D+00  0.343406D+00
   p     1 1.00
  0.382700D+00  0.100000D+01
   p     1 1.00
  0.120900D+00  0.100000D+01
   d     1 1.00
  0.109700D+01  0.100000D+01
   d     1 1.00
  0.318000D+00  0.100000D+01
   f     1 1.00
  0.761000D+00  0.100000D+01
  
  7  0
   s    10 1.00
  0.823600D+04  0.531000D-03
  0.123500D+04  0.410800D-02
  0.280800D+03  0.210870D-01
  0.792700D+02  0.818530D-01
  0.255900D+02  0.234817D+00
  0.899700D+01  0.434401D+00
  0.331900D+01  0.346129D+00
  0.905900D+00  0.393780D-01
  0.364300D+00 -0.898300D-02
  0.128500D+00  0.238500D-02
   s    10 1.00
  0.823600D+04 -0.113000D-03
  0.123500D+04 -0.878000D-03
  0.280800D+03 -0.454000D-02
  0.792700D+02 -0.181330D-01
  0.255900D+02 -0.557600D-01
  0.899700D+01 -0.126895D+00
  0.331900D+01 -0.170352D+00
  0.905900D+00  0.140382D+00
  0.364300D+00  0.598684D+00
  0.128500D+00  0.395389D+00
   s     1 1.00
  0.905900D+00  0.100000D+01
   s     1 1.00
  0.364300D+00  0.100000D+01
   p     5 1.00
  0.187100D+02  0.140310D-01
  0.413300D+01  0.868660D-01
  0.120000D+01  0.290216D+00
  0.382700D+00  0.501008D+00
  0.120900D+00  0.343406D+00
   p     1 1.00
  0.382700D+00  0.100000D+01
   p     1 1.00
  0.120900D+00  0.100000D+01
   d     1 1.00
  0.109700D+01  0.100000D+01
   d     1 1.00
  0.318000D+00  0.100000D+01
   f     1 1.00
  0.761000D+00  0.100000D+01
  
  8  0
   s     4 1.00
  0.130100D+02  0.196850D-01
  0.196200D+01  0.137977D+00
  0.444600D+00  0.478148D+00
  0.122000D+00  0.501240D+00
   s     1 1.00
  0.122000D+00  0.100000D+01
   p     1 1.00
  0.727000D+00  0.100000D+01
  
  9  0
   s     4 1.00
  0.130100D+02  0.196850D-01
  0.196200D+01  0.137977D+00
  0.444600D+00  0.478148D+00
  0.122000D+00  0.501240D+00
   s     1 1.00
  0.122000D+00  0.100000D+01
   p     1 1.00
  0.727000D+00  0.100000D+01
  
 10  0
   s     4 1.00
  0.130100D+02  0.196850D-01
  0.196200D+01  0.137977D+00
  0.444600D+00  0.478148D+00
  0.122000D+00  0.501240D+00
   s     1 1.00
  0.122000D+00  0.100000D+01
   p     1 1.00
  0.727000D+00  0.100000D+01
  
 11  0
   s     4 1.00
  0.130100D+02  0.196850D-01
  0.196200D+01  0.137977D+00
  0.444600D+00  0.478148D+00
  0.122000D+00  0.501240D+00
   s     1 1.00
  0.122000D+00  0.100000D+01
   p     1 1.00
  0.727000D+00  0.100000D+01
  
 12  0
   s     4 1.00
  0.130100D+02  0.196850D-01
  0.196200D+01  0.137977D+00
  0.444600D+00  0.478148D+00
  0.122000D+00  0.501240D+00
   s     1 1.00
  0.122000D+00  0.100000D+01
   p     1 1.00
  0.727000D+00  0.100000D+01
  
 13  0
   s     4 1.00
  0.130100D+02  0.196850D-01
  0.196200D+01  0.137977D+00
  0.444600D+00  0.478148D+00
  0.122000D+00  0.501240D+00
   s     1 1.00
  0.122000D+00  0.100000D+01
   p     1 1.00
  0.727000D+00  0.100000D+01
  
 14  0
   s     4 1.00
  0.130100D+02  0.196850D-01
  0.196200D+01  0.137977D+00
  0.444600D+00  0.478148D+00
  0.122000D+00  0.501240D+00
   s     1 1.00
  0.122000D+00  0.100000D+01
   p     1 1.00
  0.727000D+00  0.100000D+01
  
[MO]
 Sym= __1_A__
 Ene=   1.00000000000000     
 Spin= Alpha
 Occup=    1.00000000000000     
                     1 -4.339225876259307E-004
                     2  0.998091286732028     
                     3 -3.074578732645014E-002
                     4  1.576065793440049E-003
                     5  4.926840309763384E-003
                     6  1.248147990362529E-002
                     7 -1.868703563531469E-003
                     8  2.300418624602144E-002
                     9 -1.429000539861725E-003
                    10  7.890119030084012E-005
                    11 -1.758260460906765E-003
                    12 -3.720836170637545E-003
                    13  2.939616393432489E-004
                    14 -5.658266522881988E-003
                    15  1.307067420600137E-004
                    16  4.898651999516958E-005
                    17 -9.836827426499299E-006
                    18  6.194589437024361E-005
                    19  5.359598557887095E-006
                    20  5.236977635994685E-004
                    21  7.905841907798670E-004
                    22 -4.035014513328094E-005
                    23  1.737004099573755E-004
                    24 -4.950471506359475E-005
                    25  3.774793518460519E-005
                    26 -5.130309775264496E-005
                    27  1.482651657930325E-005
                    28  4.634904364047136E-005
                    29  2.276050670334199E-005
                    30  2.330456457598238E-005
                    31 -4.687364824257449E-006
                    32 -3.783942005473269E-004
                    33  6.543444914162415E-004
                    34  2.476878792854668E-004
                    35  1.325391119058447E-004
                    36  1.099433132148947E-003
                    37  2.378095889078198E-004
                    38 -1.362819184964175E-003
                    39 -5.706484684046486E-004
                    40 -1.033428773142909E-004
                    41  6.079410895903336E-004
                    42  3.306449166310484E-003
                    43  3.110870237701068E-004
                    44 -1.692492973609653E-003
                    45  4.472118047019933E-005
                    46 -3.069393403996266E-004
                    47 -1.821042695176088E-005
                    48 -4.938256362151478E-005
                    49  3.204230929679053E-005
                    50  9.533624447196037E-005
                    51  1.305305324968460E-004
                    52  1.760350106345250E-005
                    53 -7.035154298216078E-005
                    54 -4.252719267162291E-005
                    55  1.028097878295301E-004
                    56 -4.661149684302332E-006
                    57  8.957369268618759E-006
                    58  1.123322011382280E-004
                    59  4.086110580741217E-006
                    60 -5.927148191671246E-005
                    61 -7.214076449803542E-006
                    62 -8.384954445261488E-004
                    63  1.415987824825610E-004
                    64 -1.621844514856319E-004
                    65  3.070270525168663E-003
                    66 -3.709815961075346E-003
                    67 -2.152990421814340E-004
                    68  1.056420399167882E-003
                    69  7.181300356115436E-004
                    70 -2.965912162859724E-005
                    71  6.174097639396671E-004
                    72  1.443241172846568E-003
                    73  2.965375817271016E-004
                    74 -2.369988970857897E-003
                    75  1.138943168631242E-004
                    76 -8.918524217737565E-005
                    77 -2.776210150116807E-005
                    78  2.437316938206558E-005
                    79  1.090646692537265E-005
                    80  2.103294485548605E-004
                    81 -2.649788339094069E-004
                    82 -4.220831935390974E-005
                    83 -1.992942602687063E-005
                    84  3.045970729397638E-005
                    85 -2.869268186649364E-005
                    86 -1.753324726110463E-004
                    87 -1.295765342618241E-005
                    88  4.883347592623140E-006
                    89  1.995314744098477E-005
                    90 -7.205528863310494E-005
                    91  6.113258082286609E-006
                    92  3.003257727173594E-005
                    93 -7.101761030178927E-004
                    94  3.037909359642365E-004
                    95 -1.194547603027344E-003
                    96 -2.646304900419354E-004
                    97 -1.967481613475605E-004
                    98  1.076951632698621E-003
                    99  7.812826203364945E-005
                   100 -4.485074301829461E-005
                   101  2.646534866633182E-004
                   102 -1.569568442407268E-003
                   103 -1.174625783758960E-005
                   104 -3.568638191997483E-004
                   105 -4.008362467908930E-005
                   106 -1.938547341684480E-005
                   107  3.173226449315998E-006
                   108  3.714894577078422E-005
                   109  3.709664103605047E-006
                   110 -3.929287369438772E-005
                   111  2.647223416582943E-004
                   112  3.925768527939685E-005
                   113 -1.271884901359540E-004
                   114 -3.500549213133156E-005
                   115 -3.199394060426742E-005
                   116  2.420156760221400E-005
                   117 -8.014886727381048E-006
                   118 -1.291783398754911E-005
                   119 -5.753910047049300E-006
                   120  1.226100387231811E-005
                   121 -4.502006061531874E-007
                   122 -3.000455977338582E-004
                   123 -2.007009406042843E-003
                   124  1.618053544015036E-004
                   125  6.290186828842893E-004
                   126  1.802458721313528E-003
                   127  1.060000476669064E-004
                   128 -1.892404573906977E-004
                   129  4.466476646362600E-004
                   130 -3.202846799698956E-005
                   131  3.440874602353014E-004
                   132  1.187149416363470E-003
                   133 -4.756755365921206E-005
                   134  8.725691161058298E-004
                   135  7.357918379120960E-005
                   136 -2.800352841416048E-005
                   137 -8.182662133407684E-006
                   138 -6.676984780056913E-005
                   139 -4.035674797573282E-007
                   140  2.307908187569964E-004
                   141  1.301001028719708E-004
                   142 -5.033306469750966E-006
                   143 -3.434174513056780E-004
                   144 -3.823611333453449E-005
                   145 -1.209091083499960E-005
                   146 -4.333470610908519E-005
                   147 -7.396866314297081E-006
                   148  1.328300278680072E-005
                   149 -4.810528257339520E-006
                   150 -9.147627593119405E-005
                   151  5.600858933896493E-006
                   152 -1.303327700382379E-004
                   153 -3.086761694472217E-004
                   154 -6.588864924087313E-005
                   155  7.089575110547099E-004
                   156  4.204897676080739E-004
                   157 -5.983026677783552E-005
                   158  8.090194620587528E-005
                   159 -3.393021969053702E-004
                   160 -1.079889585227300E-005
                   161  1.652900227090706E-005
                   162 -4.060016705177967E-004
                   163 -1.282247229552406E-004
                   164  9.797636857247064E-004
                   165 -3.312945713040757E-006
                   166 -1.364773174763034E-005
                   167 -1.284392563147659E-006
                   168  1.717021065900755E-005
                   169  3.110019167907327E-006
                   170 -5.930622961300743E-005
                   171  5.952870981708378E-005
                   172  2.168724124110323E-005
                   173 -6.602283185879176E-005
                   174 -6.844518621416266E-006
                   175 -3.389155421443821E-006
                   176 -1.528023234800977E-005
                   177 -7.505024893910210E-007
                   178 -4.994899126926314E-006
                   179  2.860626375317885E-006
                   180 -5.775842080210444E-008
                   181  5.885187832475984E-008
                   182 -1.244094257174084E-004
                   183 -1.914759871575628E-004
                   184  2.697895822762713E-005
                   185  2.426964439965318E-004
                   186 -2.431018220108309E-004
                   187 -1.436365504594320E-005
                   188 -8.843655137177848E-005
                   189  1.437349289237821E-004
                   190 -4.146783504603287E-005
                   191  3.919540929207966E-004
                   192 -4.885431098149351E-004
                   193 -1.511809041704732E-004
                   194  1.089917528982448E-003
                   195  2.839715599090312E-005
                   196 -1.103020279633532E-005
                   197 -6.246414700029675E-006
                   198 -1.558124444696057E-005
                   199  6.337805225358729E-007
                   200 -3.764144351417972E-005
                   201 -2.479209171503255E-004
                   202 -2.917712034867765E-006
                   203  4.056724421092460E-006
                   204  3.112349239930499E-005
                   205  5.521032572597959E-007
                   206  4.549599871632591E-006
                   207 -2.513310420106463E-006
                   208  1.409162998186859E-005
                   209 -5.126633445004746E-008
                   210 -5.282906301391056E-006
                   211 -1.933956666982189E-006
                   212 -7.270099069831431E-004
                   213  1.289965302057665E-003
                   214  1.358830920570968E-004
                   215 -2.035843243261112E-005
                   216  1.392399225245038E-004
                   217 -2.064393075971286E-003
                   218  1.607422393610762E-003
                   219  1.337062069343402E-004
                   220  3.767692401280343E-005
                   221  2.501684881628275E-004
                   222  1.478599056380575E-003
                   223 -1.791551668305347E-003
                   224 -2.712804759724346E-005
                   225 -1.490088985302284E-005
                   226  1.400082674216422E-004
                   227  6.771404726173066E-004
                   228 -1.053234469485048E-004
                   229 -2.386042970393999E-005
                   230  1.074558192415102E-005
                   231 -1.113290027899345E-004
                   232  8.790473947475006E-004
                   233 -8.809820357928374E-005
                   234 -1.789676376757194E-007
                   235 -5.897365252929736E-006
                   236  4.994645706151811E-005
                   237  1.146419578812622E-004
                   238 -6.037951952256027E-004
                   239 -2.398455047049344E-005
                   240 -2.374831940872605E-007
                   241 -1.258471415631344E-005
                   242 -3.673211871641620E-004
                   243  2.296275657516083E-004
                   244  3.690117737770922E-005
                   245  1.260944903451351E-006
                   246 -3.645421254943527E-006
 Sym= __2_A__
 Ene=   2.00000000000000     
 Spin= Alpha
 Occup=    1.00000000000000     
                     1 -3.351565573814401E-005
                     2 -1.563813951968419E-005
                     3 -2.860558560825973E-004
                     4 -1.807521736310413E-005
                     5  9.542483372162273E-004
                     6  1.614680634242080E-003
                     7 -1.346150562475237E-004
                     8  9.834084985689206E-004
                     9 -1.492186212532602E-004
                    10  1.590799353078450E-007
                    11 -1.086620879798944E-004
                    12  1.415264735123943E-004
                    13  1.874671025952543E-005
                    14 -1.443829366329099E-004
                    15 -4.702486764343673E-005
                    16  2.948467957809856E-005
                    17  3.467819823163103E-006
                    18  5.351485891897008E-005
                    19 -2.391871815721045E-007
                    20  4.579400482398450E-005
                    21 -5.036259475604400E-005
                    22 -2.353382682637439E-005
                    23  1.028518140880326E-004
                    24  2.135675372653964E-005
                    25 -2.702734295804361E-005
                    26  1.244497460474997E-004
                    27  1.143849057830292E-005
                    28 -6.266633029076039E-005
                    29 -8.361654630779282E-006
                    30  1.051262248161644E-004
                    31 -1.624117483199050E-006
                    32   1.00082378806696     
                    33  8.575456008444414E-003
                    34  2.844188824303130E-003
                    35 -8.436365353585761E-003
                    36 -1.335586783967336E-003
                    37 -1.146534023859252E-004
                    38  4.049680758158241E-005
                    39  7.024183398279482E-004
                    40  1.081588443695398E-004
                    41 -3.946550276323610E-004
                    42  2.463384893722725E-003
                    43  4.670475287928018E-005
                    44  3.894202856781027E-004
                    45  3.174688078246324E-004
                    46 -1.099507771204842E-005
                    47 -1.051087229087162E-004
                    48  3.123828899602772E-004
                    49  1.495068359932230E-005
                    50 -1.012769579313589E-003
                    51 -3.761189506947708E-004
                    52  2.159825894702908E-004
                    53 -1.110964568546943E-004
                    54  4.024965685306336E-005
                    55 -2.740982033569835E-005
                    56  2.541925911106300E-004
                    57  7.131378166525118E-006
                    58 -3.133832958165542E-005
                    59 -3.862521369394120E-005
                    60  7.085767630008130E-005
                    61 -1.372677461786623E-006
                    62  1.710931400627280E-002
                    63 -1.379183061107304E-003
                    64 -2.882715951276698E-004
                    65  2.754922679670208E-003
                    66 -3.915032845275022E-004
                    67 -7.099801996034645E-005
                    68  4.465953942434535E-004
                    69  2.410654748184543E-005
                    70 -3.804552756706098E-005
                    71  2.949695474670449E-004
                    72  2.006250049816340E-004
                    73  2.187859446437891E-004
                    74 -1.779292087772139E-003
                    75  1.397237106806575E-005
                    76  2.313657556268692E-005
                    77  2.946385142168078E-006
                    78 -4.745356544108792E-005
                    79 -4.979238182636025E-006
                    80 -5.566160958033398E-004
                    81 -3.760085716060279E-004
                    82  3.485442399813231E-006
                    83  8.096454453152034E-004
                    84  9.282577236252628E-005
                    85  3.490641466569540E-005
                    86  1.079694413592052E-004
                    87  1.892295089699744E-005
                    88 -2.968153284412090E-005
                    89 -2.569111265813484E-005
                    90 -2.627385092644290E-005
                    91  6.653155765687535E-006
                    92  1.874781131640585E-002
                    93 -1.752832458722605E-003
                    94 -3.386102957325927E-004
                    95  3.393068107675799E-003
                    96 -2.423408431418780E-004
                    97  1.785018564322947E-005
                    98 -2.996950248380068E-004
                    99 -1.195721713960060E-004
                   100  9.025289509053375E-005
                   101 -8.152239321581819E-004
                   102  3.390949298558122E-004
                   103 -1.697147894466767E-004
                   104  1.476942265449940E-003
                   105  6.158862544632750E-006
                   106 -1.901693742635363E-006
                   107  1.530349472156254E-006
                   108 -2.137543988163870E-005
                   109 -7.721189308151569E-007
                   110 -1.421040315326276E-004
                   111  5.276802693408538E-004
                   112 -2.300800639173982E-005
                   113  6.105877521759678E-004
                   114 -2.583803406325795E-005
                   115 -4.337512832700385E-005
                   116  8.289868293829030E-005
                   117 -1.520553306808455E-005
                   118  1.724946835902460E-005
                   119 -1.984850172508791E-005
                   120 -2.814889994223037E-005
                   121 -5.759419895821687E-007
                   122 -2.362427522734276E-005
                   123 -7.376206822126285E-004
                   124  2.441902275339883E-004
                   125 -4.222522451732177E-004
                   126 -4.675468641162102E-005
                   127  2.237034038453202E-006
                   128 -5.670426486402443E-005
                   129  6.268656346565796E-004
                   130  1.207374680158425E-005
                   131  5.684719702894301E-005
                   132  2.877974906231071E-004
                   133 -4.102036434156938E-005
                   134  4.257526547884015E-004
                   135  2.500653619154782E-006
                   136  3.516296035429704E-005
                   137  5.206376914125542E-006
                   138 -4.036051991955986E-005
                   139 -6.578862502845647E-006
                   140  1.862282014811678E-004
                   141 -2.924828521236556E-004
                   142 -2.018829052255044E-005
                   143 -2.204305286806184E-004
                   144  2.193518782976866E-005
                   145 -8.418369773723221E-006
                   146  1.189399672322363E-005
                   147 -1.874390365525015E-006
                   148 -1.412961834018285E-006
                   149 -5.339941392517071E-006
                   150 -1.957756078066004E-005
                   151  2.049935683414389E-006
                   152  5.327083699011855E-005
                   153 -7.561048887338810E-004
                   154  2.282937901305976E-004
                   155 -1.272115014494863E-004
                   156 -1.032900823785558E-004
                   157 -1.469950592845398E-005
                   158  3.746487487331518E-005
                   159  4.761458414151210E-004
                   160  1.485195448485748E-005