[Molden Format]
[Atoms] AU
  N     1    7     0.0000000000   -4.2907334100    0.0000000000        
  C     2    6     0.0000000000   -1.7772236300    0.0000000000        
  C     3    6    -2.3389203600   -0.4111016300    0.0000000000        
  C     4    6     2.3389203600   -0.4111016300    0.0000000000        
  C     5    6    -2.2998668500    2.1639215300    0.0000000000        
  C     6    6     2.2998668500    2.1639215300    0.0000000000        
  C     7    6     0.0000000000    3.4755251800    0.0000000000        
  H     8    1    -2.2516208400   -5.6797945000    0.0000000000        
  H     9    1     2.2516208400   -5.6797945000    0.0000000000        
  H    10    1    -4.0745407300   -1.4447408500    0.0000000000        
  H    11    1     4.0745407300   -1.4447408500    0.0000000000        
  H    12    1    -4.0420632100    3.1963889500    0.0000000000        
  H    13    1     4.0420632100    3.1963889500    0.0000000000        
  H    14    1     0.0000000000    5.5020335600    0.0000000000        
[5D]
[7F]
[GTO]
  1  0
   s    12 1.00
  0.114200D+05  0.172695D-04
  0.171200D+04  0.134411D-03
  0.389300D+03  0.694561D-03
  0.110000D+03  0.278531D-02
  0.355700D+02  0.863457D-02
  0.125400D+02  0.199805D-01
  0.464400D+01  0.262908D-01
  0.129300D+01 -0.243845D-01
  0.511800D+00 -0.924934D-01
  0.178700D+00 -0.339683D+00
  0.246240D-01  0.345111D+00
  0.112530D-01  0.752750D+00
   s    10 1.00
  0.114200D+05  0.523000D-03
  0.171200D+04  0.404500D-02
  0.389300D+03  0.207750D-01
  0.110000D+03  0.807269D-01
  0.355700D+02  0.233074D+00
  0.125400D+02  0.433501D+00
  0.464400D+01  0.347472D+00
  0.129300D+01  0.412620D-01
  0.511800D+00 -0.850799D-02
  0.178700D+00  0.238400D-02
   s    10 1.00
  0.114200D+05 -0.115000D-03
  0.171200D+04 -0.895000D-03
  0.389300D+03 -0.462400D-02
  0.110000D+03 -0.185280D-01
  0.355700D+02 -0.573390D-01
  0.125400D+02 -0.132076D+00
  0.464400D+01 -0.172510D+00
  0.129300D+01  0.151814D+00
  0.511800D+00  0.599944D+00
  0.178700D+00  0.387462D+00
   s     1 1.00
  0.129300D+01  0.100000D+01
   s     1 1.00
  0.178700D+00  0.100000D+01
   p     5 1.00
  0.266300D+02  0.146700D-01
  0.594800D+01  0.917640D-01
  0.174200D+01  0.298683D+00
  0.555000D+00  0.498487D+00
  0.172500D+00  0.337023D+00
   p     1 1.00
  0.174200D+01  0.100000D+01
   p     1 1.00
  0.555000D+00  0.100000D+01
   d     1 1.00
  0.165400D+01  0.100000D+01
   d     1 1.00
  0.469000D+00  0.100000D+01
   f     1 1.00
  0.109300D+01  0.100000D+01
  
  2  0
   s    10 1.00
  0.823600D+04  0.531000D-03
  0.123500D+04  0.410800D-02
  0.280800D+03  0.210870D-01
  0.792700D+02  0.818530D-01
  0.255900D+02  0.234817D+00
  0.899700D+01  0.434401D+00
  0.331900D+01  0.346129D+00
  0.905900D+00  0.393780D-01
  0.364300D+00 -0.898300D-02
  0.128500D+00  0.238500D-02
   s    10 1.00
  0.823600D+04 -0.113000D-03
  0.123500D+04 -0.878000D-03
  0.280800D+03 -0.454000D-02
  0.792700D+02 -0.181330D-01
  0.255900D+02 -0.557600D-01
  0.899700D+01 -0.126895D+00
  0.331900D+01 -0.170352D+00
  0.905900D+00  0.140382D+00
  0.364300D+00  0.598684D+00
  0.128500D+00  0.395389D+00
   s     1 1.00
  0.905900D+00  0.100000D+01
   s     1 1.00
  0.364300D+00  0.100000D+01
   p     5 1.00
  0.187100D+02  0.140310D-01
  0.413300D+01  0.868660D-01
  0.120000D+01  0.290216D+00
  0.382700D+00  0.501008D+00
  0.120900D+00  0.343406D+00
   p     1 1.00
  0.382700D+00  0.100000D+01
   p     1 1.00
  0.120900D+00  0.100000D+01
   d     1 1.00
  0.109700D+01  0.100000D+01
   d     1 1.00
  0.318000D+00  0.100000D+01
   f     1 1.00
  0.761000D+00  0.100000D+01
  
  3  0
   s    10 1.00
  0.823600D+04  0.531000D-03
  0.123500D+04  0.410800D-02
  0.280800D+03  0.210870D-01
  0.792700D+02  0.818530D-01
  0.255900D+02  0.234817D+00
  0.899700D+01  0.434401D+00
  0.331900D+01  0.346129D+00
  0.905900D+00  0.393780D-01
  0.364300D+00 -0.898300D-02
  0.128500D+00  0.238500D-02
   s    10 1.00
  0.823600D+04 -0.113000D-03
  0.123500D+04 -0.878000D-03
  0.280800D+03 -0.454000D-02
  0.792700D+02 -0.181330D-01
  0.255900D+02 -0.557600D-01
  0.899700D+01 -0.126895D+00
  0.331900D+01 -0.170352D+00
  0.905900D+00  0.140382D+00
  0.364300D+00  0.598684D+00
  0.128500D+00  0.395389D+00
   s     1 1.00
  0.905900D+00  0.100000D+01
   s     1 1.00
  0.364300D+00  0.100000D+01
   p     5 1.00
  0.187100D+02  0.140310D-01
  0.413300D+01  0.868660D-01
  0.120000D+01  0.290216D+00
  0.382700D+00  0.501008D+00
  0.120900D+00  0.343406D+00
   p     1 1.00
  0.382700D+00  0.100000D+01
   p     1 1.00
  0.120900D+00  0.100000D+01
   d     1 1.00
  0.109700D+01  0.100000D+01
   d     1 1.00
  0.318000D+00  0.100000D+01
   f     1 1.00
  0.761000D+00  0.100000D+01
  
  4  0
   s    10 1.00
  0.823600D+04  0.531000D-03
  0.123500D+04  0.410800D-02
  0.280800D+03  0.210870D-01
  0.792700D+02  0.818530D-01
  0.255900D+02  0.234817D+00
  0.899700D+01  0.434401D+00
  0.331900D+01  0.346129D+00
  0.905900D+00  0.393780D-01
  0.364300D+00 -0.898300D-02
  0.128500D+00  0.238500D-02
   s    10 1.00
  0.823600D+04 -0.113000D-03
  0.123500D+04 -0.878000D-03
  0.280800D+03 -0.454000D-02
  0.792700D+02 -0.181330D-01
  0.255900D+02 -0.557600D-01
  0.899700D+01 -0.126895D+00
  0.331900D+01 -0.170352D+00
  0.905900D+00  0.140382D+00
  0.364300D+00  0.598684D+00
  0.128500D+00  0.395389D+00
   s     1 1.00
  0.905900D+00  0.100000D+01
   s     1 1.00
  0.364300D+00  0.100000D+01
   p     5 1.00
  0.187100D+02  0.140310D-01
  0.413300D+01  0.868660D-01
  0.120000D+01  0.290216D+00
  0.382700D+00  0.501008D+00
  0.120900D+00  0.343406D+00
   p     1 1.00
  0.382700D+00  0.100000D+01
   p     1 1.00
  0.120900D+00  0.100000D+01
   d     1 1.00
  0.109700D+01  0.100000D+01
   d     1 1.00
  0.318000D+00  0.100000D+01
   f     1 1.00
  0.761000D+00  0.100000D+01
  
  5  0
   s    10 1.00
  0.823600D+04  0.531000D-03
  0.123500D+04  0.410800D-02
  0.280800D+03  0.210870D-01
  0.792700D+02  0.818530D-01
  0.255900D+02  0.234817D+00
  0.899700D+01  0.434401D+00
  0.331900D+01  0.346129D+00
  0.905900D+00  0.393780D-01
  0.364300D+00 -0.898300D-02
  0.128500D+00  0.238500D-02
   s    10 1.00
  0.823600D+04 -0.113000D-03
  0.123500D+04 -0.878000D-03
  0.280800D+03 -0.454000D-02
  0.792700D+02 -0.181330D-01
  0.255900D+02 -0.557600D-01
  0.899700D+01 -0.126895D+00
  0.331900D+01 -0.170352D+00
  0.905900D+00  0.140382D+00
  0.364300D+00  0.598684D+00
  0.128500D+00  0.395389D+00
   s     1 1.00
  0.905900D+00  0.100000D+01
   s     1 1.00
  0.364300D+00  0.100000D+01
   p     5 1.00
  0.187100D+02  0.140310D-01
  0.413300D+01  0.868660D-01
  0.120000D+01  0.290216D+00
  0.382700D+00  0.501008D+00
  0.120900D+00  0.343406D+00
   p     1 1.00
  0.382700D+00  0.100000D+01
   p     1 1.00
  0.120900D+00  0.100000D+01
   d     1 1.00
  0.109700D+01  0.100000D+01
   d     1 1.00
  0.318000D+00  0.100000D+01
   f     1 1.00
  0.761000D+00  0.100000D+01
  
  6  0
   s    10 1.00
  0.823600D+04  0.531000D-03
  0.123500D+04  0.410800D-02
  0.280800D+03  0.210870D-01
  0.792700D+02  0.818530D-01
  0.255900D+02  0.234817D+00
  0.899700D+01  0.434401D+00
  0.331900D+01  0.346129D+00
  0.905900D+00  0.393780D-01
  0.364300D+00 -0.898300D-02
  0.128500D+00  0.238500D-02
   s    10 1.00
  0.823600D+04 -0.113000D-03
  0.123500D+04 -0.878000D-03
  0.280800D+03 -0.454000D-02
  0.792700D+02 -0.181330D-01
  0.255900D+02 -0.557600D-01
  0.899700D+01 -0.126895D+00
  0.331900D+01 -0.170352D+00
  0.905900D+00  0.140382D+00
  0.364300D+00  0.598684D+00
  0.128500D+00  0.395389D+00
   s     1 1.00
  0.905900D+00  0.100000D+01
   s     1 1.00
  0.364300D+00  0.100000D+01
   p     5 1.00
  0.187100D+02  0.140310D-01
  0.413300D+01  0.868660D-01
  0.120000D+01  0.290216D+00
  0.382700D+00  0.501008D+00
  0.120900D+00  0.343406D+00
   p     1 1.00
  0.382700D+00  0.100000D+01
   p     1 1.00
  0.120900D+00  0.100000D+01
   d     1 1.00
  0.109700D+01  0.100000D+01
   d     1 1.00
  0.318000D+00  0.100000D+01
   f     1 1.00
  0.761000D+00  0.100000D+01
  
  7  0
   s    10 1.00
  0.823600D+04  0.531000D-03
  0.123500D+04  0.410800D-02
  0.280800D+03  0.210870D-01
  0.792700D+02  0.818530D-01
  0.255900D+02  0.234817D+00
  0.899700D+01  0.434401D+00
  0.331900D+01  0.346129D+00
  0.905900D+00  0.393780D-01
  0.364300D+00 -0.898300D-02
  0.128500D+00  0.238500D-02
   s    10 1.00
  0.823600D+04 -0.113000D-03
  0.123500D+04 -0.878000D-03
  0.280800D+03 -0.454000D-02
  0.792700D+02 -0.181330D-01
  0.255900D+02 -0.557600D-01
  0.899700D+01 -0.126895D+00
  0.331900D+01 -0.170352D+00
  0.905900D+00  0.140382D+00
  0.364300D+00  0.598684D+00
  0.128500D+00  0.395389D+00
   s     1 1.00
  0.905900D+00  0.100000D+01
   s     1 1.00
  0.364300D+00  0.100000D+01
   p     5 1.00
  0.187100D+02  0.140310D-01
  0.413300D+01  0.868660D-01
  0.120000D+01  0.290216D+00
  0.382700D+00  0.501008D+00
  0.120900D+00  0.343406D+00
   p     1 1.00
  0.382700D+00  0.100000D+01
   p     1 1.00
  0.120900D+00  0.100000D+01
   d     1 1.00
  0.109700D+01  0.100000D+01
   d     1 1.00
  0.318000D+00  0.100000D+01
   f     1 1.00
  0.761000D+00  0.100000D+01
  
  8  0
   s     4 1.00
  0.130100D+02  0.196850D-01
  0.196200D+01  0.137977D+00
  0.444600D+00  0.478148D+00
  0.122000D+00  0.501240D+00
   s     1 1.00
  0.122000D+00  0.100000D+01
   p     1 1.00
  0.727000D+00  0.100000D+01
  
  9  0
   s     4 1.00
  0.130100D+02  0.196850D-01
  0.196200D+01  0.137977D+00
  0.444600D+00  0.478148D+00
  0.122000D+00  0.501240D+00
   s     1 1.00
  0.122000D+00  0.100000D+01
   p     1 1.00
  0.727000D+00  0.100000D+01
  
 10  0
   s     4 1.00
  0.130100D+02  0.196850D-01
  0.196200D+01  0.137977D+00
  0.444600D+00  0.478148D+00
  0.122000D+00  0.501240D+00
   s     1 1.00
  0.122000D+00  0.100000D+01
   p     1 1.00
  0.727000D+00  0.100000D+01
  
 11  0
   s     4 1.00
  0.130100D+02  0.196850D-01
  0.196200D+01  0.137977D+00
  0.444600D+00  0.478148D+00
  0.122000D+00  0.501240D+00
   s     1 1.00
  0.122000D+00  0.100000D+01
   p     1 1.00
  0.727000D+00  0.100000D+01
  
 12  0
   s     4 1.00
  0.130100D+02  0.196850D-01
  0.196200D+01  0.137977D+00
  0.444600D+00  0.478148D+00
  0.122000D+00  0.501240D+00
   s     1 1.00
  0.122000D+00  0.100000D+01
   p     1 1.00
  0.727000D+00  0.100000D+01
  
 13  0
   s     4 1.00
  0.130100D+02  0.196850D-01
  0.196200D+01  0.137977D+00
  0.444600D+00  0.478148D+00
  0.122000D+00  0.501240D+00
   s     1 1.00
  0.122000D+00  0.100000D+01
   p     1 1.00
  0.727000D+00  0.100000D+01
  
 14  0
   s     4 1.00
  0.130100D+02  0.196850D-01
  0.196200D+01  0.137977D+00
  0.444600D+00  0.478148D+00
  0.122000D+00  0.501240D+00
   s     1 1.00
  0.122000D+00  0.100000D+01
   p     1 1.00
  0.727000D+00  0.100000D+01
  
[MO]
 Sym= __1_A__
 Ene=   1.00000000000000     
 Spin= Alpha
 Occup=    1.00000000000000     
                     1  4.699094566221182E-006
                     2  0.998789619506020     
                     3  8.210617910333294E-004
                     4  1.249791232827387E-003
                     5  4.737360711250977E-003
                     6 -5.373065645546843E-009
                     7  6.611038468809461E-003
                     8  0.000000000000000E+000
                     9  8.193203136042087E-009
                    10 -6.567878874397655E-004
                    11  0.000000000000000E+000
                    12 -2.837182597367232E-008
                    13 -2.150923172290463E-003
                    14  0.000000000000000E+000
                    15 -4.991389848396294E-005
                    16  0.000000000000000E+000
                    17  0.000000000000000E+000
                    18 -2.447814159431530E-004
                    19 -2.609664767008261E-010
                    20  2.061517626296809E-004
                    21  0.000000000000000E+000
                    22  0.000000000000000E+000
                    23 -2.610991363064190E-004
                    24 -1.894592426950715E-008
                    25  0.000000000000000E+000
                    26  1.067217074500934E-009
                    27 -4.959053284194464E-005
                    28  0.000000000000000E+000
                    29  0.000000000000000E+000
                    30 -5.466763209364675E-009
                    31 -1.033779558116004E-004
                    32 -2.767925237657587E-004
                    33  1.141655575815921E-003
                    34  2.541219054690141E-004
                    35 -3.054805707435874E-004
                    36  2.515343756809540E-008
                    37 -3.892248280676291E-003
                    38  0.000000000000000E+000
                    39 -1.132981838292520E-007
                    40  5.844387650098291E-005
                    41  0.000000000000000E+000
                    42 -1.683024001249539E-007
                    43  5.369738118393022E-003
                    44  0.000000000000000E+000
                    45 -1.757089971465962E-005
                    46  0.000000000000000E+000
                    47  0.000000000000000E+000
                    48 -2.079728622023240E-004
                    49  2.906231633268240E-009
                    50 -2.656139300935909E-004
                    51  0.000000000000000E+000
                    52  0.000000000000000E+000
                    53 -2.720399809926674E-005
                    54 -1.330385514267068E-007
                    55  0.000000000000000E+000
                    56  4.047218305463635E-009
                    57 -4.275735332960869E-005
                    58  0.000000000000000E+000
                    59  0.000000000000000E+000
                    60  8.462171493004977E-009
                    61 -1.141843136690154E-004
                    62 -3.278837260058921E-004
                    63 -1.507985541697710E-003
                    64  5.496426113539222E-005
                    65  9.376684710302414E-004
                    66 -4.837571628113680E-004
                    67  3.852430553416291E-004
                    68  0.000000000000000E+000
                    69  1.942005363663264E-005
                    70  5.163027724845946E-004
                    71  0.000000000000000E+000
                    72 -1.179867328854611E-003
                    73 -3.160380476378634E-004
                    74  0.000000000000000E+000
                    75 -2.636003148832887E-005
                    76  0.000000000000000E+000
                    77  0.000000000000000E+000
                    78 -6.024918108448994E-005
                    79 -6.578171359773314E-006
                    80 -6.222893228373916E-006
                    81  0.000000000000000E+000
                    82  0.000000000000000E+000
                    83 -2.945940275801026E-005
                    84  2.427711205051851E-005
                    85  0.000000000000000E+000
                    86  1.400343064382917E-005
                    87 -3.882412051025131E-005
                    88  0.000000000000000E+000
                    89  0.000000000000000E+000
                    90 -1.798431581595075E-005
                    91 -9.357446515403321E-005
                    92 -3.278831635910124E-004
                    93 -1.507969727931641E-003
                    94  5.505890957687707E-005
                    95  9.373675281168420E-004
                    96  4.837888094417565E-004
                    97  3.853289071202415E-004
                    98  0.000000000000000E+000
                    99 -1.958071384408552E-005
                   100  5.157846630437446E-004
                   101  0.000000000000000E+000
                   102  1.179539767135015E-003
                   103 -3.163136920469297E-004
                   104  0.000000000000000E+000
                   105 -2.634715002527559E-005
                   106  0.000000000000000E+000
                   107  0.000000000000000E+000
                   108 -6.023145060708896E-005
                   109  6.585344331067792E-006
                   110 -6.156027649306916E-006
                   111  0.000000000000000E+000
                   112  0.000000000000000E+000
                   113 -2.914491887464576E-005
                   114 -2.426180537086555E-005
                   115  0.000000000000000E+000
                   116 -1.399717857297024E-005
                   117 -3.879619568083207E-005
                   118  0.000000000000000E+000
                   119  0.000000000000000E+000
                   120  1.796633697238623E-005
                   121 -9.354777003270830E-005
                   122 -2.495634415430140E-004
                   123 -5.728675337443031E-004
                   124  1.051529822100825E-004
                   125  4.654387600164312E-004
                   126 -2.152501371058780E-006
                   127 -3.902974829294223E-004
                   128  0.000000000000000E+000
                   129  1.166233747646879E-004
                   130  3.159436068640572E-004
                   131  0.000000000000000E+000
                   132 -1.798204326387448E-004
                   133  8.696630362666043E-004
                   134  0.000000000000000E+000
                   135  3.668830183137826E-006
                   136  0.000000000000000E+000
                   137  0.000000000000000E+000
                   138  2.073722398465750E-005
                   139 -5.193375533193727E-006
                   140  1.328326604876294E-004
                   141  0.000000000000000E+000
                   142  0.000000000000000E+000
                   143  1.791145244055927E-004
                   144  1.250779145855341E-004
                   145  0.000000000000000E+000
                   146 -7.753634700427434E-006
                   147 -3.407555868949062E-005
                   148  0.000000000000000E+000
                   149  0.000000000000000E+000
                   150  4.707584718662560E-006
                   151 -2.834324244521264E-005
                   152 -2.497795077420045E-004
                   153 -5.736216103364674E-004
                   154  1.049855335656994E-004
                   155  4.666349204497915E-004
                   156  2.063982257880868E-006
                   157 -3.902144439710972E-004
                   158  0.000000000000000E+000
                   159 -1.163677701430279E-004
                   160  3.154468162843130E-004
                   161  0.000000000000000E+000
                   162  1.801959499982330E-004
                   163  8.693851285869228E-004
                   164  0.000000000000000E+000
                   165  3.645821816490637E-006
                   166  0.000000000000000E+000
                   167  0.000000000000000E+000
                   168  2.071538437533440E-005
                   169  5.203550870686039E-006
                   170  1.327941550227690E-004
                   171  0.000000000000000E+000
                   172  0.000000000000000E+000
                   173  1.789137325161875E-004
                   174 -1.250215132370606E-004
                   175  0.000000000000000E+000
                   176  7.732231216302901E-006
                   177 -3.405319805584080E-005
                   178  0.000000000000000E+000
                   179  0.000000000000000E+000
                   180 -4.682317521884749E-006
                   181 -2.830563877341752E-005
                   182 -1.830235501148732E-004
                   183 -5.340982560980733E-004
                   184  5.661342715413150E-005
                   185  2.809128355893572E-004
                   186 -4.273375013529042E-008
                   187 -4.700959199389314E-005
                   188  0.000000000000000E+000
                   189  1.430160745297225E-007
                   190  6.270132703500980E-005
                   191  0.000000000000000E+000
                   192  1.939104956528876E-007
                   193 -1.400384531227930E-004
                   194  0.000000000000000E+000
                   195 -2.063068961612662E-006
                   196  0.000000000000000E+000
                   197  0.000000000000000E+000
                   198 -1.299184972917325E-005
                   199 -4.386862026631844E-009
                   200  3.249679539389475E-005
                   201  0.000000000000000E+000
                   202  0.000000000000000E+000
                   203 -8.125565971480136E-005
                   204 -4.490215651206832E-008
                   205  0.000000000000000E+000
                   206 -5.784459289353700E-009
                   207 -6.836162504756395E-006
                   208  0.000000000000000E+000
                   209  0.000000000000000E+000
                   210 -9.214929548910176E-009
                   211 -7.907058377019867E-007
                   212 -1.364724901318870E-004
                   213 -1.670694835531707E-004
                   214  2.070132148944353E-004
                   215  1.449256689132031E-004
                   216  0.000000000000000E+000
                   217 -1.364738649043968E-004
                   218 -1.670635726489924E-004
                   219 -2.070162637844223E-004
                   220  1.449261262340987E-004
                   221  0.000000000000000E+000
                   222 -2.470931335890005E-004
                   223 -6.138622151924778E-004
                   224  6.612787740072320E-006
                   225 -4.147197607030231E-005
                   226  0.000000000000000E+000
                   227 -2.471397385422472E-004
                   228 -6.137552336631007E-004
                   229 -6.630605966968663E-006
                   230 -4.149600065134576E-005
                   231  0.000000000000000E+000
                   232 -7.119068195872398E-005
                   233 -4.751250343967424E-004
                   234  1.443022798148219E-006
                   235 -1.386090321163144E-006
                   236  0.000000000000000E+000
                   237 -7.132552745512065E-005
                   238 -4.750873448835842E-004
                   239 -1.390185201036000E-006
                   240 -1.371840725132255E-006
                   241  0.000000000000000E+000
                   242  1.075703509646924E-005
                   243 -5.118074547087788E-005
                   244  2.821310951959939E-009
                   245  2.025554160484849E-005
                   246  0.000000000000000E+000
 Sym= __2_A__
 Ene=   2.00000000000000     
 Spin= Alpha
 Occup=    1.00000000000000     
                     1 -6.042603219696061E-005
                     2 -3.574486764476038E-004
                     3  3.064787335450029E-003
                     4  1.665598836236355E-004
                     5  1.310580622426660E-003
                     6  2.101872656403723E-009
                     7  3.013487229147555E-003
                     8  0.000000000000000E+000
                     9 -2.323689493671260E-009
                    10 -1.177378206125940E-004
                    11  0.000000000000000E+000
                    12  5.156601818586258E-009
                    13 -3.971136995456172E-004
                    14  0.000000000000000E+000
                    15  3.302557368349704E-005
                    16  0.000000000000000E+000
                    17  0.000000000000000E+000
                    18 -5.726567202640946E-005
                    19  4.518079053297454E-010
                    20 -1.211321249620796E-004
                    21  0.000000000000000E+000
                    22  0.000000000000000E+000
                    23  1.326945327199368E-004
                    24  2.067129011511181E-009
                    25  0.000000000000000E+000
                    26  3.249980545986818E-010
                    27  9.119667327445667E-005
                    28  0.000000000000000E+000
                    29  0.000000000000000E+000
                    30  2.189940200915830E-009
                    31  1.521003455335705E-004
                    32   1.00100114456755     
                    33  9.335487994197537E-003
                    34  2.758174061770177E-003
                    35 -8.091008642043412E-003
                    36 -3.113570291559838E-009
                    37 -3.895535032221567E-003
                    38  0.000000000000000E+000
                    39  8.371060300167091E-010
                    40  6.817635336873439E-004
                    41  0.000000000000000E+000
                    42 -1.885922140519628E-008
                    43  4.330929688268570E-003
                    44  0.000000000000000E+000
                    45 -5.827061334944220E-004
                    46  0.000000000000000E+000
                    47  0.000000000000000E+000
                    48 -2.077662674305732E-004
                    49 -2.269512707988290E-009
                    50  5.468647910644778E-004
                    51  0.000000000000000E+000
                    52  0.000000000000000E+000
                    53 -8.669171289726000E-004
                    54  1.228507578927303E-008
                    55  0.000000000000000E+000
                    56  1.416526586347063E-009
                    57  9.008576055371456E-005
                    58  0.000000000000000E+000
                    59  0.000000000000000E+000
                    60 -1.427729893919502E-009
                    61  4.056350732891865E-004
                    62  9.061453511841564E-003
                    63 -2.093001676473315E-003
                    64 -2.810703057601431E-004
                    65  3.029940201028008E-003
                    66 -9.769514960780416E-006
                    67  9.713209955783010E-005
                    68  0.000000000000000E+000
                    69  6.704048046166706E-004
                    70  3.953808956876224E-005
                    71  0.000000000000000E+000
                    72 -2.062328701703163E-003
                    73  8.255137424789342E-005
                    74  0.000000000000000E+000
                    75  3.036919987816495E-005
                    76  0.000000000000000E+000
                    77  0.000000000000000E+000
                    78 -5.435686113491592E-006
                    79  6.988181165551791E-006
                    80 -4.067380794949191E-004
                    81  0.000000000000000E+000
                    82  0.000000000000000E+000
                    83 -6.095090671548072E-004
                    84 -3.678128491034238E-004
                    85  0.000000000000000E+000
                    86  3.358790256241417E-005
                    87 -5.871573921383740E-005
                    88  0.000000000000000E+000
                    89  0.000000000000000E+000
                    90  5.237534344702454E-005
                    91  1.393023792709130E-004
                    92  9.061431580981884E-003
                    93 -2.093076792469373E-003
                    94 -2.811050593578590E-004
                    95  3.030109510622258E-003
                    96  9.767804265042268E-006
                    97  9.711147090604479E-005
                    98  0.000000000000000E+000
                    99 -6.704000575357430E-004
                   100  3.964853458728148E-005
                   101  0.000000000000000E+000
                   102  2.062461308348266E-003
                   103  8.248278098685560E-005
                   104  0.000000000000000E+000
                   105  3.036192216058102E-005
                   106  0.000000000000000E+000
                   107  0.000000000000000E+000
                   108 -5.445576774431198E-006
                   109 -6.993740045904427E-006
                   110 -4.067473509725947E-004
                   111  0.000000000000000E+000
                   112  0.000000000000000E+000
                   113 -6.095599980585694E-004
                   114  3.678515413068394E-004
                   115  0.000000000000000E+000
                   116 -3.358716764314630E-005
                   117 -5.872089262688333E-005
                   118  0.000000000000000E+000
                   119  0.000000000000000E+000
                   120 -5.237239681179401E-005
                   121  1.392926254957380E-004
                   122 -1.740619546896768E-004
                   123 -6.899075951183073E-004
                   124  2.285562894734702E-004
                   125 -1.210893849874885E-004
                   126 -2.668525613177803E-006
                   127 -3.384966797309935E-004
                   128  0.000000000000000E+000
                   129 -5.155108145300092E-005
                   130  5.500899777999925E-004
                   131  0.000000000000000E+000
                   132  3.204725887137068E-004
                   133  7.578678499082285E-004
                   134  0.000000000000000E+000
                   135  1.961702630167329E-005
                   136  0.000000000000000E+000
                   137  0.000000000000000E+000
                   138  3.946685721030346E-006
                   139  5.324877319761014E-005
                   140  1.356309943783286E-004
                   141  0.000000000000000E+000
                   142  0.000000000000000E+000
                   143  2.513367375817122E-004
                   144 -1.887209745259411E-004
                   145  0.000000000000000E+000
                   146  6.577903195127880E-006
                   147 -3.309184114592703E-005
                   148  0.000000000000000E+000
                   149  0.000000000000000E+000
                   150 -4.560678098444164E-005
                   151  2.725146746100783E-005
                   152 -1.738608770092311E-004
                   153 -6.892371832795239E-004
                   154  2.286023043752930E-004
                   155 -1.217962256318719E-004
                   156  2.662819610488968E-006
                   157 -3.385011485334817E-004
                   158  0.000000000000000E+000
                   159  5.157178372659194E-005
                   160  5.501458230187068E-004