[Molden Format]
[Atoms] AU
  N     1    7     0.0000000000    0.0000000000   -4.2907334100        
  C     2    6     0.0000000000    0.0000000000   -1.7772236300        
  C     3    6     0.0000000000   -2.3389203600   -0.4111016300        
  C     4    6     0.0000000000    2.3389203600   -0.4111016300        
  C     5    6     0.0000000000   -2.2998668500    2.1639215300        
  C     6    6     0.0000000000    2.2998668500    2.1639215300        
  C     7    6     0.0000000000    0.0000000000    3.4755251800        
  H     8    1     0.0000000000   -2.0907907800   -5.5805758500        
  H     9    1     0.0000000000    1.9299607200   -5.4813572000        
  H    10    1     0.0000000000   -4.0745407300   -1.4447408500        
  H    11    1     0.0000000000    4.0745407300   -1.4447408500        
  H    12    1     0.0000000000   -4.0420632100    3.1963889500        
  H    13    1     0.0000000000    4.0420632100    3.1963889500        
  H    14    1     0.0000000000    0.0000000000    5.5020335600        
[5D]
[7F]
[GTO]
  1  0
   s    12 1.00
  0.114200D+05  0.172695D-04
  0.171200D+04  0.134411D-03
  0.389300D+03  0.694561D-03
  0.110000D+03  0.278531D-02
  0.355700D+02  0.863457D-02
  0.125400D+02  0.199805D-01
  0.464400D+01  0.262908D-01
  0.129300D+01 -0.243845D-01
  0.511800D+00 -0.924934D-01
  0.178700D+00 -0.339683D+00
  0.246240D-01  0.345111D+00
  0.112530D-01  0.752750D+00
   s    10 1.00
  0.114200D+05  0.523000D-03
  0.171200D+04  0.404500D-02
  0.389300D+03  0.207750D-01
  0.110000D+03  0.807269D-01
  0.355700D+02  0.233074D+00
  0.125400D+02  0.433501D+00
  0.464400D+01  0.347472D+00
  0.129300D+01  0.412620D-01
  0.511800D+00 -0.850799D-02
  0.178700D+00  0.238400D-02
   s    10 1.00
  0.114200D+05 -0.115000D-03
  0.171200D+04 -0.895000D-03
  0.389300D+03 -0.462400D-02
  0.110000D+03 -0.185280D-01
  0.355700D+02 -0.573390D-01
  0.125400D+02 -0.132076D+00
  0.464400D+01 -0.172510D+00
  0.129300D+01  0.151814D+00
  0.511800D+00  0.599944D+00
  0.178700D+00  0.387462D+00
   s     1 1.00
  0.129300D+01  0.100000D+01
   s     1 1.00
  0.178700D+00  0.100000D+01
   p     5 1.00
  0.266300D+02  0.146700D-01
  0.594800D+01  0.917640D-01
  0.174200D+01  0.298683D+00
  0.555000D+00  0.498487D+00
  0.172500D+00  0.337023D+00
   p     1 1.00
  0.174200D+01  0.100000D+01
   p     1 1.00
  0.555000D+00  0.100000D+01
   d     1 1.00
  0.165400D+01  0.100000D+01
   d     1 1.00
  0.469000D+00  0.100000D+01
   f     1 1.00
  0.109300D+01  0.100000D+01
  
  2  0
   s    10 1.00
  0.823600D+04  0.531000D-03
  0.123500D+04  0.410800D-02
  0.280800D+03  0.210870D-01
  0.792700D+02  0.818530D-01
  0.255900D+02  0.234817D+00
  0.899700D+01  0.434401D+00
  0.331900D+01  0.346129D+00
  0.905900D+00  0.393780D-01
  0.364300D+00 -0.898300D-02
  0.128500D+00  0.238500D-02
   s    10 1.00
  0.823600D+04 -0.113000D-03
  0.123500D+04 -0.878000D-03
  0.280800D+03 -0.454000D-02
  0.792700D+02 -0.181330D-01
  0.255900D+02 -0.557600D-01
  0.899700D+01 -0.126895D+00
  0.331900D+01 -0.170352D+00
  0.905900D+00  0.140382D+00
  0.364300D+00  0.598684D+00
  0.128500D+00  0.395389D+00
   s     1 1.00
  0.905900D+00  0.100000D+01
   s     1 1.00
  0.364300D+00  0.100000D+01
   p     5 1.00
  0.187100D+02  0.140310D-01
  0.413300D+01  0.868660D-01
  0.120000D+01  0.290216D+00
  0.382700D+00  0.501008D+00
  0.120900D+00  0.343406D+00
   p     1 1.00
  0.382700D+00  0.100000D+01
   p     1 1.00
  0.120900D+00  0.100000D+01
   d     1 1.00
  0.109700D+01  0.100000D+01
   d     1 1.00
  0.318000D+00  0.100000D+01
   f     1 1.00
  0.761000D+00  0.100000D+01
  
  3  0
   s    10 1.00
  0.823600D+04  0.531000D-03
  0.123500D+04  0.410800D-02
  0.280800D+03  0.210870D-01
  0.792700D+02  0.818530D-01
  0.255900D+02  0.234817D+00
  0.899700D+01  0.434401D+00
  0.331900D+01  0.346129D+00
  0.905900D+00  0.393780D-01
  0.364300D+00 -0.898300D-02
  0.128500D+00  0.238500D-02
   s    10 1.00
  0.823600D+04 -0.113000D-03
  0.123500D+04 -0.878000D-03
  0.280800D+03 -0.454000D-02
  0.792700D+02 -0.181330D-01
  0.255900D+02 -0.557600D-01
  0.899700D+01 -0.126895D+00
  0.331900D+01 -0.170352D+00
  0.905900D+00  0.140382D+00
  0.364300D+00  0.598684D+00
  0.128500D+00  0.395389D+00
   s     1 1.00
  0.905900D+00  0.100000D+01
   s     1 1.00
  0.364300D+00  0.100000D+01
   p     5 1.00
  0.187100D+02  0.140310D-01
  0.413300D+01  0.868660D-01
  0.120000D+01  0.290216D+00
  0.382700D+00  0.501008D+00
  0.120900D+00  0.343406D+00
   p     1 1.00
  0.382700D+00  0.100000D+01
   p     1 1.00
  0.120900D+00  0.100000D+01
   d     1 1.00
  0.109700D+01  0.100000D+01
   d     1 1.00
  0.318000D+00  0.100000D+01
   f     1 1.00
  0.761000D+00  0.100000D+01
  
  4  0
   s    10 1.00
  0.823600D+04  0.531000D-03
  0.123500D+04  0.410800D-02
  0.280800D+03  0.210870D-01
  0.792700D+02  0.818530D-01
  0.255900D+02  0.234817D+00
  0.899700D+01  0.434401D+00
  0.331900D+01  0.346129D+00
  0.905900D+00  0.393780D-01
  0.364300D+00 -0.898300D-02
  0.128500D+00  0.238500D-02
   s    10 1.00
  0.823600D+04 -0.113000D-03
  0.123500D+04 -0.878000D-03
  0.280800D+03 -0.454000D-02
  0.792700D+02 -0.181330D-01
  0.255900D+02 -0.557600D-01
  0.899700D+01 -0.126895D+00
  0.331900D+01 -0.170352D+00
  0.905900D+00  0.140382D+00
  0.364300D+00  0.598684D+00
  0.128500D+00  0.395389D+00
   s     1 1.00
  0.905900D+00  0.100000D+01
   s     1 1.00
  0.364300D+00  0.100000D+01
   p     5 1.00
  0.187100D+02  0.140310D-01
  0.413300D+01  0.868660D-01
  0.120000D+01  0.290216D+00
  0.382700D+00  0.501008D+00
  0.120900D+00  0.343406D+00
   p     1 1.00
  0.382700D+00  0.100000D+01
   p     1 1.00
  0.120900D+00  0.100000D+01
   d     1 1.00
  0.109700D+01  0.100000D+01
   d     1 1.00
  0.318000D+00  0.100000D+01
   f     1 1.00
  0.761000D+00  0.100000D+01
  
  5  0
   s    10 1.00
  0.823600D+04  0.531000D-03
  0.123500D+04  0.410800D-02
  0.280800D+03  0.210870D-01
  0.792700D+02  0.818530D-01
  0.255900D+02  0.234817D+00
  0.899700D+01  0.434401D+00
  0.331900D+01  0.346129D+00
  0.905900D+00  0.393780D-01
  0.364300D+00 -0.898300D-02
  0.128500D+00  0.238500D-02
   s    10 1.00
  0.823600D+04 -0.113000D-03
  0.123500D+04 -0.878000D-03
  0.280800D+03 -0.454000D-02
  0.792700D+02 -0.181330D-01
  0.255900D+02 -0.557600D-01
  0.899700D+01 -0.126895D+00
  0.331900D+01 -0.170352D+00
  0.905900D+00  0.140382D+00
  0.364300D+00  0.598684D+00
  0.128500D+00  0.395389D+00
   s     1 1.00
  0.905900D+00  0.100000D+01
   s     1 1.00
  0.364300D+00  0.100000D+01
   p     5 1.00
  0.187100D+02  0.140310D-01
  0.413300D+01  0.868660D-01
  0.120000D+01  0.290216D+00
  0.382700D+00  0.501008D+00
  0.120900D+00  0.343406D+00
   p     1 1.00
  0.382700D+00  0.100000D+01
   p     1 1.00
  0.120900D+00  0.100000D+01
   d     1 1.00
  0.109700D+01  0.100000D+01
   d     1 1.00
  0.318000D+00  0.100000D+01
   f     1 1.00
  0.761000D+00  0.100000D+01
  
  6  0
   s    10 1.00
  0.823600D+04  0.531000D-03
  0.123500D+04  0.410800D-02
  0.280800D+03  0.210870D-01
  0.792700D+02  0.818530D-01
  0.255900D+02  0.234817D+00
  0.899700D+01  0.434401D+00
  0.331900D+01  0.346129D+00
  0.905900D+00  0.393780D-01
  0.364300D+00 -0.898300D-02
  0.128500D+00  0.238500D-02
   s    10 1.00
  0.823600D+04 -0.113000D-03
  0.123500D+04 -0.878000D-03
  0.280800D+03 -0.454000D-02
  0.792700D+02 -0.181330D-01
  0.255900D+02 -0.557600D-01
  0.899700D+01 -0.126895D+00
  0.331900D+01 -0.170352D+00
  0.905900D+00  0.140382D+00
  0.364300D+00  0.598684D+00
  0.128500D+00  0.395389D+00
   s     1 1.00
  0.905900D+00  0.100000D+01
   s     1 1.00
  0.364300D+00  0.100000D+01
   p     5 1.00
  0.187100D+02  0.140310D-01
  0.413300D+01  0.868660D-01
  0.120000D+01  0.290216D+00
  0.382700D+00  0.501008D+00
  0.120900D+00  0.343406D+00
   p     1 1.00
  0.382700D+00  0.100000D+01
   p     1 1.00
  0.120900D+00  0.100000D+01
   d     1 1.00
  0.109700D+01  0.100000D+01
   d     1 1.00
  0.318000D+00  0.100000D+01
   f     1 1.00
  0.761000D+00  0.100000D+01
  
  7  0
   s    10 1.00
  0.823600D+04  0.531000D-03
  0.123500D+04  0.410800D-02
  0.280800D+03  0.210870D-01
  0.792700D+02  0.818530D-01
  0.255900D+02  0.234817D+00
  0.899700D+01  0.434401D+00
  0.331900D+01  0.346129D+00
  0.905900D+00  0.393780D-01
  0.364300D+00 -0.898300D-02
  0.128500D+00  0.238500D-02
   s    10 1.00
  0.823600D+04 -0.113000D-03
  0.123500D+04 -0.878000D-03
  0.280800D+03 -0.454000D-02
  0.792700D+02 -0.181330D-01
  0.255900D+02 -0.557600D-01
  0.899700D+01 -0.126895D+00
  0.331900D+01 -0.170352D+00
  0.905900D+00  0.140382D+00
  0.364300D+00  0.598684D+00
  0.128500D+00  0.395389D+00
   s     1 1.00
  0.905900D+00  0.100000D+01
   s     1 1.00
  0.364300D+00  0.100000D+01
   p     5 1.00
  0.187100D+02  0.140310D-01
  0.413300D+01  0.868660D-01
  0.120000D+01  0.290216D+00
  0.382700D+00  0.501008D+00
  0.120900D+00  0.343406D+00
   p     1 1.00
  0.382700D+00  0.100000D+01
   p     1 1.00
  0.120900D+00  0.100000D+01
   d     1 1.00
  0.109700D+01  0.100000D+01
   d     1 1.00
  0.318000D+00  0.100000D+01
   f     1 1.00
  0.761000D+00  0.100000D+01
  
  8  0
   s     4 1.00
  0.130100D+02  0.196850D-01
  0.196200D+01  0.137977D+00
  0.444600D+00  0.478148D+00
  0.122000D+00  0.501240D+00
   s     1 1.00
  0.122000D+00  0.100000D+01
   p     1 1.00
  0.727000D+00  0.100000D+01
  
  9  0
   s     4 1.00
  0.130100D+02  0.196850D-01
  0.196200D+01  0.137977D+00
  0.444600D+00  0.478148D+00
  0.122000D+00  0.501240D+00
   s     1 1.00
  0.122000D+00  0.100000D+01
   p     1 1.00
  0.727000D+00  0.100000D+01
  
 10  0
   s     4 1.00
  0.130100D+02  0.196850D-01
  0.196200D+01  0.137977D+00
  0.444600D+00  0.478148D+00
  0.122000D+00  0.501240D+00
   s     1 1.00
  0.122000D+00  0.100000D+01
   p     1 1.00
  0.727000D+00  0.100000D+01
  
 11  0
   s     4 1.00
  0.130100D+02  0.196850D-01
  0.196200D+01  0.137977D+00
  0.444600D+00  0.478148D+00
  0.122000D+00  0.501240D+00
   s     1 1.00
  0.122000D+00  0.100000D+01
   p     1 1.00
  0.727000D+00  0.100000D+01
  
 12  0
   s     4 1.00
  0.130100D+02  0.196850D-01
  0.196200D+01  0.137977D+00
  0.444600D+00  0.478148D+00
  0.122000D+00  0.501240D+00
   s     1 1.00
  0.122000D+00  0.100000D+01
   p     1 1.00
  0.727000D+00  0.100000D+01
  
 13  0
   s     4 1.00
  0.130100D+02  0.196850D-01
  0.196200D+01  0.137977D+00
  0.444600D+00  0.478148D+00
  0.122000D+00  0.501240D+00
   s     1 1.00
  0.122000D+00  0.100000D+01
   p     1 1.00
  0.727000D+00  0.100000D+01
  
 14  0
   s     4 1.00
  0.130100D+02  0.196850D-01
  0.196200D+01  0.137977D+00
  0.444600D+00  0.478148D+00
  0.122000D+00  0.501240D+00
   s     1 1.00
  0.122000D+00  0.100000D+01
   p     1 1.00
  0.727000D+00  0.100000D+01
  
[MO]
 Sym= __1_a__
 Ene=  0.000000000000000E+000
 Spin= Alpha
 Occup=    2.00000000000000     
                     1 -1.960494669738850E-005
                     2  0.998624021316991     
                     3  3.955609228995650E-003
                     4  1.504730354492840E-003
                     5  3.274880067268880E-003
                     6  1.714806450574850E-011
                     7  7.980159355128200E-004
                     8  5.598734405320770E-003
                     9 -6.789211804479920E-012
                    10 -1.212859884333150E-004
                    11 -2.626157260838090E-004
                    12 -1.422435893440270E-011
                    13 -4.803721286064170E-004
                    14 -1.107368281801160E-003
                    15  2.569178036463558E-004
                    16  8.320988406309450E-013
                    17 -1.905173329649870E-005
                    18  3.481341705369640E-005
                    19  5.388370314044930E-013
                    20  8.623363735850285E-005
                    21 -2.332945144567800E-012
                    22  1.229449134658170E-004
                    23  4.311507430188920E-004
                    24 -2.008027627727500E-012
                    25 -1.103227538884770E-004
                    26 -1.392495777627102E-012
                    27  4.026054284492196E-006
                    28  1.008077672703768E-005
                    29 -1.803623616935700E-012
                    30 -2.513174724072871E-013
                    31  2.911348028574286E-006
                    32 -3.026827002657290E-004
                    33  1.953270113515650E-003
                    34  1.647619590021800E-004
                    35 -2.133448195864180E-004
                    36  2.996553779312080E-012
                    37 -4.738169968060570E-005
                    38 -5.357667541432580E-003
                    39 -3.721053770560750E-012
                    40  9.662582009074960E-005
                    41  1.052149777734060E-004
                    42 -2.074419167175910E-011
                    43 -4.038593675730360E-004
                    44  4.965920471059150E-003
                    45  2.698452332493299E-004
                    46  2.062395881011200E-012
                    47 -7.419367061898620E-006
                    48  1.107135018121572E-004
                    49  3.738417181084700E-013
                    50  1.775142479283959E-004
                    51 -1.270310454670760E-011
                    52  1.621246030239440E-004
                    53 -3.024900497438420E-004
                    54  3.625864020551060E-012
                    55 -9.607950785696704E-005
                    56 -2.106361530307984E-012
                    57  1.599593348111880E-006
                    58  4.841148197323980E-005
                    59  2.197416205867200E-012
                    60  3.590466712528142E-014
                    61 -3.318259869840846E-006
                    62 -2.882589450570020E-004
                    63 -1.600157239380480E-003
                    64  2.041858437127890E-005
                    65  9.573163409470770E-004
                    66 -4.478722527539700E-012
                    67 -6.673524679755090E-004
                    68  6.158460152398230E-004
                    69  8.903994303028410E-012
                    70  8.661848837262980E-005
                    71  5.978001698565610E-004
                    72  1.760042774566840E-011
                    73 -1.037420605656190E-003
                    74 -6.679795859921559E-005
                    75  7.834032527514220E-005
                    76 -1.451147607545450E-012
                    77 -9.747932606965569E-006
                    78  2.086566057161400E-005
                    79  3.049642380551670E-013
                    80  1.884072334665934E-005
                    81  6.899382990883410E-012
                    82  8.602529295581230E-005
                    83 -3.527188911781140E-005
                    84  1.341545284407940E-011
                    85 -1.047368709148944E-004
                    86  5.166193422779187E-013
                    87 -2.580885889613087E-005
                    88  2.832794520772640E-005
                    89 -5.003935742028720E-013
                    90  1.746476602677195E-012
                    91  9.594481687174329E-006
                    92 -2.283908791527600E-004
                    93 -1.443419048466660E-003
                    94  8.325339187932710E-005
                    95  5.010097293415571E-004
                    96  4.086253678360730E-012
                    97  6.608257857377839E-004
                    98  6.888444839791900E-004
                    99  3.691605225838830E-012
                   100  9.577210021671870E-005
                   101  5.138103461018220E-004
                   102  7.863114540212649E-012
                   103  7.845930546965110E-004
                   104 -4.728809863763290E-004
                   105  7.376276822136039E-005
                   106  2.015423999942880E-012
                   107 -6.363096594567380E-007
                   108  2.787478815600020E-005
                   109  4.446392412996660E-012
                   110  3.652078242434752E-005
                   111  2.405215934698970E-012
                   112 -7.866108284210701E-005
                   113  3.198939782764920E-005
                   114 -6.108216209473700E-012
                   115 -8.360940962417683E-005
                   116 -1.998120171912848E-012
                   117  2.380653316557575E-005
                   118  1.641099808497020E-005
                   119  1.223011045896970E-012
                   120  8.285946160904130E-013
                   121 -1.274279050555438E-005
                   122 -1.949266890466400E-004
                   123 -2.910866927052320E-004
                   124  1.195502197462350E-004
                   125  2.631548023066710E-004
                   126  6.903468638133580E-014
                   127  1.393695565827390E-005
                   128 -5.650548191567670E-004
                   129 -1.049197643607650E-011
                   130  1.031523411900870E-004
                   131  3.868937771695700E-004
                   132 -1.280947634713910E-011
                   133 -8.297656769246850E-005
                   134  9.974674015825380E-004
                   135 -2.447207679082045E-005
                   136 -1.233817828467230E-012
                   137 -9.330823392434660E-007
                   138 -4.668358907837220E-006
                   139  2.668272587560870E-012
                   140 -2.407714324165854E-004
                   141  3.678777237622520E-012
                   142  1.580767855738860E-004
                   143  1.593767267465954E-005
                   144 -9.706446948159401E-012
                   145 -4.682231984170718E-005
                   146 -2.079434966420256E-012
                   147  1.342818052782556E-006
                   148 -1.157377743509882E-005
                   149  1.237614343993630E-012
                   150 -8.549336835212037E-013
                   151 -6.325195980708983E-006
                   152 -1.797663385043010E-004
                   153 -2.313170342683300E-004
                   154  9.472953716066790E-005
                   155  2.672654286517770E-004
                   156 -6.441283502829080E-012
                   157 -1.907527494876490E-005
                   158 -5.685179425922170E-004
                   159  9.855671512243861E-012
                   160 -6.970752560116609E-005
                   161  2.868764722929860E-004
                   162 -7.246418871263190E-012
                   163  2.956051706600780E-004
                   164  5.867420054200130E-004
                   165 -1.449647985171046E-005
                   166 -1.770704695163290E-012
                   167  1.412391687466530E-006
                   168 -2.702603471523020E-006
                   169 -1.667759785431330E-012
                   170 -1.746297016154765E-004
                   171  8.211997687307681E-012
                   172 -1.182218201799450E-004
                   173  2.595994724584700E-005
                   174  2.653674138957310E-012
                   175 -3.496746180979192E-005
                   176 -1.703958970351417E-012
                   177 -8.241540811254914E-006
                   178 -8.390355420195160E-006
                   179  1.804202524940950E-012
                   180  1.493561129896970E-012
                   181  3.679456927227918E-006
                   182 -1.390640609269710E-004
                   183 -3.810801184027480E-004
                   184  4.499387683881560E-005
                   185  1.827787700038170E-004
                   186 -5.062042388139500E-012
                   187 -7.856192909236290E-006
                   188 -5.183287885877820E-005
                   189  6.986913039599090E-012
                   190  3.598238188333330E-005
                   191  4.406532017255680E-005
                   192  8.752022403945831E-012
                   193  2.344799011104540E-004
                   194 -5.823400857300210E-005
                   195  1.555729604855387E-005
                   196  1.417430379403300E-012
                   197  1.111138106629890E-006
                   198  6.610652553063300E-006
                   199  3.484816702430130E-012
                   200  5.202641453424948E-005
                   201 -6.905784689639010E-012
                   202 -3.134289056295290E-005
                   203  6.216347024428780E-005
                   204 -1.223799795290530E-011
                   205 -7.180770009630087E-006
                   206 -1.566577304971885E-012
                   207  1.888180536745982E-006
                   208 -2.538716379225120E-006
                   209  3.748038488886620E-012
                   210 -7.657805979697586E-013
                   211 -4.695041328145668E-007
                   212  5.837326347876510E-004
                   213 -5.277990038146740E-004
                   214 -5.467450491572260E-013
                   215  2.776659607460560E-004
                   216  2.294520865063680E-004
                   217  1.158880248400700E-003
                   218 -9.295553985277040E-004
                   219  2.696864478833840E-013
                   220 -3.567293425494900E-004
                   221  2.629448902070740E-004
                   222 -4.069130641379200E-004
                   223 -4.624511078350940E-004
                   224  4.093770168019460E-012
                   225 -3.294578555913900E-006
                   226 -4.177102201391400E-005
                   227 -3.982837515708050E-004
                   228 -3.919204778025400E-004
                   229 -4.781699201346090E-013
                   230  4.377645263536370E-006
                   231 -3.266363550925010E-005
                   232 -1.368869635628230E-004
                   233 -4.623106696261100E-004
                   234 -4.726590174532130E-013
                   235  2.360199554811120E-007
                   236  9.601116565680890E-008
                   237 -1.562899381100440E-004
                   238 -4.422418450200480E-004
                   239 -4.313855601968470E-012
                   240  1.802331616232060E-006
                   241  1.989290365890780E-007
                   242  3.671726061913570E-005
                   243 -8.524809249086729E-005
                   244  2.188554976520680E-012
                   245 -2.210687068911680E-007
                   246  1.659219944289040E-005
 Sym= __2_a__
 Ene=  0.000000000000000E+000
 Spin= Alpha
 Occup=    2.00000000000000     
                     1 -5.850291910305520E-005
                     2 -3.002293224389960E-004
                     3  2.842500753597650E-003
                     4  1.421177140203770E-004
                     5  1.274117079678730E-003
                     6 -5.203723263899380E-012
                     7 -6.531134399853950E-005
                     8  3.097256925073180E-003
                     9  2.260295578920430E-012
                    10 -1.346258108426560E-005
                    11 -9.043644358378679E-005
                    12 -1.640326595917430E-012
                    13  2.776474223561940E-005
                    14 -4.594272518212600E-004
                    15  3.992991797948578E-005
                    16 -1.310279776748870E-013
                    17 -5.065124187570920E-007
                    18  6.355197516722339E-005
                    19  3.875625887743030E-013
                    20 -1.285221426954452E-004
                    21  2.521111124114390E-012
                    22  4.789825129889870E-006
                    23 -2.279370740918820E-004
                    24 -6.755293137976090E-013
                    25  1.793124306576929E-004
                    26  5.894839417143411E-013
                    27 -3.241509133453517E-006
                    28 -1.159801785144190E-005
                    29  1.926279069405990E-012
                    30 -1.466111880468704E-012
                    31 -4.553396889813200E-006
                    32   1.00103408058739     
                    33  9.368950530283219E-003
                    34  2.689466344471530E-003
                    35 -7.949683534132539E-003
                    36  4.238988900073110E-012
                    37 -2.750217318656660E-005
                    38 -4.143407779588730E-003
                    39 -8.547525767623710E-012
                    40  1.541370637251530E-005
                    41  8.804747018325010E-004
                    42  1.598249678708310E-011
                    43  1.862151901471460E-005
                    44  4.401647996457140E-003
                    45  4.770444971856625E-004
                    46 -1.765501323894640E-012
                    47 -2.806806808116660E-006
                    48 -4.144572451316980E-004
                    49 -4.906178435435750E-012
                    50  5.158917856456174E-004
                    51 -1.732988226883220E-012
                    52  1.856605656095580E-005
                    53  9.121353188150040E-004
                    54 -5.586071291645690E-013
                    55  3.816912947068171E-004
                    56  3.907504810845002E-015
                    57 -8.607428975274956E-007
                    58 -1.914507358753336E-004
                    59 -2.619944020389740E-012
                    60  1.947719526722864E-012
                    61 -1.694712529880410E-007
                    62  7.901421845294019E-003
                    63 -2.089209862103130E-003
                    64 -2.766627808421230E-004
                    65  3.029430296825390E-003
                    66 -9.510470898422130E-012
                    67  3.040919277621620E-005
                    68  6.075474516116090E-005
                    69  9.856547184822140E-012
                    70  6.401461891806020E-004
                    71  2.815018337558030E-005
                    72 -1.129591004570230E-011
                    73 -2.074665514417390E-003
                    74  9.732969817694330E-005
                    75 -1.133558048461296E-005
                    76 -2.419844486968450E-012
                    77  9.523822603424790E-006
                    78  2.988938950741120E-005
                    79  6.989910548345480E-015
                    80  7.387855941747991E-004
                    81  5.299791947169280E-012
                    82 -3.873982651330990E-004
                    83 -3.142063370202540E-005
                    84 -9.963767501675860E-012
                    85  7.448449601217177E-005
                    86  1.540119238563320E-012
                    87  4.477387244470772E-005
                    88 -1.299879592541446E-004
                    89  2.034276755807080E-012
                    90  4.670619636012778E-013
                    91  4.843956615750795E-005
                    92  8.019088750651489E-003
                    93 -2.100881300812430E-003
                    94 -2.753853211531070E-004
                    95  3.020847333284960E-003
                    96 -3.657056933474900E-012
                    97 -1.987485161857180E-005
                    98  6.602414070154851E-005
                    99  2.673119231171470E-012
                   100 -6.252575858559990E-004
                   101  3.881922413436450E-005
                   102 -1.438873082212460E-012
                   103  2.076950715830080E-003
                   104  1.002308420157810E-004
                   105 -1.187386224082513E-005
                   106 -1.201981423037710E-012
                   107 -1.129080820528350E-005
                   108  3.069501175054120E-005
                   109 -1.875166960824040E-013
                   110  7.503266304945130E-004
                   111  7.785210429883900E-012
                   112  3.888411083882200E-004
                   113 -2.764048058519060E-005
                   114 -1.979822667691580E-012
                   115  7.394032607395248E-005
                   116 -2.390579024601368E-013
                   117 -4.438377625391203E-005
                   118 -1.294438677462796E-004
                   119  3.036290116633640E-012
                   120 -1.373784170811984E-013
                   121 -4.749483663379993E-005
                   122 -2.113272570004940E-004
                   123 -7.165215230291690E-004
                   124  2.257977101414800E-004
                   125 -1.091320268428440E-004
                   126 -5.570780850132510E-012
                   127 -9.215894448192771E-006
                   128 -3.087818210750300E-004
                   129 -1.544934407237460E-012
                   130 -3.639648766531430E-005
                   131  5.374927641228180E-004
                   132 -9.892514970803650E-013
                   133  3.253511346867260E-004
                   134  7.540868839692570E-004
                   135 -1.304937640495115E-005
                   136 -3.913599910129290E-013
                   137  5.286501444584140E-005
                   138  1.468944843764104E-005
                   139 -1.111767400464550E-012
                   140 -2.852142850552862E-004
                   141 -2.096760589054920E-012
                   142 -2.010323037531780E-004
                   143 -1.068284779964632E-005
                   144  3.404058590240580E-012
                   145  1.658316642699242E-006
                   146 -1.554061305421355E-012
                   147 -4.436122023343367E-005
                   148 -4.137307174706800E-005
                   149 -2.565275634385120E-012
                   150 -3.565638147106668E-013
                   151 -5.275485305351891E-006
                   152 -2.023674333266990E-004
                   153 -7.148700762229220E-004
                   154  2.274338746124390E-004
                   155 -1.198890533038990E-004
                   156 -1.077078175030790E-011
                   157  8.649924591413700E-006
                   158 -3.101980861653450E-004
                   159  7.058523888111210E-012
                   160  3.114817361053690E-005