[Molden Format]
[Atoms] AU
  N     1    7    -4.4260464800    0.1219100600    0.0000000000        
  C     2    6    -1.7787413300   -0.0032843500    0.0000000000        
  C     3    6    -0.4364210800    0.0001341700   -2.2729918300        
  C     4    6    -0.4364210800    0.0001341700    2.2729918300        
  C     5    6     2.1892013400   -0.0006047100   -2.2649850600        
  C     6    6     2.1892013400   -0.0006047100    2.2649850600        
  C     7    6     3.5247488100   -0.0008768300    0.0000000000        
  H     8    1    -5.2190533600   -0.6365582800   -1.5715592300        
  H     9    1    -5.2190533600   -0.6365582800    1.5715592300        
  H    10    1    -1.4610612300    0.0098190200   -4.0537910800        
  H    11    1    -1.4610612300    0.0098190200    4.0537910800        
  H    12    1     3.1988427300   -0.0013247000   -4.0526345600        
  H    13    1     3.1988427300   -0.0013247000    4.0526345600        
  H    14    1     5.5752366400   -0.0026191600    0.0000000000        
[5D]
[7F]
[GTO]
  1  0
   s    12 1.00
  0.114200D+05  0.172695D-04
  0.171200D+04  0.134411D-03
  0.389300D+03  0.694561D-03
  0.110000D+03  0.278531D-02
  0.355700D+02  0.863457D-02
  0.125400D+02  0.199805D-01
  0.464400D+01  0.262908D-01
  0.129300D+01 -0.243845D-01
  0.511800D+00 -0.924934D-01
  0.178700D+00 -0.339683D+00
  0.246240D-01  0.345111D+00
  0.112530D-01  0.752750D+00
   s    10 1.00
  0.114200D+05  0.523000D-03
  0.171200D+04  0.404500D-02
  0.389300D+03  0.207750D-01
  0.110000D+03  0.807269D-01
  0.355700D+02  0.233074D+00
  0.125400D+02  0.433501D+00
  0.464400D+01  0.347472D+00
  0.129300D+01  0.412620D-01
  0.511800D+00 -0.850799D-02
  0.178700D+00  0.238400D-02
   s    10 1.00
  0.114200D+05 -0.115000D-03
  0.171200D+04 -0.895000D-03
  0.389300D+03 -0.462400D-02
  0.110000D+03 -0.185280D-01
  0.355700D+02 -0.573390D-01
  0.125400D+02 -0.132076D+00
  0.464400D+01 -0.172510D+00
  0.129300D+01  0.151814D+00
  0.511800D+00  0.599944D+00
  0.178700D+00  0.387462D+00
   s     1 1.00
  0.129300D+01  0.100000D+01
   s     1 1.00
  0.178700D+00  0.100000D+01
   p     5 1.00
  0.266300D+02  0.146700D-01
  0.594800D+01  0.917640D-01
  0.174200D+01  0.298683D+00
  0.555000D+00  0.498487D+00
  0.172500D+00  0.337023D+00
   p     1 1.00
  0.174200D+01  0.100000D+01
   p     1 1.00
  0.555000D+00  0.100000D+01
   d     1 1.00
  0.165400D+01  0.100000D+01
   d     1 1.00
  0.469000D+00  0.100000D+01
   f     1 1.00
  0.109300D+01  0.100000D+01
  
  2  0
   s    10 1.00
  0.823600D+04  0.531000D-03
  0.123500D+04  0.410800D-02
  0.280800D+03  0.210870D-01
  0.792700D+02  0.818530D-01
  0.255900D+02  0.234817D+00
  0.899700D+01  0.434401D+00
  0.331900D+01  0.346129D+00
  0.905900D+00  0.393780D-01
  0.364300D+00 -0.898300D-02
  0.128500D+00  0.238500D-02
   s    10 1.00
  0.823600D+04 -0.113000D-03
  0.123500D+04 -0.878000D-03
  0.280800D+03 -0.454000D-02
  0.792700D+02 -0.181330D-01
  0.255900D+02 -0.557600D-01
  0.899700D+01 -0.126895D+00
  0.331900D+01 -0.170352D+00
  0.905900D+00  0.140382D+00
  0.364300D+00  0.598684D+00
  0.128500D+00  0.395389D+00
   s     1 1.00
  0.905900D+00  0.100000D+01
   s     1 1.00
  0.364300D+00  0.100000D+01
   p     5 1.00
  0.187100D+02  0.140310D-01
  0.413300D+01  0.868660D-01
  0.120000D+01  0.290216D+00
  0.382700D+00  0.501008D+00
  0.120900D+00  0.343406D+00
   p     1 1.00
  0.382700D+00  0.100000D+01
   p     1 1.00
  0.120900D+00  0.100000D+01
   d     1 1.00
  0.109700D+01  0.100000D+01
   d     1 1.00
  0.318000D+00  0.100000D+01
   f     1 1.00
  0.761000D+00  0.100000D+01
  
  3  0
   s    10 1.00
  0.823600D+04  0.531000D-03
  0.123500D+04  0.410800D-02
  0.280800D+03  0.210870D-01
  0.792700D+02  0.818530D-01
  0.255900D+02  0.234817D+00
  0.899700D+01  0.434401D+00
  0.331900D+01  0.346129D+00
  0.905900D+00  0.393780D-01
  0.364300D+00 -0.898300D-02
  0.128500D+00  0.238500D-02
   s    10 1.00
  0.823600D+04 -0.113000D-03
  0.123500D+04 -0.878000D-03
  0.280800D+03 -0.454000D-02
  0.792700D+02 -0.181330D-01
  0.255900D+02 -0.557600D-01
  0.899700D+01 -0.126895D+00
  0.331900D+01 -0.170352D+00
  0.905900D+00  0.140382D+00
  0.364300D+00  0.598684D+00
  0.128500D+00  0.395389D+00
   s     1 1.00
  0.905900D+00  0.100000D+01
   s     1 1.00
  0.364300D+00  0.100000D+01
   p     5 1.00
  0.187100D+02  0.140310D-01
  0.413300D+01  0.868660D-01
  0.120000D+01  0.290216D+00
  0.382700D+00  0.501008D+00
  0.120900D+00  0.343406D+00
   p     1 1.00
  0.382700D+00  0.100000D+01
   p     1 1.00
  0.120900D+00  0.100000D+01
   d     1 1.00
  0.109700D+01  0.100000D+01
   d     1 1.00
  0.318000D+00  0.100000D+01
   f     1 1.00
  0.761000D+00  0.100000D+01
  
  4  0
   s    10 1.00
  0.823600D+04  0.531000D-03
  0.123500D+04  0.410800D-02
  0.280800D+03  0.210870D-01
  0.792700D+02  0.818530D-01
  0.255900D+02  0.234817D+00
  0.899700D+01  0.434401D+00
  0.331900D+01  0.346129D+00
  0.905900D+00  0.393780D-01
  0.364300D+00 -0.898300D-02
  0.128500D+00  0.238500D-02
   s    10 1.00
  0.823600D+04 -0.113000D-03
  0.123500D+04 -0.878000D-03
  0.280800D+03 -0.454000D-02
  0.792700D+02 -0.181330D-01
  0.255900D+02 -0.557600D-01
  0.899700D+01 -0.126895D+00
  0.331900D+01 -0.170352D+00
  0.905900D+00  0.140382D+00
  0.364300D+00  0.598684D+00
  0.128500D+00  0.395389D+00
   s     1 1.00
  0.905900D+00  0.100000D+01
   s     1 1.00
  0.364300D+00  0.100000D+01
   p     5 1.00
  0.187100D+02  0.140310D-01
  0.413300D+01  0.868660D-01
  0.120000D+01  0.290216D+00
  0.382700D+00  0.501008D+00
  0.120900D+00  0.343406D+00
   p     1 1.00
  0.382700D+00  0.100000D+01
   p     1 1.00
  0.120900D+00  0.100000D+01
   d     1 1.00
  0.109700D+01  0.100000D+01
   d     1 1.00
  0.318000D+00  0.100000D+01
   f     1 1.00
  0.761000D+00  0.100000D+01
  
  5  0
   s    10 1.00
  0.823600D+04  0.531000D-03
  0.123500D+04  0.410800D-02
  0.280800D+03  0.210870D-01
  0.792700D+02  0.818530D-01
  0.255900D+02  0.234817D+00
  0.899700D+01  0.434401D+00
  0.331900D+01  0.346129D+00
  0.905900D+00  0.393780D-01
  0.364300D+00 -0.898300D-02
  0.128500D+00  0.238500D-02
   s    10 1.00
  0.823600D+04 -0.113000D-03
  0.123500D+04 -0.878000D-03
  0.280800D+03 -0.454000D-02
  0.792700D+02 -0.181330D-01
  0.255900D+02 -0.557600D-01
  0.899700D+01 -0.126895D+00
  0.331900D+01 -0.170352D+00
  0.905900D+00  0.140382D+00
  0.364300D+00  0.598684D+00
  0.128500D+00  0.395389D+00
   s     1 1.00
  0.905900D+00  0.100000D+01
   s     1 1.00
  0.364300D+00  0.100000D+01
   p     5 1.00
  0.187100D+02  0.140310D-01
  0.413300D+01  0.868660D-01
  0.120000D+01  0.290216D+00
  0.382700D+00  0.501008D+00
  0.120900D+00  0.343406D+00
   p     1 1.00
  0.382700D+00  0.100000D+01
   p     1 1.00
  0.120900D+00  0.100000D+01
   d     1 1.00
  0.109700D+01  0.100000D+01
   d     1 1.00
  0.318000D+00  0.100000D+01
   f     1 1.00
  0.761000D+00  0.100000D+01
  
  6  0
   s    10 1.00
  0.823600D+04  0.531000D-03
  0.123500D+04  0.410800D-02
  0.280800D+03  0.210870D-01
  0.792700D+02  0.818530D-01
  0.255900D+02  0.234817D+00
  0.899700D+01  0.434401D+00
  0.331900D+01  0.346129D+00
  0.905900D+00  0.393780D-01
  0.364300D+00 -0.898300D-02
  0.128500D+00  0.238500D-02
   s    10 1.00
  0.823600D+04 -0.113000D-03
  0.123500D+04 -0.878000D-03
  0.280800D+03 -0.454000D-02
  0.792700D+02 -0.181330D-01
  0.255900D+02 -0.557600D-01
  0.899700D+01 -0.126895D+00
  0.331900D+01 -0.170352D+00
  0.905900D+00  0.140382D+00
  0.364300D+00  0.598684D+00
  0.128500D+00  0.395389D+00
   s     1 1.00
  0.905900D+00  0.100000D+01
   s     1 1.00
  0.364300D+00  0.100000D+01
   p     5 1.00
  0.187100D+02  0.140310D-01
  0.413300D+01  0.868660D-01
  0.120000D+01  0.290216D+00
  0.382700D+00  0.501008D+00
  0.120900D+00  0.343406D+00
   p     1 1.00
  0.382700D+00  0.100000D+01
   p     1 1.00
  0.120900D+00  0.100000D+01
   d     1 1.00
  0.109700D+01  0.100000D+01
   d     1 1.00
  0.318000D+00  0.100000D+01
   f     1 1.00
  0.761000D+00  0.100000D+01
  
  7  0
   s    10 1.00
  0.823600D+04  0.531000D-03
  0.123500D+04  0.410800D-02
  0.280800D+03  0.210870D-01
  0.792700D+02  0.818530D-01
  0.255900D+02  0.234817D+00
  0.899700D+01  0.434401D+00
  0.331900D+01  0.346129D+00
  0.905900D+00  0.393780D-01
  0.364300D+00 -0.898300D-02
  0.128500D+00  0.238500D-02
   s    10 1.00
  0.823600D+04 -0.113000D-03
  0.123500D+04 -0.878000D-03
  0.280800D+03 -0.454000D-02
  0.792700D+02 -0.181330D-01
  0.255900D+02 -0.557600D-01
  0.899700D+01 -0.126895D+00
  0.331900D+01 -0.170352D+00
  0.905900D+00  0.140382D+00
  0.364300D+00  0.598684D+00
  0.128500D+00  0.395389D+00
   s     1 1.00
  0.905900D+00  0.100000D+01
   s     1 1.00
  0.364300D+00  0.100000D+01
   p     5 1.00
  0.187100D+02  0.140310D-01
  0.413300D+01  0.868660D-01
  0.120000D+01  0.290216D+00
  0.382700D+00  0.501008D+00
  0.120900D+00  0.343406D+00
   p     1 1.00
  0.382700D+00  0.100000D+01
   p     1 1.00
  0.120900D+00  0.100000D+01
   d     1 1.00
  0.109700D+01  0.100000D+01
   d     1 1.00
  0.318000D+00  0.100000D+01
   f     1 1.00
  0.761000D+00  0.100000D+01
  
  8  0
   s     4 1.00
  0.130100D+02  0.196850D-01
  0.196200D+01  0.137977D+00
  0.444600D+00  0.478148D+00
  0.122000D+00  0.501240D+00
   s     1 1.00
  0.122000D+00  0.100000D+01
   p     1 1.00
  0.727000D+00  0.100000D+01
  
  9  0
   s     4 1.00
  0.130100D+02  0.196850D-01
  0.196200D+01  0.137977D+00
  0.444600D+00  0.478148D+00
  0.122000D+00  0.501240D+00
   s     1 1.00
  0.122000D+00  0.100000D+01
   p     1 1.00
  0.727000D+00  0.100000D+01
  
 10  0
   s     4 1.00
  0.130100D+02  0.196850D-01
  0.196200D+01  0.137977D+00
  0.444600D+00  0.478148D+00
  0.122000D+00  0.501240D+00
   s     1 1.00
  0.122000D+00  0.100000D+01
   p     1 1.00
  0.727000D+00  0.100000D+01
  
 11  0
   s     4 1.00
  0.130100D+02  0.196850D-01
  0.196200D+01  0.137977D+00
  0.444600D+00  0.478148D+00
  0.122000D+00  0.501240D+00
   s     1 1.00
  0.122000D+00  0.100000D+01
   p     1 1.00
  0.727000D+00  0.100000D+01
  
 12  0
   s     4 1.00
  0.130100D+02  0.196850D-01
  0.196200D+01  0.137977D+00
  0.444600D+00  0.478148D+00
  0.122000D+00  0.501240D+00
   s     1 1.00
  0.122000D+00  0.100000D+01
   p     1 1.00
  0.727000D+00  0.100000D+01
  
 13  0
   s     4 1.00
  0.130100D+02  0.196850D-01
  0.196200D+01  0.137977D+00
  0.444600D+00  0.478148D+00
  0.122000D+00  0.501240D+00
   s     1 1.00
  0.122000D+00  0.100000D+01
   p     1 1.00
  0.727000D+00  0.100000D+01
  
 14  0
   s     4 1.00
  0.130100D+02  0.196850D-01
  0.196200D+01  0.137977D+00
  0.444600D+00  0.478148D+00
  0.122000D+00  0.501240D+00
   s     1 1.00
  0.122000D+00  0.100000D+01
   p     1 1.00
  0.727000D+00  0.100000D+01
  
[MO]
 Sym= __1_A'_
 Ene=   1.00000000000000     
 Spin= Alpha
 Occup=    1.00000000000000     
                     1  1.289588001722376E-004
                     2  0.998248629448943     
                     3 -2.355579069197418E-003
                     4  2.023878512565104E-003
                     5  5.648528482722823E-003
                     6  4.527908603391756E-003
                     7 -3.389051374583564E-003
                     8  0.000000000000000E+000
                     9 -4.651891411831883E-004
                    10  2.811836227731563E-004
                    11  0.000000000000000E+000
                    12 -1.150345054241031E-003
                    13  2.567574171566030E-003
                    14  0.000000000000000E+000
                    15 -3.245126035321934E-005
                    16  0.000000000000000E+000
                    17  0.000000000000000E+000
                    18  7.854549999217698E-005
                    19  3.837833647984785E-005
                    20 -2.334790811739062E-004
                    21  0.000000000000000E+000
                    22  0.000000000000000E+000
                    23 -9.714002610693924E-005
                    24 -3.681443364359319E-004
                    25  0.000000000000000E+000
                    26 -1.077919693770291E-004
                    27 -4.756237595085816E-005
                    28  0.000000000000000E+000
                    29  0.000000000000000E+000
                    30 -5.889057150066765E-005
                    31 -4.312632836297501E-005
                    32 -2.685196744419816E-004
                    33  4.760301061687380E-004
                    34  1.731100739913628E-004
                    35  5.493507479102739E-005
                    36 -2.470287977568467E-003
                    37 -1.113154461728106E-005
                    38  0.000000000000000E+000
                    39 -1.855309478303559E-004
                    40  2.303556608550309E-005
                    41  0.000000000000000E+000
                    42  4.023574417826830E-003
                    43  6.558239864428315E-004
                    44  0.000000000000000E+000
                    45 -1.511652455243435E-004
                    46  0.000000000000000E+000
                    47  0.000000000000000E+000
                    48  1.277610374063100E-004
                    49  3.981701177079595E-005
                    50  2.473721658877847E-004
                    51  0.000000000000000E+000
                    52  0.000000000000000E+000
                    53  9.001507962318239E-005
                    54 -3.033146655565125E-004
                    55  0.000000000000000E+000
                    56 -7.572189731092012E-005
                    57  7.040746713448725E-006
                    58  0.000000000000000E+000
                    59  0.000000000000000E+000
                    60 -4.871028730244573E-005
                    61  3.616089175053554E-005
                    62 -3.028799076700341E-004
                    63 -1.213687031769014E-003
                    64  5.297418909712785E-005
                    65  8.024191950567665E-004
                    66  8.715446523306580E-005
                    67 -7.207024830411209E-005
                    68 -2.867282222082785E-004
                    69  5.135969695442591E-004
                    70  6.587306983389989E-005
                    71  7.928250502128035E-005
                    72 -4.088006657600025E-004
                    73 -2.913291572277081E-004
                    74 -7.590205832183963E-004
                    75 -3.580338238759832E-005
                    76 -1.170151037730342E-005
                    77  1.616743475290559E-005
                    78  4.812954187586998E-005
                    79 -6.934431115788268E-006
                    80  1.173528506075775E-004
                    81  3.805776392433620E-005
                    82 -2.596213138136087E-005
                    83 -6.417426332986894E-005
                    84  3.890408354953580E-005
                    85 -1.344442507248563E-005
                    86 -7.130865197083550E-005
                    87  1.697866844718026E-005
                    88 -1.912351367953790E-005
                    89  1.070871901538559E-005
                    90 -4.890156833485346E-005
                    91 -8.683015827812525E-006
                    92 -3.028799076700341E-004
                    93 -1.213687031769014E-003
                    94  5.297418909712785E-005
                    95  8.024191950567665E-004
                    96  8.715446523306580E-005
                    97 -7.207024830411209E-005
                    98  2.867282222082785E-004
                    99  5.135969695442591E-004
                   100  6.587306983389989E-005
                   101 -7.928250502128035E-005
                   102 -4.088006657600025E-004
                   103 -2.913291572277081E-004
                   104  7.590205832183963E-004
                   105 -3.580338238759832E-005
                   106  1.170151037730342E-005
                   107 -1.616743475290559E-005
                   108  4.812954187586998E-005
                   109 -6.934431115788268E-006
                   110  1.173528506075775E-004
                   111 -3.805776392433620E-005
                   112  2.596213138136087E-005
                   113 -6.417426332986894E-005
                   114  3.890408354953580E-005
                   115  1.344442507248563E-005
                   116 -7.130865197083550E-005
                   117  1.697866844718026E-005
                   118  1.912351367953790E-005
                   119 -1.070871901538559E-005
                   120 -4.890156833485346E-005
                   121 -8.683015827812525E-006
                   122 -1.591565172373905E-004
                   123 -4.014847555657179E-004
                   124  6.108144889726886E-005
                   125  4.099545945699116E-004
                   126 -2.119399095697765E-004
                   127 -1.927590932567765E-005
                   128 -5.557063260240423E-006
                   129  2.207840028126494E-004
                   130 -1.662432740472568E-005
                   131  7.350723466495378E-005
                   132  6.909595667961242E-004
                   133  1.229702929912283E-004
                   134 -2.393554867431702E-004
                   135  1.250704175007973E-005
                   136 -6.628783285645247E-006
                   137 -2.626554787334817E-006
                   138 -9.167092841414527E-006
                   139  7.896508522346418E-006
                   140  7.618716536040981E-005
                   141  1.254207917027278E-004
                   142  6.391878540875455E-006
                   143 -1.825222359820659E-004
                   144 -1.425847434049545E-005
                   145 -3.056797666695347E-006
                   146 -2.087781863977358E-005
                   147  2.201913700457875E-006
                   148  5.485539656548050E-006
                   149 -2.051583121119868E-006
                   150 -4.389545294197283E-005
                   151 -1.075520519408504E-006
                   152 -1.591565172373905E-004
                   153 -4.014847555657179E-004
                   154  6.108144889726886E-005
                   155  4.099545945699116E-004
                   156 -2.119399095697765E-004
                   157 -1.927590932567765E-005
                   158  5.557063260240423E-006
                   159  2.207840028126494E-004
                   160 -1.662432740472568E-005
                   161 -7.350723466495378E-005
                   162  6.909595667961242E-004
                   163  1.229702929912283E-004
                   164  2.393554867431702E-004
                   165  1.250704175007973E-005
                   166  6.628783285645247E-006
                   167  2.626554787334817E-006
                   168 -9.167092841414527E-006
                   169  7.896508522346418E-006
                   170  7.618716536040981E-005
                   171 -1.254207917027278E-004
                   172 -6.391878540875455E-006
                   173 -1.825222359820659E-004
                   174 -1.425847434049545E-005
                   175  3.056797666695347E-006
                   176 -2.087781863977358E-005
                   177  2.201913700457875E-006
                   178 -5.485539656548050E-006
                   179  2.051583121119868E-006
                   180 -4.389545294197283E-005
                   181 -1.075520519408504E-006
                   182 -1.005645895519310E-004
                   183 -2.992108931784185E-004
                   184  2.685165568540307E-005
                   185  1.268367631511806E-004
                   186 -3.942165708364856E-005
                   187 -2.232649292209133E-005
                   188  0.000000000000000E+000
                   189  9.458417580297807E-005
                   190  2.023631242899599E-005
                   191  0.000000000000000E+000
                   192 -2.889968026701711E-004
                   193 -8.528936452140749E-005
                   194  0.000000000000000E+000
                   195 -5.236412099702856E-006
                   196  0.000000000000000E+000
                   197  0.000000000000000E+000
                   198  2.405695948840166E-006
                   199 -2.443003936215107E-006
                   200 -8.707383316978974E-005
                   201  0.000000000000000E+000
                   202  0.000000000000000E+000
                   203  3.727974273489920E-005
                   204  1.381982680659132E-005
                   205  0.000000000000000E+000
                   206  2.845838429445315E-006
                   207  3.091641314024303E-006
                   208  0.000000000000000E+000
                   209  0.000000000000000E+000
                   210 -5.271854925939766E-006
                   211 -2.102118941781965E-006
                   212  2.037376759181816E-004
                   213 -8.896863315082180E-004
                   214  9.307890288404748E-005
                   215  1.587239068222838E-004
                   216  1.488113586567944E-004
                   217  2.037376759181816E-004
                   218 -8.896863315082180E-004
                   219  9.307890288404748E-005
                   220  1.587239068222838E-004
                   221 -1.488113586567944E-004
                   222 -1.926337222106236E-004
                   223 -3.630787368069347E-004
                   224 -4.940278375966088E-005
                   225  8.095238456495500E-006
                   226  3.510783156111139E-005
                   227 -1.926337222106236E-004
                   228 -3.630787368069347E-004
                   229 -4.940278375966088E-005
                   230  8.095238456495500E-006
                   231 -3.510783156111139E-005
                   232 -5.065648616024561E-007
                   233 -4.100643551613117E-004
                   234  3.766712764004886E-007
                   235 -1.461457193687968E-006
                   236  2.890713010514816E-006
                   237 -5.065648616024561E-007
                   238 -4.100643551613117E-004
                   239  3.766712764004886E-007
                   240 -1.461457193687968E-006
                   241 -2.890713010514816E-006
                   242 -3.077683987152207E-005
                   243  7.440004386015920E-005
                   244  2.548751287986564E-005
                   245  1.615920360708792E-006
                   246  0.000000000000000E+000
 Sym= __2_A'_
 Ene=   2.00000000000000     
 Spin= Alpha
 Occup=    1.00000000000000     
                     1 -3.003942109629746E-005
                     2 -1.203605965736253E-004
                     3  1.894571971888929E-003
                     4 -2.475811861696471E-006
                     5  1.257289503378897E-003
                     6  2.150195469232574E-003
                     7  2.081313109006665E-004
                     8  0.000000000000000E+000
                     9 -1.420227770653388E-004
                    10  8.147250459983350E-005
                    11  0.000000000000000E+000
                    12 -3.000446231350910E-005
                    13  1.127725783562891E-005
                    14  0.000000000000000E+000
                    15 -7.597762994485726E-005
                    16  0.000000000000000E+000
                    17  0.000000000000000E+000
                    18  3.369722369139532E-005
                    19 -2.548852554774652E-006
                    20  2.442126424402294E-004
                    21  0.000000000000000E+000
                    22  0.000000000000000E+000
                    23  5.523838108792654E-005
                    24 -3.854224657407454E-005
                    25  0.000000000000000E+000
                    26  1.478616858888432E-004
                    27 -5.820921212666745E-005
                    28  0.000000000000000E+000
                    29  0.000000000000000E+000
                    30  1.427997823842251E-004
                    31  2.927976705447036E-005
                    32   1.00095780428139     
                    33  8.826135669398192E-003
                    34  2.844752493590271E-003
                    35 -8.105052608406207E-003
                    36 -3.132118278270992E-003
                    37  5.743202371906260E-004
                    38  0.000000000000000E+000
                    39  1.409349731911545E-003
                    40 -2.211887905061625E-004
                    41  0.000000000000000E+000
                    42  3.703293625983030E-003
                    43 -1.285804203348034E-004
                    44  0.000000000000000E+000
                    45  2.720583106331700E-004
                    46  0.000000000000000E+000
                    47  0.000000000000000E+000
                    48  4.549018178186050E-004
                    49 -1.767720728018361E-005
                    50 -1.037997783972884E-003
                    51  0.000000000000000E+000
                    52  0.000000000000000E+000
                    53 -1.126705787991689E-004
                    54  1.859409231659056E-005
                    55  0.000000000000000E+000
                    56  3.418036514022634E-004
                    57 -8.719143388772475E-006
                    58  0.000000000000000E+000
                    59  0.000000000000000E+000
                    60  8.849214725526255E-005
                    61  1.473149025854685E-005
                    62  1.062532358464728E-002
                    63 -1.950184769752245E-003
                    64 -3.022041252147024E-004
                    65  3.153193737106684E-003
                    66 -1.636293728426548E-004
                    67  8.604950668743008E-005
                    68  2.441126733634843E-004
                    69  4.202291282883492E-005
                    70  6.788526566698437E-006
                    71  4.880198612807755E-004
                    72  1.850670923525571E-004
                    73 -1.879239682511356E-005
                    74 -1.864714149023431E-003
                    75 -1.412885174404363E-005
                    76  2.878734494950400E-005
                    77  6.162637015072606E-006
                    78 -3.847423955492186E-005
                    79 -3.777527611052202E-006
                    80 -4.349794167506503E-004
                    81 -4.661507767675252E-004
                    82  5.206186894252159E-006
                    83  7.639469344942666E-004
                    84 -4.174515267935725E-006
                    85  5.779328124799290E-005
                    86  1.119012761427495E-004
                    87  9.109487842791233E-007
                    88 -1.028027896921266E-005
                    89 -5.580476913420825E-006
                    90 -2.699187656545225E-005
                    91  4.024264632237171E-006
                    92  1.062532358464728E-002
                    93 -1.950184769752245E-003
                    94 -3.022041252147024E-004
                    95  3.153193737106684E-003
                    96 -1.636293728426548E-004
                    97  8.604950668743008E-005
                    98 -2.441126733634843E-004
                    99  4.202291282883492E-005
                   100  6.788526566698437E-006
                   101 -4.880198612807755E-004
                   102  1.850670923525571E-004
                   103 -1.879239682511356E-005
                   104  1.864714149023431E-003
                   105 -1.412885174404363E-005
                   106 -2.878734494950400E-005
                   107 -6.162637015072606E-006
                   108 -3.847423955492186E-005
                   109 -3.777527611052202E-006
                   110 -4.349794167506503E-004
                   111  4.661507767675252E-004
                   112 -5.206186894252159E-006
                   113  7.639469344942666E-004
                   114 -4.174515267935725E-006
                   115 -5.779328124799290E-005
                   116  1.119012761427495E-004
                   117  9.109487842791233E-007
                   118  1.028027896921266E-005
                   119  5.580476913420825E-006
                   120 -2.699187656545225E-005
                   121  4.024264632237171E-006
                   122 -2.024805772133137E-004
                   123 -7.605593487989791E-004
                   124  2.533696427587068E-004
                   125 -2.881154829586866E-004
                   126 -1.754595134022938E-004
                   127  1.756502551694193E-005
                   128 -4.213890612896584E-005
                   129  5.967018109824632E-004
                   130 -3.807596774639239E-006
                   131  3.453830595568209E-005
                   132  5.910120922589672E-004
                   133  2.998891246726326E-007
                   134  3.521430903346098E-004
                   135 -1.661215948891007E-007
                   136  4.274658979070340E-005
                   137  2.001485621989216E-007
                   138 -3.287885581859648E-005
                   139 -9.256522216692937E-007
                   140  2.013748411581454E-004
                   141 -2.652779865516715E-004
                   142 -1.495868632552178E-007
                   143 -2.684507190491362E-004
                   144 -1.122450044708767E-006
                   145 -1.861901571340481E-005
                   146  1.466647414415177E-005
                   147  1.775507034785851E-007
                   148 -1.515710114389550E-005
                   149 -1.247825811338163E-006
                   150 -2.482356202254420E-005
                   151 -9.651616308161893E-007
                   152 -2.024805772133137E-004
                   153 -7.605593487989791E-004
                   154  2.533696427587068E-004
                   155 -2.881154829586866E-004
                   156 -1.754595134022938E-004
                   157  1.756502551694193E-005
                   158  4.213890612896584E-005
                   159  5.967018109824632E-004
                   160 -3.807596774639239E-006