[Molden Format]
[Atoms] AU
  N     1    7    -4.4260464800    0.1219100600    0.0000000000        
  C     2    6    -1.7787413300   -0.0032843500    0.0000000000        
  C     3    6    -0.4364210800    0.0001341700   -2.2729918300        
  C     4    6    -0.4364210800    0.0001341700    2.2729918300        
  C     5    6     2.1892013400   -0.0006047100   -2.2649850600        
  C     6    6     2.1892013400   -0.0006047100    2.2649850600        
  C     7    6     3.5247488100   -0.0008768300    0.0000000000        
  H     8    1    -5.2190533600   -0.6365582800   -1.5715592300        
  H     9    1    -5.2190533600   -0.6365582800    1.5715592300        
  H    10    1    -1.4610612300    0.0098190200   -4.0537910800        
  H    11    1    -1.4610612300    0.0098190200    4.0537910800        
  H    12    1     3.1988427300   -0.0013247000   -4.0526345600        
  H    13    1     3.1988427300   -0.0013247000    4.0526345600        
  H    14    1     5.5752366400   -0.0026191600    0.0000000000        
[5D]
[7F]
[GTO]
  1  0
   s    12 1.00
  0.114200D+05  0.172695D-04
  0.171200D+04  0.134411D-03
  0.389300D+03  0.694561D-03
  0.110000D+03  0.278531D-02
  0.355700D+02  0.863457D-02
  0.125400D+02  0.199805D-01
  0.464400D+01  0.262908D-01
  0.129300D+01 -0.243845D-01
  0.511800D+00 -0.924934D-01
  0.178700D+00 -0.339683D+00
  0.246240D-01  0.345111D+00
  0.112530D-01  0.752750D+00
   s    10 1.00
  0.114200D+05  0.523000D-03
  0.171200D+04  0.404500D-02
  0.389300D+03  0.207750D-01
  0.110000D+03  0.807269D-01
  0.355700D+02  0.233074D+00
  0.125400D+02  0.433501D+00
  0.464400D+01  0.347472D+00
  0.129300D+01  0.412620D-01
  0.511800D+00 -0.850799D-02
  0.178700D+00  0.238400D-02
   s    10 1.00
  0.114200D+05 -0.115000D-03
  0.171200D+04 -0.895000D-03
  0.389300D+03 -0.462400D-02
  0.110000D+03 -0.185280D-01
  0.355700D+02 -0.573390D-01
  0.125400D+02 -0.132076D+00
  0.464400D+01 -0.172510D+00
  0.129300D+01  0.151814D+00
  0.511800D+00  0.599944D+00
  0.178700D+00  0.387462D+00
   s     1 1.00
  0.129300D+01  0.100000D+01
   s     1 1.00
  0.178700D+00  0.100000D+01
   p     5 1.00
  0.266300D+02  0.146700D-01
  0.594800D+01  0.917640D-01
  0.174200D+01  0.298683D+00
  0.555000D+00  0.498487D+00
  0.172500D+00  0.337023D+00
   p     1 1.00
  0.174200D+01  0.100000D+01
   p     1 1.00
  0.555000D+00  0.100000D+01
   d     1 1.00
  0.165400D+01  0.100000D+01
   d     1 1.00
  0.469000D+00  0.100000D+01
   f     1 1.00
  0.109300D+01  0.100000D+01
  
  2  0
   s    10 1.00
  0.823600D+04  0.531000D-03
  0.123500D+04  0.410800D-02
  0.280800D+03  0.210870D-01
  0.792700D+02  0.818530D-01
  0.255900D+02  0.234817D+00
  0.899700D+01  0.434401D+00
  0.331900D+01  0.346129D+00
  0.905900D+00  0.393780D-01
  0.364300D+00 -0.898300D-02
  0.128500D+00  0.238500D-02
   s    10 1.00
  0.823600D+04 -0.113000D-03
  0.123500D+04 -0.878000D-03
  0.280800D+03 -0.454000D-02
  0.792700D+02 -0.181330D-01
  0.255900D+02 -0.557600D-01
  0.899700D+01 -0.126895D+00
  0.331900D+01 -0.170352D+00
  0.905900D+00  0.140382D+00
  0.364300D+00  0.598684D+00
  0.128500D+00  0.395389D+00
   s     1 1.00
  0.905900D+00  0.100000D+01
   s     1 1.00
  0.364300D+00  0.100000D+01
   p     5 1.00
  0.187100D+02  0.140310D-01
  0.413300D+01  0.868660D-01
  0.120000D+01  0.290216D+00
  0.382700D+00  0.501008D+00
  0.120900D+00  0.343406D+00
   p     1 1.00
  0.382700D+00  0.100000D+01
   p     1 1.00
  0.120900D+00  0.100000D+01
   d     1 1.00
  0.109700D+01  0.100000D+01
   d     1 1.00
  0.318000D+00  0.100000D+01
   f     1 1.00
  0.761000D+00  0.100000D+01
  
  3  0
   s    10 1.00
  0.823600D+04  0.531000D-03
  0.123500D+04  0.410800D-02
  0.280800D+03  0.210870D-01
  0.792700D+02  0.818530D-01
  0.255900D+02  0.234817D+00
  0.899700D+01  0.434401D+00
  0.331900D+01  0.346129D+00
  0.905900D+00  0.393780D-01
  0.364300D+00 -0.898300D-02
  0.128500D+00  0.238500D-02
   s    10 1.00
  0.823600D+04 -0.113000D-03
  0.123500D+04 -0.878000D-03
  0.280800D+03 -0.454000D-02
  0.792700D+02 -0.181330D-01
  0.255900D+02 -0.557600D-01
  0.899700D+01 -0.126895D+00
  0.331900D+01 -0.170352D+00
  0.905900D+00  0.140382D+00
  0.364300D+00  0.598684D+00
  0.128500D+00  0.395389D+00
   s     1 1.00
  0.905900D+00  0.100000D+01
   s     1 1.00
  0.364300D+00  0.100000D+01
   p     5 1.00
  0.187100D+02  0.140310D-01
  0.413300D+01  0.868660D-01
  0.120000D+01  0.290216D+00
  0.382700D+00  0.501008D+00
  0.120900D+00  0.343406D+00
   p     1 1.00
  0.382700D+00  0.100000D+01
   p     1 1.00
  0.120900D+00  0.100000D+01
   d     1 1.00
  0.109700D+01  0.100000D+01
   d     1 1.00
  0.318000D+00  0.100000D+01
   f     1 1.00
  0.761000D+00  0.100000D+01
  
  4  0
   s    10 1.00
  0.823600D+04  0.531000D-03
  0.123500D+04  0.410800D-02
  0.280800D+03  0.210870D-01
  0.792700D+02  0.818530D-01
  0.255900D+02  0.234817D+00
  0.899700D+01  0.434401D+00
  0.331900D+01  0.346129D+00
  0.905900D+00  0.393780D-01
  0.364300D+00 -0.898300D-02
  0.128500D+00  0.238500D-02
   s    10 1.00
  0.823600D+04 -0.113000D-03
  0.123500D+04 -0.878000D-03
  0.280800D+03 -0.454000D-02
  0.792700D+02 -0.181330D-01
  0.255900D+02 -0.557600D-01
  0.899700D+01 -0.126895D+00
  0.331900D+01 -0.170352D+00
  0.905900D+00  0.140382D+00
  0.364300D+00  0.598684D+00
  0.128500D+00  0.395389D+00
   s     1 1.00
  0.905900D+00  0.100000D+01
   s     1 1.00
  0.364300D+00  0.100000D+01
   p     5 1.00
  0.187100D+02  0.140310D-01
  0.413300D+01  0.868660D-01
  0.120000D+01  0.290216D+00
  0.382700D+00  0.501008D+00
  0.120900D+00  0.343406D+00
   p     1 1.00
  0.382700D+00  0.100000D+01
   p     1 1.00
  0.120900D+00  0.100000D+01
   d     1 1.00
  0.109700D+01  0.100000D+01
   d     1 1.00
  0.318000D+00  0.100000D+01
   f     1 1.00
  0.761000D+00  0.100000D+01
  
  5  0
   s    10 1.00
  0.823600D+04  0.531000D-03
  0.123500D+04  0.410800D-02
  0.280800D+03  0.210870D-01
  0.792700D+02  0.818530D-01
  0.255900D+02  0.234817D+00
  0.899700D+01  0.434401D+00
  0.331900D+01  0.346129D+00
  0.905900D+00  0.393780D-01
  0.364300D+00 -0.898300D-02
  0.128500D+00  0.238500D-02
   s    10 1.00
  0.823600D+04 -0.113000D-03
  0.123500D+04 -0.878000D-03
  0.280800D+03 -0.454000D-02
  0.792700D+02 -0.181330D-01
  0.255900D+02 -0.557600D-01
  0.899700D+01 -0.126895D+00
  0.331900D+01 -0.170352D+00
  0.905900D+00  0.140382D+00
  0.364300D+00  0.598684D+00
  0.128500D+00  0.395389D+00
   s     1 1.00
  0.905900D+00  0.100000D+01
   s     1 1.00
  0.364300D+00  0.100000D+01
   p     5 1.00
  0.187100D+02  0.140310D-01
  0.413300D+01  0.868660D-01
  0.120000D+01  0.290216D+00
  0.382700D+00  0.501008D+00
  0.120900D+00  0.343406D+00
   p     1 1.00
  0.382700D+00  0.100000D+01
   p     1 1.00
  0.120900D+00  0.100000D+01
   d     1 1.00
  0.109700D+01  0.100000D+01
   d     1 1.00
  0.318000D+00  0.100000D+01
   f     1 1.00
  0.761000D+00  0.100000D+01
  
  6  0
   s    10 1.00
  0.823600D+04  0.531000D-03
  0.123500D+04  0.410800D-02
  0.280800D+03  0.210870D-01
  0.792700D+02  0.818530D-01
  0.255900D+02  0.234817D+00
  0.899700D+01  0.434401D+00
  0.331900D+01  0.346129D+00
  0.905900D+00  0.393780D-01
  0.364300D+00 -0.898300D-02
  0.128500D+00  0.238500D-02
   s    10 1.00
  0.823600D+04 -0.113000D-03
  0.123500D+04 -0.878000D-03
  0.280800D+03 -0.454000D-02
  0.792700D+02 -0.181330D-01
  0.255900D+02 -0.557600D-01
  0.899700D+01 -0.126895D+00
  0.331900D+01 -0.170352D+00
  0.905900D+00  0.140382D+00
  0.364300D+00  0.598684D+00
  0.128500D+00  0.395389D+00
   s     1 1.00
  0.905900D+00  0.100000D+01
   s     1 1.00
  0.364300D+00  0.100000D+01
   p     5 1.00
  0.187100D+02  0.140310D-01
  0.413300D+01  0.868660D-01
  0.120000D+01  0.290216D+00
  0.382700D+00  0.501008D+00
  0.120900D+00  0.343406D+00
   p     1 1.00
  0.382700D+00  0.100000D+01
   p     1 1.00
  0.120900D+00  0.100000D+01
   d     1 1.00
  0.109700D+01  0.100000D+01
   d     1 1.00
  0.318000D+00  0.100000D+01
   f     1 1.00
  0.761000D+00  0.100000D+01
  
  7  0
   s    10 1.00
  0.823600D+04  0.531000D-03
  0.123500D+04  0.410800D-02
  0.280800D+03  0.210870D-01
  0.792700D+02  0.818530D-01
  0.255900D+02  0.234817D+00
  0.899700D+01  0.434401D+00
  0.331900D+01  0.346129D+00
  0.905900D+00  0.393780D-01
  0.364300D+00 -0.898300D-02
  0.128500D+00  0.238500D-02
   s    10 1.00
  0.823600D+04 -0.113000D-03
  0.123500D+04 -0.878000D-03
  0.280800D+03 -0.454000D-02
  0.792700D+02 -0.181330D-01
  0.255900D+02 -0.557600D-01
  0.899700D+01 -0.126895D+00
  0.331900D+01 -0.170352D+00
  0.905900D+00  0.140382D+00
  0.364300D+00  0.598684D+00
  0.128500D+00  0.395389D+00
   s     1 1.00
  0.905900D+00  0.100000D+01
   s     1 1.00
  0.364300D+00  0.100000D+01
   p     5 1.00
  0.187100D+02  0.140310D-01
  0.413300D+01  0.868660D-01
  0.120000D+01  0.290216D+00
  0.382700D+00  0.501008D+00
  0.120900D+00  0.343406D+00
   p     1 1.00
  0.382700D+00  0.100000D+01
   p     1 1.00
  0.120900D+00  0.100000D+01
   d     1 1.00
  0.109700D+01  0.100000D+01
   d     1 1.00
  0.318000D+00  0.100000D+01
   f     1 1.00
  0.761000D+00  0.100000D+01
  
  8  0
   s     4 1.00
  0.130100D+02  0.196850D-01
  0.196200D+01  0.137977D+00
  0.444600D+00  0.478148D+00
  0.122000D+00  0.501240D+00
   s     1 1.00
  0.122000D+00  0.100000D+01
   p     1 1.00
  0.727000D+00  0.100000D+01
  
  9  0
   s     4 1.00
  0.130100D+02  0.196850D-01
  0.196200D+01  0.137977D+00
  0.444600D+00  0.478148D+00
  0.122000D+00  0.501240D+00
   s     1 1.00
  0.122000D+00  0.100000D+01
   p     1 1.00
  0.727000D+00  0.100000D+01
  
 10  0
   s     4 1.00
  0.130100D+02  0.196850D-01
  0.196200D+01  0.137977D+00
  0.444600D+00  0.478148D+00
  0.122000D+00  0.501240D+00
   s     1 1.00
  0.122000D+00  0.100000D+01
   p     1 1.00
  0.727000D+00  0.100000D+01
  
 11  0
   s     4 1.00
  0.130100D+02  0.196850D-01
  0.196200D+01  0.137977D+00
  0.444600D+00  0.478148D+00
  0.122000D+00  0.501240D+00
   s     1 1.00
  0.122000D+00  0.100000D+01
   p     1 1.00
  0.727000D+00  0.100000D+01
  
 12  0
   s     4 1.00
  0.130100D+02  0.196850D-01
  0.196200D+01  0.137977D+00
  0.444600D+00  0.478148D+00
  0.122000D+00  0.501240D+00
   s     1 1.00
  0.122000D+00  0.100000D+01
   p     1 1.00
  0.727000D+00  0.100000D+01
  
 13  0
   s     4 1.00
  0.130100D+02  0.196850D-01
  0.196200D+01  0.137977D+00
  0.444600D+00  0.478148D+00
  0.122000D+00  0.501240D+00
   s     1 1.00
  0.122000D+00  0.100000D+01
   p     1 1.00
  0.727000D+00  0.100000D+01
  
 14  0
   s     4 1.00
  0.130100D+02  0.196850D-01
  0.196200D+01  0.137977D+00
  0.444600D+00  0.478148D+00
  0.122000D+00  0.501240D+00
   s     1 1.00
  0.122000D+00  0.100000D+01
   p     1 1.00
  0.727000D+00  0.100000D+01
  
[MO]
 Sym= __1_A'_
 Ene=  0.000000000000000E+000
 Spin= Alpha
 Occup=    2.00000000000000     
                     1  1.289588001775271E-004
                     2  0.998248629448934     
                     3 -2.355579069177743E-003
                     4  2.023878512564606E-003
                     5  5.648528482677147E-003
                     6  4.527908603369209E-003
                     7 -3.389051374561166E-003
                     8  0.000000000000000E+000
                     9 -4.651891411742414E-004
                    10  2.811836227684119E-004
                    11  0.000000000000000E+000
                    12 -1.150345054245681E-003
                    13  2.567574171563041E-003
                    14  0.000000000000000E+000
                    15 -3.245126035304030E-005
                    16  0.000000000000000E+000
                    17  0.000000000000000E+000
                    18  7.854549999353806E-005
                    19  3.837833648039078E-005
                    20 -2.334790811770059E-004
                    21  0.000000000000000E+000
                    22  0.000000000000000E+000
                    23 -9.714002610137439E-005
                    24 -3.681443364367798E-004
                    25  0.000000000000000E+000
                    26 -1.077919693768463E-004
                    27 -4.756237595095059E-005
                    28  0.000000000000000E+000
                    29  0.000000000000000E+000
                    30 -5.889057150196646E-005
                    31 -4.312632836317323E-005
                    32 -2.685196742191031E-004
                    33  4.760301070093053E-004
                    34  1.731100739878188E-004
                    35  5.493507473328816E-005
                    36 -2.470287977272392E-003
                    37 -1.113154460247264E-005
                    38  0.000000000000000E+000
                    39 -1.855309478464865E-004
                    40  2.303556608453731E-005
                    41  0.000000000000000E+000
                    42  4.023574417875313E-003
                    43  6.558239864468036E-004
                    44  0.000000000000000E+000
                    45 -1.511652454991912E-004
                    46  0.000000000000000E+000
                    47  0.000000000000000E+000
                    48  1.277610374064306E-004
                    49  3.981701177098083E-005
                    50  2.473721658964075E-004
                    51  0.000000000000000E+000
                    52  0.000000000000000E+000
                    53  9.001507964790334E-005
                    54 -3.033146655558858E-004
                    55  0.000000000000000E+000
                    56 -7.572189729687221E-005
                    57  7.040746713700467E-006
                    58  0.000000000000000E+000
                    59  0.000000000000000E+000
                    60 -4.871028730144057E-005
                    61  3.616089175125437E-005
                    62 -3.028799077393684E-004
                    63 -1.213687031496744E-003
                    64  5.297418909595041E-005
                    65  8.024191950600379E-004
                    66  8.715446471475732E-005
                    67 -7.207024829575415E-005
                    68 -2.867282220479249E-004
                    69  5.135969696012914E-004
                    70  6.587306983376843E-005
                    71  7.928250502609410E-005
                    72 -4.088006656531270E-004
                    73 -2.913291572300356E-004
                    74 -7.590205833550946E-004
                    75 -3.580338236952521E-005
                    76 -1.170151038418620E-005
                    77  1.616743475317821E-005
                    78  4.812954187209784E-005
                    79 -6.934431115973387E-006
                    80  1.173528506050025E-004
                    81  3.805776389591060E-005
                    82 -2.596213138144226E-005
                    83 -6.417426331462036E-005
                    84  3.890408355022335E-005
                    85 -1.344442507362858E-005
                    86 -7.130865197718352E-005
                    87  1.697866844723455E-005
                    88 -1.912351367726168E-005
                    89  1.070871901537175E-005
                    90 -4.890156833336261E-005
                    91 -8.683015827766509E-006
                    92 -3.028799077393684E-004
                    93 -1.213687031496744E-003
                    94  5.297418909595041E-005
                    95  8.024191950600379E-004
                    96  8.715446471475732E-005
                    97 -7.207024829575415E-005
                    98  2.867282220479249E-004
                    99  5.135969696012914E-004
                   100  6.587306983376843E-005
                   101 -7.928250502609410E-005
                   102 -4.088006656531270E-004
                   103 -2.913291572300356E-004
                   104  7.590205833550946E-004
                   105 -3.580338236952521E-005
                   106  1.170151038418620E-005
                   107 -1.616743475317821E-005
                   108  4.812954187209784E-005
                   109 -6.934431115973387E-006
                   110  1.173528506050025E-004
                   111 -3.805776389591060E-005
                   112  2.596213138144226E-005
                   113 -6.417426331462036E-005
                   114  3.890408355022335E-005
                   115  1.344442507362858E-005
                   116 -7.130865197718352E-005
                   117  1.697866844723455E-005
                   118  1.912351367726168E-005
                   119 -1.070871901537175E-005
                   120 -4.890156833336261E-005
                   121 -8.683015827766509E-006
                   122 -1.591565172730283E-004
                   123 -4.014847556017238E-004
                   124  6.108144890574837E-005
                   125  4.099545945756705E-004
                   126 -2.119399092066024E-004
                   127 -1.927590932581393E-005
                   128 -5.557063342862483E-006
                   129  2.207840028125195E-004
                   130 -1.662432740497948E-005
                   131  7.350723469395404E-005
                   132  6.909595668251509E-004
                   133  1.229702929910858E-004
                   134 -2.393554867395021E-004
                   135  1.250704176079206E-005
                   136 -6.628783290494487E-006
                   137 -2.626554787384139E-006
                   138 -9.167092848370785E-006
                   139  7.896508522188326E-006
                   140  7.618716536927090E-005
                   141  1.254207917104152E-004
                   142  6.391878540916763E-006
                   143 -1.825222359928258E-004
                   144 -1.425847434066387E-005
                   145 -3.056797665846823E-006
                   146 -2.087781863985337E-005
                   147  2.201913700451257E-006
                   148  5.485539657249084E-006
                   149 -2.051583121173882E-006
                   150 -4.389545294521509E-005
                   151 -1.075520519410022E-006
                   152 -1.591565172730283E-004
                   153 -4.014847556017238E-004
                   154  6.108144890574837E-005
                   155  4.099545945756705E-004
                   156 -2.119399092066024E-004
                   157 -1.927590932581393E-005
                   158  5.557063342862483E-006
                   159  2.207840028125195E-004
                   160 -1.662432740497948E-005
                   161 -7.350723469395404E-005
                   162  6.909595668251509E-004
                   163  1.229702929910858E-004
                   164  2.393554867395021E-004
                   165  1.250704176079206E-005
                   166  6.628783290494487E-006
                   167  2.626554787384139E-006
                   168 -9.167092848370785E-006
                   169  7.896508522188326E-006
                   170  7.618716536927090E-005
                   171 -1.254207917104152E-004
                   172 -6.391878540916763E-006
                   173 -1.825222359928258E-004
                   174 -1.425847434066387E-005
                   175  3.056797665846823E-006
                   176 -2.087781863985337E-005
                   177  2.201913700451257E-006
                   178 -5.485539657249084E-006
                   179  2.051583121173882E-006
                   180 -4.389545294521509E-005
                   181 -1.075520519410022E-006
                   182 -1.005645895516639E-004
                   183 -2.992108932672970E-004
                   184  2.685165569110582E-005
                   185  1.268367631593534E-004
                   186 -3.942165729686130E-005
                   187 -2.232649292523939E-005
                   188  0.000000000000000E+000
                   189  9.458417583409548E-005
                   190  2.023631242892464E-005
                   191  0.000000000000000E+000
                   192 -2.889968026862976E-004
                   193 -8.528936452225105E-005
                   194  0.000000000000000E+000
                   195 -5.236412087027809E-006
                   196  0.000000000000000E+000
                   197  0.000000000000000E+000
                   198  2.405695939887926E-006
                   199 -2.443003936194468E-006
                   200 -8.707383317899379E-005
                   201  0.000000000000000E+000
                   202  0.000000000000000E+000
                   203  3.727974274831974E-005
                   204  1.381982680658992E-005
                   205  0.000000000000000E+000
                   206  2.845838428508698E-006
                   207  3.091641313998617E-006
                   208  0.000000000000000E+000
                   209  0.000000000000000E+000
                   210 -5.271854925892457E-006
                   211 -2.102118941794202E-006
                   212  2.037376759415914E-004
                   213 -8.896863314939204E-004
                   214  9.307890288415906E-005
                   215  1.587239068232586E-004
                   216  1.488113586572549E-004
                   217  2.037376759415914E-004
                   218 -8.896863314939204E-004
                   219  9.307890288415906E-005
                   220  1.587239068232586E-004
                   221 -1.488113586572549E-004
                   222 -1.926337219406115E-004
                   223 -3.630787369668577E-004
                   224 -4.940278375644581E-005
                   225  8.095238456500230E-006
                   226  3.510783157854943E-005
                   227 -1.926337219406115E-004
                   228 -3.630787369668577E-004
                   229 -4.940278375644581E-005
                   230  8.095238456500230E-006
                   231 -3.510783157854943E-005
                   232 -5.065645818937571E-007
                   233 -4.100643552812126E-004
                   234  3.766712725356977E-007
                   235 -1.461457193710909E-006
                   236  2.890713024245997E-006
                   237 -5.065645818937571E-007
                   238 -4.100643552812126E-004
                   239  3.766712725356977E-007
                   240 -1.461457193710909E-006
                   241 -2.890713024245997E-006
                   242 -3.077684018086879E-005
                   243  7.440004393089349E-005
                   244  2.548751289742525E-005
                   245  1.615920360635566E-006
                   246  0.000000000000000E+000
 Sym= __2_A'_
 Ene=  0.000000000000000E+000
 Spin= Alpha
 Occup=    2.00000000000000     
                     1 -3.003942104801476E-005
                     2 -1.203605968668600E-004
                     3  1.894571971610615E-003
                     4 -2.475811865295253E-006
                     5  1.257289503779323E-003
                     6  2.150195469188201E-003
                     7  2.081313108575618E-004
                     8  0.000000000000000E+000
                     9 -1.420227771135444E-004
                    10  8.147250460620264E-005
                    11  0.000000000000000E+000
                    12 -3.000446235087151E-005
                    13  1.127725784762792E-005
                    14  0.000000000000000E+000
                    15 -7.597762994850260E-005
                    16  0.000000000000000E+000
                    17  0.000000000000000E+000
                    18  3.369722368268804E-005
                    19 -2.548852555033793E-006
                    20  2.442126425265520E-004
                    21  0.000000000000000E+000
                    22  0.000000000000000E+000
                    23  5.523838110608364E-005
                    24 -3.854224656452919E-005
                    25  0.000000000000000E+000
                    26  1.478616859121685E-004
                    27 -5.820921212836018E-005
                    28  0.000000000000000E+000
                    29  0.000000000000000E+000
                    30  1.427997823730768E-004
                    31  2.927976705169920E-005
                    32   1.00095780429102     
                    33  8.826135668065241E-003
                    34  2.844752494013272E-003
                    35 -8.105052611049686E-003
                    36 -3.132118279493101E-003
                    37  5.743202371598871E-004
                    38  0.000000000000000E+000
                    39  1.409349731534704E-003
                    40 -2.211887905063104E-004
                    41  0.000000000000000E+000
                    42  3.703293626535751E-003
                    43 -1.285804203441222E-004
                    44  0.000000000000000E+000
                    45  2.720583106258401E-004
                    46  0.000000000000000E+000
                    47  0.000000000000000E+000
                    48  4.549018178106116E-004
                    49 -1.767720728126806E-005
                    50 -1.037997784850227E-003
                    51  0.000000000000000E+000
                    52  0.000000000000000E+000
                    53 -1.126705788575512E-004
                    54  1.859409231810383E-005
                    55  0.000000000000000E+000
                    56  3.418036514529993E-004
                    57 -8.719143390514795E-006
                    58  0.000000000000000E+000
                    59  0.000000000000000E+000
                    60  8.849214726252694E-005
                    61  1.473149025559060E-005
                    62  1.062532318336424E-002
                    63 -1.950184773441936E-003
                    64 -3.022041265720375E-004
                    65  3.153193740787139E-003
                    66 -1.636293725651506E-004
                    67  8.604950668666843E-005
                    68  2.441126717173851E-004
                    69  4.202291248731721E-005
                    70  6.788526555997820E-006
                    71  4.880198619582635E-004
                    72  1.850670918159334E-004
                    73 -1.879239682652798E-005
                    74 -1.864714148711864E-003
                    75 -1.412885179807778E-005
                    76  2.878734503226273E-005
                    77  6.162637014985342E-006
                    78 -3.847423971559972E-005
                    79 -3.777527610911976E-006
                    80 -4.349794168726352E-004
                    81 -4.661507773188548E-004
                    82  5.206186895119437E-006
                    83  7.639469348136424E-004
                    84 -4.174515265862507E-006
                    85  5.779328123481727E-005
                    86  1.119012762737872E-004
                    87  9.109487831603347E-007
                    88 -1.028027894277862E-005
                    89 -5.580476913976800E-006
                    90 -2.699187653307027E-005
                    91  4.024264631653656E-006
                    92  1.062532318336424E-002
                    93 -1.950184773441936E-003
                    94 -3.022041265720375E-004
                    95  3.153193740787139E-003
                    96 -1.636293725651506E-004
                    97  8.604950668666843E-005
                    98 -2.441126717173851E-004
                    99  4.202291248731721E-005
                   100  6.788526555997820E-006
                   101 -4.880198619582635E-004
                   102  1.850670918159334E-004
                   103 -1.879239682652798E-005
                   104  1.864714148711864E-003
                   105 -1.412885179807778E-005
                   106 -2.878734503226273E-005
                   107 -6.162637014985342E-006
                   108 -3.847423971559972E-005
                   109 -3.777527610911976E-006
                   110 -4.349794168726352E-004
                   111  4.661507773188548E-004
                   112 -5.206186895119437E-006
                   113  7.639469348136424E-004
                   114 -4.174515265862507E-006
                   115 -5.779328123481727E-005
                   116  1.119012762737872E-004
                   117  9.109487831603347E-007
                   118  1.028027894277862E-005
                   119  5.580476913976800E-006
                   120 -2.699187653307027E-005
                   121  4.024264631653656E-006
                   122 -2.024805818100994E-004
                   123 -7.605593476657842E-004
                   124  2.533696428805640E-004
                   125 -2.881154844845733E-004
                   126 -1.754595129913193E-004
                   127  1.756502550899910E-005
                   128 -4.213890609177428E-005
                   129  5.967018111303393E-004
                   130 -3.807596775556041E-006
                   131  3.453830588641780E-005
                   132  5.910120914476095E-004
                   133  2.998891260318542E-007
                   134  3.521430906769851E-004
                   135 -1.661215795386895E-007
                   136  4.274658982240531E-005
                   137  2.001485620220098E-007
                   138 -3.287885580840862E-005
                   139 -9.256522214894273E-007
                   140  2.013748410946645E-004
                   141 -2.652779868522204E-004
                   142 -1.495868628685089E-007
                   143 -2.684507192120892E-004
                   144 -1.122450043775706E-006
                   145 -1.861901571581566E-005
                   146  1.466647416569441E-005
                   147  1.775507035067060E-007
                   148 -1.515710116166620E-005
                   149 -1.247825811280721E-006
                   150 -2.482356197428934E-005
                   151 -9.651616309342371E-007
                   152 -2.024805818100994E-004
                   153 -7.605593476657842E-004
                   154  2.533696428805640E-004
                   155 -2.881154844845733E-004
                   156 -1.754595129913193E-004
                   157  1.756502550899910E-005
                   158  4.213890609177428E-005
                   159  5.967018111303393E-004
                   160 -3.807596775556041E-006