[Molden Format]
[Atoms] AU
  N     1    7     0.0088599900   -4.2725018000    0.0000000100        
  C     2    6     0.1143943300   -1.7339816800    0.0000000000        
  C     3    6    -2.2257662100   -0.3737079800    0.0000000100        
  C     4    6     2.4018065900   -0.2788272700   -0.0000000300        
  C     5    6    -2.2439812500    2.2078724700   -0.0000000100        
  C     6    6     2.3342884000    2.2991455900    0.0000000000        
  C     7    6     0.0231153400    3.5733432000    0.0000000000        
  H     8    1    -4.0647629800   -7.3447418300    0.0000000100        
  H     9    1     1.8188095500   -4.9964270100    0.0000000200        
  H    10    1    -3.9476673300   -1.4388691000    0.0000000100        
  H    11    1     4.1775953000   -1.2622614700   -0.0000000300        
  H    12    1    -4.0091743300    3.2089730500   -0.0000000300        
  H    13    1     4.0617364800    3.3642852600    0.0000000100        
  H    14    1    -0.0164860800    5.6010230100    0.0000000100        
[5D]
[7F]
[GTO]
  1  0
   s    12 1.00
  0.114200D+05  0.172695D-04
  0.171200D+04  0.134411D-03
  0.389300D+03  0.694561D-03
  0.110000D+03  0.278531D-02
  0.355700D+02  0.863457D-02
  0.125400D+02  0.199805D-01
  0.464400D+01  0.262908D-01
  0.129300D+01 -0.243845D-01
  0.511800D+00 -0.924934D-01
  0.178700D+00 -0.339683D+00
  0.246240D-01  0.345111D+00
  0.112530D-01  0.752750D+00
   s    10 1.00
  0.114200D+05  0.523000D-03
  0.171200D+04  0.404500D-02
  0.389300D+03  0.207750D-01
  0.110000D+03  0.807269D-01
  0.355700D+02  0.233074D+00
  0.125400D+02  0.433501D+00
  0.464400D+01  0.347472D+00
  0.129300D+01  0.412620D-01
  0.511800D+00 -0.850799D-02
  0.178700D+00  0.238400D-02
   s    10 1.00
  0.114200D+05 -0.115000D-03
  0.171200D+04 -0.895000D-03
  0.389300D+03 -0.462400D-02
  0.110000D+03 -0.185280D-01
  0.355700D+02 -0.573390D-01
  0.125400D+02 -0.132076D+00
  0.464400D+01 -0.172510D+00
  0.129300D+01  0.151814D+00
  0.511800D+00  0.599944D+00
  0.178700D+00  0.387462D+00
   s     1 1.00
  0.129300D+01  0.100000D+01
   s     1 1.00
  0.178700D+00  0.100000D+01
   p     5 1.00
  0.266300D+02  0.146700D-01
  0.594800D+01  0.917640D-01
  0.174200D+01  0.298683D+00
  0.555000D+00  0.498487D+00
  0.172500D+00  0.337023D+00
   p     1 1.00
  0.174200D+01  0.100000D+01
   p     1 1.00
  0.555000D+00  0.100000D+01
   d     1 1.00
  0.165400D+01  0.100000D+01
   d     1 1.00
  0.469000D+00  0.100000D+01
   f     1 1.00
  0.109300D+01  0.100000D+01
  
  2  0
   s    10 1.00
  0.823600D+04  0.531000D-03
  0.123500D+04  0.410800D-02
  0.280800D+03  0.210870D-01
  0.792700D+02  0.818530D-01
  0.255900D+02  0.234817D+00
  0.899700D+01  0.434401D+00
  0.331900D+01  0.346129D+00
  0.905900D+00  0.393780D-01
  0.364300D+00 -0.898300D-02
  0.128500D+00  0.238500D-02
   s    10 1.00
  0.823600D+04 -0.113000D-03
  0.123500D+04 -0.878000D-03
  0.280800D+03 -0.454000D-02
  0.792700D+02 -0.181330D-01
  0.255900D+02 -0.557600D-01
  0.899700D+01 -0.126895D+00
  0.331900D+01 -0.170352D+00
  0.905900D+00  0.140382D+00
  0.364300D+00  0.598684D+00
  0.128500D+00  0.395389D+00
   s     1 1.00
  0.905900D+00  0.100000D+01
   s     1 1.00
  0.364300D+00  0.100000D+01
   p     5 1.00
  0.187100D+02  0.140310D-01
  0.413300D+01  0.868660D-01
  0.120000D+01  0.290216D+00
  0.382700D+00  0.501008D+00
  0.120900D+00  0.343406D+00
   p     1 1.00
  0.382700D+00  0.100000D+01
   p     1 1.00
  0.120900D+00  0.100000D+01
   d     1 1.00
  0.109700D+01  0.100000D+01
   d     1 1.00
  0.318000D+00  0.100000D+01
   f     1 1.00
  0.761000D+00  0.100000D+01
  
  3  0
   s    10 1.00
  0.823600D+04  0.531000D-03
  0.123500D+04  0.410800D-02
  0.280800D+03  0.210870D-01
  0.792700D+02  0.818530D-01
  0.255900D+02  0.234817D+00
  0.899700D+01  0.434401D+00
  0.331900D+01  0.346129D+00
  0.905900D+00  0.393780D-01
  0.364300D+00 -0.898300D-02
  0.128500D+00  0.238500D-02
   s    10 1.00
  0.823600D+04 -0.113000D-03
  0.123500D+04 -0.878000D-03
  0.280800D+03 -0.454000D-02
  0.792700D+02 -0.181330D-01
  0.255900D+02 -0.557600D-01
  0.899700D+01 -0.126895D+00
  0.331900D+01 -0.170352D+00
  0.905900D+00  0.140382D+00
  0.364300D+00  0.598684D+00
  0.128500D+00  0.395389D+00
   s     1 1.00
  0.905900D+00  0.100000D+01
   s     1 1.00
  0.364300D+00  0.100000D+01
   p     5 1.00
  0.187100D+02  0.140310D-01
  0.413300D+01  0.868660D-01
  0.120000D+01  0.290216D+00
  0.382700D+00  0.501008D+00
  0.120900D+00  0.343406D+00
   p     1 1.00
  0.382700D+00  0.100000D+01
   p     1 1.00
  0.120900D+00  0.100000D+01
   d     1 1.00
  0.109700D+01  0.100000D+01
   d     1 1.00
  0.318000D+00  0.100000D+01
   f     1 1.00
  0.761000D+00  0.100000D+01
  
  4  0
   s    10 1.00
  0.823600D+04  0.531000D-03
  0.123500D+04  0.410800D-02
  0.280800D+03  0.210870D-01
  0.792700D+02  0.818530D-01
  0.255900D+02  0.234817D+00
  0.899700D+01  0.434401D+00
  0.331900D+01  0.346129D+00
  0.905900D+00  0.393780D-01
  0.364300D+00 -0.898300D-02
  0.128500D+00  0.238500D-02
   s    10 1.00
  0.823600D+04 -0.113000D-03
  0.123500D+04 -0.878000D-03
  0.280800D+03 -0.454000D-02
  0.792700D+02 -0.181330D-01
  0.255900D+02 -0.557600D-01
  0.899700D+01 -0.126895D+00
  0.331900D+01 -0.170352D+00
  0.905900D+00  0.140382D+00
  0.364300D+00  0.598684D+00
  0.128500D+00  0.395389D+00
   s     1 1.00
  0.905900D+00  0.100000D+01
   s     1 1.00
  0.364300D+00  0.100000D+01
   p     5 1.00
  0.187100D+02  0.140310D-01
  0.413300D+01  0.868660D-01
  0.120000D+01  0.290216D+00
  0.382700D+00  0.501008D+00
  0.120900D+00  0.343406D+00
   p     1 1.00
  0.382700D+00  0.100000D+01
   p     1 1.00
  0.120900D+00  0.100000D+01
   d     1 1.00
  0.109700D+01  0.100000D+01
   d     1 1.00
  0.318000D+00  0.100000D+01
   f     1 1.00
  0.761000D+00  0.100000D+01
  
  5  0
   s    10 1.00
  0.823600D+04  0.531000D-03
  0.123500D+04  0.410800D-02
  0.280800D+03  0.210870D-01
  0.792700D+02  0.818530D-01
  0.255900D+02  0.234817D+00
  0.899700D+01  0.434401D+00
  0.331900D+01  0.346129D+00
  0.905900D+00  0.393780D-01
  0.364300D+00 -0.898300D-02
  0.128500D+00  0.238500D-02
   s    10 1.00
  0.823600D+04 -0.113000D-03
  0.123500D+04 -0.878000D-03
  0.280800D+03 -0.454000D-02
  0.792700D+02 -0.181330D-01
  0.255900D+02 -0.557600D-01
  0.899700D+01 -0.126895D+00
  0.331900D+01 -0.170352D+00
  0.905900D+00  0.140382D+00
  0.364300D+00  0.598684D+00
  0.128500D+00  0.395389D+00
   s     1 1.00
  0.905900D+00  0.100000D+01
   s     1 1.00
  0.364300D+00  0.100000D+01
   p     5 1.00
  0.187100D+02  0.140310D-01
  0.413300D+01  0.868660D-01
  0.120000D+01  0.290216D+00
  0.382700D+00  0.501008D+00
  0.120900D+00  0.343406D+00
   p     1 1.00
  0.382700D+00  0.100000D+01
   p     1 1.00
  0.120900D+00  0.100000D+01
   d     1 1.00
  0.109700D+01  0.100000D+01
   d     1 1.00
  0.318000D+00  0.100000D+01
   f     1 1.00
  0.761000D+00  0.100000D+01
  
  6  0
   s    10 1.00
  0.823600D+04  0.531000D-03
  0.123500D+04  0.410800D-02
  0.280800D+03  0.210870D-01
  0.792700D+02  0.818530D-01
  0.255900D+02  0.234817D+00
  0.899700D+01  0.434401D+00
  0.331900D+01  0.346129D+00
  0.905900D+00  0.393780D-01
  0.364300D+00 -0.898300D-02
  0.128500D+00  0.238500D-02
   s    10 1.00
  0.823600D+04 -0.113000D-03
  0.123500D+04 -0.878000D-03
  0.280800D+03 -0.454000D-02
  0.792700D+02 -0.181330D-01
  0.255900D+02 -0.557600D-01
  0.899700D+01 -0.126895D+00
  0.331900D+01 -0.170352D+00
  0.905900D+00  0.140382D+00
  0.364300D+00  0.598684D+00
  0.128500D+00  0.395389D+00
   s     1 1.00
  0.905900D+00  0.100000D+01
   s     1 1.00
  0.364300D+00  0.100000D+01
   p     5 1.00
  0.187100D+02  0.140310D-01
  0.413300D+01  0.868660D-01
  0.120000D+01  0.290216D+00
  0.382700D+00  0.501008D+00
  0.120900D+00  0.343406D+00
   p     1 1.00
  0.382700D+00  0.100000D+01
   p     1 1.00
  0.120900D+00  0.100000D+01
   d     1 1.00
  0.109700D+01  0.100000D+01
   d     1 1.00
  0.318000D+00  0.100000D+01
   f     1 1.00
  0.761000D+00  0.100000D+01
  
  7  0
   s    10 1.00
  0.823600D+04  0.531000D-03
  0.123500D+04  0.410800D-02
  0.280800D+03  0.210870D-01
  0.792700D+02  0.818530D-01
  0.255900D+02  0.234817D+00
  0.899700D+01  0.434401D+00
  0.331900D+01  0.346129D+00
  0.905900D+00  0.393780D-01
  0.364300D+00 -0.898300D-02
  0.128500D+00  0.238500D-02
   s    10 1.00
  0.823600D+04 -0.113000D-03
  0.123500D+04 -0.878000D-03
  0.280800D+03 -0.454000D-02
  0.792700D+02 -0.181330D-01
  0.255900D+02 -0.557600D-01
  0.899700D+01 -0.126895D+00
  0.331900D+01 -0.170352D+00
  0.905900D+00  0.140382D+00
  0.364300D+00  0.598684D+00
  0.128500D+00  0.395389D+00
   s     1 1.00
  0.905900D+00  0.100000D+01
   s     1 1.00
  0.364300D+00  0.100000D+01
   p     5 1.00
  0.187100D+02  0.140310D-01
  0.413300D+01  0.868660D-01
  0.120000D+01  0.290216D+00
  0.382700D+00  0.501008D+00
  0.120900D+00  0.343406D+00
   p     1 1.00
  0.382700D+00  0.100000D+01
   p     1 1.00
  0.120900D+00  0.100000D+01
   d     1 1.00
  0.109700D+01  0.100000D+01
   d     1 1.00
  0.318000D+00  0.100000D+01
   f     1 1.00
  0.761000D+00  0.100000D+01
  
  8  0
   s     4 1.00
  0.130100D+02  0.196850D-01
  0.196200D+01  0.137977D+00
  0.444600D+00  0.478148D+00
  0.122000D+00  0.501240D+00
   s     1 1.00
  0.122000D+00  0.100000D+01
   p     1 1.00
  0.727000D+00  0.100000D+01
  
  9  0
   s     4 1.00
  0.130100D+02  0.196850D-01
  0.196200D+01  0.137977D+00
  0.444600D+00  0.478148D+00
  0.122000D+00  0.501240D+00
   s     1 1.00
  0.122000D+00  0.100000D+01
   p     1 1.00
  0.727000D+00  0.100000D+01
  
 10  0
   s     4 1.00
  0.130100D+02  0.196850D-01
  0.196200D+01  0.137977D+00
  0.444600D+00  0.478148D+00
  0.122000D+00  0.501240D+00
   s     1 1.00
  0.122000D+00  0.100000D+01
   p     1 1.00
  0.727000D+00  0.100000D+01
  
 11  0
   s     4 1.00
  0.130100D+02  0.196850D-01
  0.196200D+01  0.137977D+00
  0.444600D+00  0.478148D+00
  0.122000D+00  0.501240D+00
   s     1 1.00
  0.122000D+00  0.100000D+01
   p     1 1.00
  0.727000D+00  0.100000D+01
  
 12  0
   s     4 1.00
  0.130100D+02  0.196850D-01
  0.196200D+01  0.137977D+00
  0.444600D+00  0.478148D+00
  0.122000D+00  0.501240D+00
   s     1 1.00
  0.122000D+00  0.100000D+01
   p     1 1.00
  0.727000D+00  0.100000D+01
  
 13  0
   s     4 1.00
  0.130100D+02  0.196850D-01
  0.196200D+01  0.137977D+00
  0.444600D+00  0.478148D+00
  0.122000D+00  0.501240D+00
   s     1 1.00
  0.122000D+00  0.100000D+01
   p     1 1.00
  0.727000D+00  0.100000D+01
  
 14  0
   s     4 1.00
  0.130100D+02  0.196850D-01
  0.196200D+01  0.137977D+00
  0.444600D+00  0.478148D+00
  0.122000D+00  0.501240D+00
   s     1 1.00
  0.122000D+00  0.100000D+01
   p     1 1.00
  0.727000D+00  0.100000D+01
  
[MO]
 Sym= __1_A'_
 Ene=  0.000000000000000E+000
 Spin= Alpha
 Occup=    2.00000000000000     
                     1  1.028584328017845E-004
                     2  0.998353391346998     
                     3 -2.869603731211188E-003
                     4  1.840458175926752E-003
                     5  6.537005540221217E-003
                     6  2.802246463533246E-003
                     7  5.889063214714257E-003
                     8  0.000000000000000E+000
                     9 -7.119245741382393E-004
                    10 -7.410988853137286E-004
                    11  0.000000000000000E+000
                    12 -2.479636452294910E-003
                    13 -1.952961705759104E-003
                    14  0.000000000000000E+000
                    15 -3.170465746885654E-005
                    16  0.000000000000000E+000
                    17  0.000000000000000E+000
                    18 -1.535553666439453E-004
                    19 -6.407124894593075E-005
                    20  9.302108537526163E-005
                    21  0.000000000000000E+000
                    22  0.000000000000000E+000
                    23 -2.160248150813260E-004
                    24  4.994938981091414E-004
                    25  0.000000000000000E+000
                    26 -4.820228929594708E-006
                    27 -4.895923019538622E-005
                    28  0.000000000000000E+000
                    29  0.000000000000000E+000
                    30  3.373781922098100E-005
                    31 -1.094896150861697E-004
                    32 -3.544887680795306E-004
                    33  1.421996439450838E-004
                    34  3.266480333215027E-004
                    35 -1.284684029934870E-004
                    36 -6.941109865600308E-005
                    37 -2.536733490064905E-003
                    38  0.000000000000000E+000
                    39  3.733888221131492E-004
                    40  2.067072875713941E-004
                    41  0.000000000000000E+000
                    42 -2.153626606005389E-003
                    43  5.006749498013195E-003
                    44  0.000000000000000E+000
                    45  7.556693857732730E-006
                    46  0.000000000000000E+000
                    47  0.000000000000000E+000
                    48 -1.238738583806301E-004
                    49  1.256989375788577E-005
                    50 -1.950709067691216E-004
                    51  0.000000000000000E+000
                    52  0.000000000000000E+000
                    53  2.069787192366232E-005
                    54  7.827054760768870E-004
                    55  0.000000000000000E+000
                    56 -3.080271362942266E-006
                    57 -7.572313020429470E-005
                    58  0.000000000000000E+000
                    59  0.000000000000000E+000
                    60  1.750314765504845E-005
                    61 -1.302872017173106E-004
                    62 -5.483056278659980E-004
                    63 -2.156536519048912E-003
                    64 -9.057564959263342E-005
                    65  2.248408422426741E-003
                    66 -4.517738151107703E-004
                    67  1.053936197160046E-004
                    68  0.000000000000000E+000
                    69  3.838246874663760E-004
                    70  8.967854609998670E-004
                    71  0.000000000000000E+000
                    72 -1.805837817675978E-003
                    73  6.862474482696992E-004
                    74  0.000000000000000E+000
                    75 -4.544299335142950E-005
                    76  0.000000000000000E+000
                    77  0.000000000000000E+000
                    78 -6.000070371234878E-005
                    79 -2.388171483470266E-005
                    80 -1.347324171676699E-004
                    81  0.000000000000000E+000
                    82  0.000000000000000E+000
                    83  3.015006422530772E-005
                    84  5.790437263226950E-006
                    85  0.000000000000000E+000
                    86  9.656803225487686E-006
                    87 -4.655235060739529E-005
                    88  0.000000000000000E+000
                    89  0.000000000000000E+000
                    90 -2.911316411185795E-005
                    91 -1.558913431956267E-004
                    92 -1.762725678516778E-004
                    93 -6.373111267949223E-004
                    94  1.613082163165566E-004
                    95 -8.479955119755361E-005
                    96  1.972056867873324E-004
                    97  2.177839806228711E-005
                    98  0.000000000000000E+000
                    99  3.447191908786239E-004
                   100  3.785489789101432E-004
                   101  0.000000000000000E+000
                   102  6.174081262767019E-004
                   103 -1.760618801556806E-003
                   104  0.000000000000000E+000
                   105 -1.168706654672502E-005
                   106  0.000000000000000E+000
                   107  0.000000000000000E+000
                   108 -4.338952684130752E-005
                   109 -1.504541449870274E-005
                   110  8.500928580263404E-005
                   111  0.000000000000000E+000
                   112  0.000000000000000E+000
                   113 -1.630477666985468E-004
                   114  8.504829323641738E-005
                   115  0.000000000000000E+000
                   116 -1.930113582893557E-005
                   117 -2.252212955998424E-005
                   118  0.000000000000000E+000
                   119  0.000000000000000E+000
                   120 -1.175548623994501E-005
                   121 -3.748899568581202E-005
                   122 -2.456845618825321E-004
                   123 -6.153762584891751E-004
                   124  1.727534387592871E-004
                   125  3.034386222629747E-004
                   126 -3.047149841566605E-005
                   127 -3.132022902284162E-004
                   128  0.000000000000000E+000
                   129  2.311978641001618E-004
                   130  6.578832480407659E-004
                   131  0.000000000000000E+000
                   132  4.342947935865114E-004
                   133  2.015767971578348E-003
                   134  0.000000000000000E+000
                   135  1.446028256273913E-005
                   136  0.000000000000000E+000
                   137  0.000000000000000E+000
                   138  4.711644121225284E-005
                   139 -1.511023417531286E-006
                   140  2.064585420122676E-004
                   141  0.000000000000000E+000
                   142  0.000000000000000E+000
                   143  4.007244135871916E-004
                   144  2.314352966466906E-004
                   145  0.000000000000000E+000
                   146 -1.161457648212015E-005
                   147 -6.473532395736443E-005
                   148  0.000000000000000E+000
                   149  0.000000000000000E+000
                   150 -1.500712310507778E-005
                   151 -5.446822168708279E-005
                   152 -1.339835900298067E-004
                   153 -3.679852091447210E-004
                   154  5.471032788550353E-005
                   155  1.977087840349144E-004
                   156  4.678030805958393E-006
                   157 -8.790592385402226E-005
                   158  0.000000000000000E+000
                   159  8.926351598637927E-006
                   160  4.786386850488665E-005
                   161  0.000000000000000E+000
                   162  7.525436706111338E-004
                   163 -3.858854990554395E-004
                   164  0.000000000000000E+000
                   165  1.591089411205529E-006
                   166  0.000000000000000E+000
                   167  0.000000000000000E+000
                   168  2.151713590126880E-006
                   169  1.043730383465211E-005
                   170  1.040729476190452E-004
                   171  0.000000000000000E+000
                   172  0.000000000000000E+000
                   173  4.458917779274288E-005
                   174  3.283931034705594E-005
                   175  0.000000000000000E+000
                   176  3.662539881516382E-006
                   177 -1.334783802962610E-005
                   178  0.000000000000000E+000
                   179  0.000000000000000E+000
                   180 -2.370462429318469E-005
                   181 -2.852508418620928E-005
                   182 -1.390232570035441E-004
                   183 -4.076887848407913E-004
                   184  3.209977601997410E-005
                   185  2.079835566207908E-004
                   186 -4.665473441349106E-005
                   187 -6.192940109738326E-005
                   188  0.000000000000000E+000
                   189  2.646963213889548E-004
                   190  1.208428656729011E-004
                   191  0.000000000000000E+000
                   192  1.363882459292830E-003
                   193 -3.110958568060257E-004
                   194  0.000000000000000E+000
                   195  1.176496303314023E-006
                   196  0.000000000000000E+000
                   197  0.000000000000000E+000
                   198 -3.732651265643710E-006
                   199  4.307996914583422E-006
                   200 -9.360704936028330E-006
                   201  0.000000000000000E+000
                   202  0.000000000000000E+000
                   203 -6.983655198993450E-005
                   204 -2.053330597654453E-004
                   205  0.000000000000000E+000
                   206 -9.790446160034356E-006
                   207 -4.022998506036739E-006
                   208  0.000000000000000E+000
                   209  0.000000000000000E+000
                   210  8.208301002100379E-006
                   211 -4.501226887367381E-006
                   212 -4.175146383163131E-005
                   213  1.084596705881236E-004
                   214  2.170258985267684E-005
                   215  2.695408717383686E-005
                   216  0.000000000000000E+000
                   217 -8.848365319209492E-004
                   218 -6.118362682018488E-004
                   219 -2.405406731219200E-004
                   220  5.564681573284174E-005
                   221  0.000000000000000E+000
                   222 -2.115579151754013E-004
                   223 -6.222078121374684E-004
                   224  2.346180682539420E-005
                   225 -6.042593487690882E-005
                   226  0.000000000000000E+000
                   227  6.261475953254398E-005
                   228 -6.544563227578728E-004
                   229 -4.371459356722431E-005
                   230 -1.379852937745124E-005
                   231  0.000000000000000E+000
                   232  1.479076777940490E-005
                   233 -4.874570323785733E-004
                   234  1.269254721944442E-005
                   235 -4.069042067957098E-006
                   236  0.000000000000000E+000
                   237  3.124355350965410E-006
                   238 -3.608632754747718E-004
                   239 -6.923858682459189E-006
                   240 -2.255402721154515E-006
                   241  0.000000000000000E+000
                   242 -6.224487442096041E-005
                   243  9.099116260498653E-005
                   244 -1.261021350482462E-007
                   245  3.043811098400696E-005
                   246  0.000000000000000E+000
 Sym= __2_A'_
 Ene=  0.000000000000000E+000
 Spin= Alpha
 Occup=    2.00000000000000     
                     1  4.521379949173898E-005
                     2  3.099767678363444E-004
                     3 -3.419330633334355E-003
                     4 -1.085601987719892E-004
                     5 -1.393430310605823E-003
                     6  6.591053046488104E-004
                     7 -3.395551711182509E-003
                     8  0.000000000000000E+000
                     9  1.564677584658624E-005
                    10  1.032724741359319E-004
                    11  0.000000000000000E+000
                    12  1.893591541031822E-005
                    13  2.824838934727755E-004
                    14  0.000000000000000E+000
                    15 -2.149148343932248E-005
                    16  0.000000000000000E+000
                    17  0.000000000000000E+000
                    18  6.266946280741231E-005
                    19 -2.454598914256670E-005
                    20  1.311792727927377E-004
                    21  0.000000000000000E+000
                    22  0.000000000000000E+000
                    23 -7.023098059851771E-005
                    24  1.467978095186781E-004
                    25  0.000000000000000E+000
                    26  1.659925821461233E-005
                    27 -8.622728759568023E-005
                    28  0.000000000000000E+000
                    29  0.000000000000000E+000
                    30  6.513573444895417E-005
                    31 -1.399793206260675E-004
                    32  -1.00081763604823     
                    33 -9.235177948228720E-003
                    34 -2.810629823897000E-003
                    35  8.128154732792698E-003
                    36  2.577253665806113E-004
                    37  3.941440240431936E-003
                    38  0.000000000000000E+000
                    39  1.828097453203451E-004
                    40 -2.751390718662297E-004
                    41  0.000000000000000E+000
                    42  1.349348084720087E-004
                    43 -4.277983490660552E-003
                    44  0.000000000000000E+000
                    45  5.215748504480013E-004
                    46  0.000000000000000E+000
                    47  0.000000000000000E+000
                    48  2.150689551197302E-004
                    49 -3.481626765442641E-005
                    50 -5.537532826245460E-004
                    51  0.000000000000000E+000
                    52  0.000000000000000E+000
                    53  6.607032938275395E-004
                    54  4.528542281777128E-004
                    55  0.000000000000000E+000
                    56 -1.713146953453596E-005
                    57 -1.031355373715923E-004
                    58  0.000000000000000E+000
                    59  0.000000000000000E+000
                    60  2.434745879304323E-005
                    61 -3.797637138554487E-004
                    62 -1.359063669073217E-002
                    63  2.169811386050577E-003
                    64  2.211244115776224E-004
                    65 -2.677392381290657E-003
                    66  7.210909397944159E-005
                    67 -2.648891986615597E-004
                    68  0.000000000000000E+000
                    69 -4.926578091855303E-004
                    70 -1.689698451864762E-004
                    71  0.000000000000000E+000
                    72  2.121904375467922E-003
                    73 -2.528822398571410E-004
                    74  0.000000000000000E+000
                    75 -3.616635331546241E-005
                    76  0.000000000000000E+000
                    77  0.000000000000000E+000
                    78  2.012092417649128E-005
                    79 -3.544696434777766E-006
                    80  4.251425815906832E-004
                    81  0.000000000000000E+000
                    82  0.000000000000000E+000
                    83  6.810237307140732E-004
                    84  2.506121928687202E-004
                    85  0.000000000000000E+000
                    86 -3.043320180037736E-005
                    87  5.844658711576156E-005
                    88  0.000000000000000E+000
                    89  0.000000000000000E+000
                    90 -5.251204969668515E-005
                    91 -1.491835938229109E-004
                    92 -1.713971711605657E-002
                    93  2.250557285967851E-003
                    94  2.944709976492710E-004
                    95 -3.199552856429182E-003
                    96 -4.053953801747286E-004
                    97 -4.186706099284227E-004
                    98  0.000000000000000E+000
                    99  9.668630720197347E-004
                   100  1.634114647370537E-005
                   101  0.000000000000000E+000
                   102 -1.726388912236984E-003
                   103  3.976816434079905E-005
                   104  0.000000000000000E+000
                   105 -2.284543624368912E-005
                   106  0.000000000000000E+000
                   107  0.000000000000000E+000
                   108  1.825388864811600E-005
                   109 -1.124156357906920E-006
                   110  4.160661665313454E-004
                   111  0.000000000000000E+000
                   112  0.000000000000000E+000
                   113  3.909973802328672E-004
                   114 -2.307157482111328E-004
                   115  0.000000000000000E+000
                   116  3.246294416742935E-005
                   117  7.457003483109485E-005
                   118  0.000000000000000E+000
                   119  0.000000000000000E+000
                   120  3.475624190918510E-006
                   121 -1.368073348980979E-004
                   122 -5.446634805332833E-005
                   123  6.035836701268474E-004
                   124 -2.298423235676881E-004
                   125  1.252472054125135E-004
                   126 -2.030470507785722E-006
                   127  5.093890107550621E-004
                   128  0.000000000000000E+000
                   129  8.270339992743422E-005
                   130 -6.318144869984772E-004
                   131  0.000000000000000E+000
                   132 -3.639168325372880E-004
                   133 -9.618883286854167E-004
                   134  0.000000000000000E+000
                   135 -1.793507639584996E-005
                   136  0.000000000000000E+000
                   137  0.000000000000000E+000
                   138 -2.923787407969110E-007
                   139 -4.679135710029484E-005
                   140 -1.279691348968282E-004
                   141  0.000000000000000E+000
                   142  0.000000000000000E+000
                   143 -2.606875720687466E-004
                   144  9.447348236712776E-005
                   145  0.000000000000000E+000
                   146 -9.685172069244728E-006
                   147  3.619146200034691E-005
                   148  0.000000000000000E+000
                   149  0.000000000000000E+000
                   150  4.496442545106262E-005
                   151 -3.959053553303635E-005
                   152 -3.694503517648506E-004
                   153  5.549849045831593E-004
                   154 -2.284022991352964E-004
                   155  3.297627795401392E-005
                   156  5.316098050393537E-005
                   157  5.752506363999226E-004
                   158  0.000000000000000E+000
                   159 -1.409602411606271E-004
                   160 -5.524190474684253E-004