[Molden Format]
[Atoms] AU
  N     1    7     0.0088599900   -4.2725018000    0.0000000100        
  C     2    6     0.1143943300   -1.7339816800    0.0000000000        
  C     3    6    -2.2257662100   -0.3737079800    0.0000000100        
  C     4    6     2.4018065900   -0.2788272700   -0.0000000300        
  C     5    6    -2.2439812500    2.2078724700   -0.0000000100        
  C     6    6     2.3342884000    2.2991455900    0.0000000000        
  C     7    6     0.0231153400    3.5733432000    0.0000000000        
  H     8    1    -4.0647629800   -7.3447418300    0.0000000100        
  H     9    1     1.8188095500   -4.9964270100    0.0000000200        
  H    10    1    -3.9476673300   -1.4388691000    0.0000000100        
  H    11    1     4.1775953000   -1.2622614700   -0.0000000300        
  H    12    1    -4.0091743300    3.2089730500   -0.0000000300        
  H    13    1     4.0617364800    3.3642852600    0.0000000100        
  H    14    1    -0.0164860800    5.6010230100    0.0000000100        
[5D]
[7F]
[GTO]
  1  0
   s    12 1.00
  0.114200D+05  0.172695D-04
  0.171200D+04  0.134411D-03
  0.389300D+03  0.694561D-03
  0.110000D+03  0.278531D-02
  0.355700D+02  0.863457D-02
  0.125400D+02  0.199805D-01
  0.464400D+01  0.262908D-01
  0.129300D+01 -0.243845D-01
  0.511800D+00 -0.924934D-01
  0.178700D+00 -0.339683D+00
  0.246240D-01  0.345111D+00
  0.112530D-01  0.752750D+00
   s    10 1.00
  0.114200D+05  0.523000D-03
  0.171200D+04  0.404500D-02
  0.389300D+03  0.207750D-01
  0.110000D+03  0.807269D-01
  0.355700D+02  0.233074D+00
  0.125400D+02  0.433501D+00
  0.464400D+01  0.347472D+00
  0.129300D+01  0.412620D-01
  0.511800D+00 -0.850799D-02
  0.178700D+00  0.238400D-02
   s    10 1.00
  0.114200D+05 -0.115000D-03
  0.171200D+04 -0.895000D-03
  0.389300D+03 -0.462400D-02
  0.110000D+03 -0.185280D-01
  0.355700D+02 -0.573390D-01
  0.125400D+02 -0.132076D+00
  0.464400D+01 -0.172510D+00
  0.129300D+01  0.151814D+00
  0.511800D+00  0.599944D+00
  0.178700D+00  0.387462D+00
   s     1 1.00
  0.129300D+01  0.100000D+01
   s     1 1.00
  0.178700D+00  0.100000D+01
   p     5 1.00
  0.266300D+02  0.146700D-01
  0.594800D+01  0.917640D-01
  0.174200D+01  0.298683D+00
  0.555000D+00  0.498487D+00
  0.172500D+00  0.337023D+00
   p     1 1.00
  0.174200D+01  0.100000D+01
   p     1 1.00
  0.555000D+00  0.100000D+01
   d     1 1.00
  0.165400D+01  0.100000D+01
   d     1 1.00
  0.469000D+00  0.100000D+01
   f     1 1.00
  0.109300D+01  0.100000D+01
  
  2  0
   s    10 1.00
  0.823600D+04  0.531000D-03
  0.123500D+04  0.410800D-02
  0.280800D+03  0.210870D-01
  0.792700D+02  0.818530D-01
  0.255900D+02  0.234817D+00
  0.899700D+01  0.434401D+00
  0.331900D+01  0.346129D+00
  0.905900D+00  0.393780D-01
  0.364300D+00 -0.898300D-02
  0.128500D+00  0.238500D-02
   s    10 1.00
  0.823600D+04 -0.113000D-03
  0.123500D+04 -0.878000D-03
  0.280800D+03 -0.454000D-02
  0.792700D+02 -0.181330D-01
  0.255900D+02 -0.557600D-01
  0.899700D+01 -0.126895D+00
  0.331900D+01 -0.170352D+00
  0.905900D+00  0.140382D+00
  0.364300D+00  0.598684D+00
  0.128500D+00  0.395389D+00
   s     1 1.00
  0.905900D+00  0.100000D+01
   s     1 1.00
  0.364300D+00  0.100000D+01
   p     5 1.00
  0.187100D+02  0.140310D-01
  0.413300D+01  0.868660D-01
  0.120000D+01  0.290216D+00
  0.382700D+00  0.501008D+00
  0.120900D+00  0.343406D+00
   p     1 1.00
  0.382700D+00  0.100000D+01
   p     1 1.00
  0.120900D+00  0.100000D+01
   d     1 1.00
  0.109700D+01  0.100000D+01
   d     1 1.00
  0.318000D+00  0.100000D+01
   f     1 1.00
  0.761000D+00  0.100000D+01
  
  3  0
   s    10 1.00
  0.823600D+04  0.531000D-03
  0.123500D+04  0.410800D-02
  0.280800D+03  0.210870D-01
  0.792700D+02  0.818530D-01
  0.255900D+02  0.234817D+00
  0.899700D+01  0.434401D+00
  0.331900D+01  0.346129D+00
  0.905900D+00  0.393780D-01
  0.364300D+00 -0.898300D-02
  0.128500D+00  0.238500D-02
   s    10 1.00
  0.823600D+04 -0.113000D-03
  0.123500D+04 -0.878000D-03
  0.280800D+03 -0.454000D-02
  0.792700D+02 -0.181330D-01
  0.255900D+02 -0.557600D-01
  0.899700D+01 -0.126895D+00
  0.331900D+01 -0.170352D+00
  0.905900D+00  0.140382D+00
  0.364300D+00  0.598684D+00
  0.128500D+00  0.395389D+00
   s     1 1.00
  0.905900D+00  0.100000D+01
   s     1 1.00
  0.364300D+00  0.100000D+01
   p     5 1.00
  0.187100D+02  0.140310D-01
  0.413300D+01  0.868660D-01
  0.120000D+01  0.290216D+00
  0.382700D+00  0.501008D+00
  0.120900D+00  0.343406D+00
   p     1 1.00
  0.382700D+00  0.100000D+01
   p     1 1.00
  0.120900D+00  0.100000D+01
   d     1 1.00
  0.109700D+01  0.100000D+01
   d     1 1.00
  0.318000D+00  0.100000D+01
   f     1 1.00
  0.761000D+00  0.100000D+01
  
  4  0
   s    10 1.00
  0.823600D+04  0.531000D-03
  0.123500D+04  0.410800D-02
  0.280800D+03  0.210870D-01
  0.792700D+02  0.818530D-01
  0.255900D+02  0.234817D+00
  0.899700D+01  0.434401D+00
  0.331900D+01  0.346129D+00
  0.905900D+00  0.393780D-01
  0.364300D+00 -0.898300D-02
  0.128500D+00  0.238500D-02
   s    10 1.00
  0.823600D+04 -0.113000D-03
  0.123500D+04 -0.878000D-03
  0.280800D+03 -0.454000D-02
  0.792700D+02 -0.181330D-01
  0.255900D+02 -0.557600D-01
  0.899700D+01 -0.126895D+00
  0.331900D+01 -0.170352D+00
  0.905900D+00  0.140382D+00
  0.364300D+00  0.598684D+00
  0.128500D+00  0.395389D+00
   s     1 1.00
  0.905900D+00  0.100000D+01
   s     1 1.00
  0.364300D+00  0.100000D+01
   p     5 1.00
  0.187100D+02  0.140310D-01
  0.413300D+01  0.868660D-01
  0.120000D+01  0.290216D+00
  0.382700D+00  0.501008D+00
  0.120900D+00  0.343406D+00
   p     1 1.00
  0.382700D+00  0.100000D+01
   p     1 1.00
  0.120900D+00  0.100000D+01
   d     1 1.00
  0.109700D+01  0.100000D+01
   d     1 1.00
  0.318000D+00  0.100000D+01
   f     1 1.00
  0.761000D+00  0.100000D+01
  
  5  0
   s    10 1.00
  0.823600D+04  0.531000D-03
  0.123500D+04  0.410800D-02
  0.280800D+03  0.210870D-01
  0.792700D+02  0.818530D-01
  0.255900D+02  0.234817D+00
  0.899700D+01  0.434401D+00
  0.331900D+01  0.346129D+00
  0.905900D+00  0.393780D-01
  0.364300D+00 -0.898300D-02
  0.128500D+00  0.238500D-02
   s    10 1.00
  0.823600D+04 -0.113000D-03
  0.123500D+04 -0.878000D-03
  0.280800D+03 -0.454000D-02
  0.792700D+02 -0.181330D-01
  0.255900D+02 -0.557600D-01
  0.899700D+01 -0.126895D+00
  0.331900D+01 -0.170352D+00
  0.905900D+00  0.140382D+00
  0.364300D+00  0.598684D+00
  0.128500D+00  0.395389D+00
   s     1 1.00
  0.905900D+00  0.100000D+01
   s     1 1.00
  0.364300D+00  0.100000D+01
   p     5 1.00
  0.187100D+02  0.140310D-01
  0.413300D+01  0.868660D-01
  0.120000D+01  0.290216D+00
  0.382700D+00  0.501008D+00
  0.120900D+00  0.343406D+00
   p     1 1.00
  0.382700D+00  0.100000D+01
   p     1 1.00
  0.120900D+00  0.100000D+01
   d     1 1.00
  0.109700D+01  0.100000D+01
   d     1 1.00
  0.318000D+00  0.100000D+01
   f     1 1.00
  0.761000D+00  0.100000D+01
  
  6  0
   s    10 1.00
  0.823600D+04  0.531000D-03
  0.123500D+04  0.410800D-02
  0.280800D+03  0.210870D-01
  0.792700D+02  0.818530D-01
  0.255900D+02  0.234817D+00
  0.899700D+01  0.434401D+00
  0.331900D+01  0.346129D+00
  0.905900D+00  0.393780D-01
  0.364300D+00 -0.898300D-02
  0.128500D+00  0.238500D-02
   s    10 1.00
  0.823600D+04 -0.113000D-03
  0.123500D+04 -0.878000D-03
  0.280800D+03 -0.454000D-02
  0.792700D+02 -0.181330D-01
  0.255900D+02 -0.557600D-01
  0.899700D+01 -0.126895D+00
  0.331900D+01 -0.170352D+00
  0.905900D+00  0.140382D+00
  0.364300D+00  0.598684D+00
  0.128500D+00  0.395389D+00
   s     1 1.00
  0.905900D+00  0.100000D+01
   s     1 1.00
  0.364300D+00  0.100000D+01
   p     5 1.00
  0.187100D+02  0.140310D-01
  0.413300D+01  0.868660D-01
  0.120000D+01  0.290216D+00
  0.382700D+00  0.501008D+00
  0.120900D+00  0.343406D+00
   p     1 1.00
  0.382700D+00  0.100000D+01
   p     1 1.00
  0.120900D+00  0.100000D+01
   d     1 1.00
  0.109700D+01  0.100000D+01
   d     1 1.00
  0.318000D+00  0.100000D+01
   f     1 1.00
  0.761000D+00  0.100000D+01
  
  7  0
   s    10 1.00
  0.823600D+04  0.531000D-03
  0.123500D+04  0.410800D-02
  0.280800D+03  0.210870D-01
  0.792700D+02  0.818530D-01
  0.255900D+02  0.234817D+00
  0.899700D+01  0.434401D+00
  0.331900D+01  0.346129D+00
  0.905900D+00  0.393780D-01
  0.364300D+00 -0.898300D-02
  0.128500D+00  0.238500D-02
   s    10 1.00
  0.823600D+04 -0.113000D-03
  0.123500D+04 -0.878000D-03
  0.280800D+03 -0.454000D-02
  0.792700D+02 -0.181330D-01
  0.255900D+02 -0.557600D-01
  0.899700D+01 -0.126895D+00
  0.331900D+01 -0.170352D+00
  0.905900D+00  0.140382D+00
  0.364300D+00  0.598684D+00
  0.128500D+00  0.395389D+00
   s     1 1.00
  0.905900D+00  0.100000D+01
   s     1 1.00
  0.364300D+00  0.100000D+01
   p     5 1.00
  0.187100D+02  0.140310D-01
  0.413300D+01  0.868660D-01
  0.120000D+01  0.290216D+00
  0.382700D+00  0.501008D+00
  0.120900D+00  0.343406D+00
   p     1 1.00
  0.382700D+00  0.100000D+01
   p     1 1.00
  0.120900D+00  0.100000D+01
   d     1 1.00
  0.109700D+01  0.100000D+01
   d     1 1.00
  0.318000D+00  0.100000D+01
   f     1 1.00
  0.761000D+00  0.100000D+01
  
  8  0
   s     4 1.00
  0.130100D+02  0.196850D-01
  0.196200D+01  0.137977D+00
  0.444600D+00  0.478148D+00
  0.122000D+00  0.501240D+00
   s     1 1.00
  0.122000D+00  0.100000D+01
   p     1 1.00
  0.727000D+00  0.100000D+01
  
  9  0
   s     4 1.00
  0.130100D+02  0.196850D-01
  0.196200D+01  0.137977D+00
  0.444600D+00  0.478148D+00
  0.122000D+00  0.501240D+00
   s     1 1.00
  0.122000D+00  0.100000D+01
   p     1 1.00
  0.727000D+00  0.100000D+01
  
 10  0
   s     4 1.00
  0.130100D+02  0.196850D-01
  0.196200D+01  0.137977D+00
  0.444600D+00  0.478148D+00
  0.122000D+00  0.501240D+00
   s     1 1.00
  0.122000D+00  0.100000D+01
   p     1 1.00
  0.727000D+00  0.100000D+01
  
 11  0
   s     4 1.00
  0.130100D+02  0.196850D-01
  0.196200D+01  0.137977D+00
  0.444600D+00  0.478148D+00
  0.122000D+00  0.501240D+00
   s     1 1.00
  0.122000D+00  0.100000D+01
   p     1 1.00
  0.727000D+00  0.100000D+01
  
 12  0
   s     4 1.00
  0.130100D+02  0.196850D-01
  0.196200D+01  0.137977D+00
  0.444600D+00  0.478148D+00
  0.122000D+00  0.501240D+00
   s     1 1.00
  0.122000D+00  0.100000D+01
   p     1 1.00
  0.727000D+00  0.100000D+01
  
 13  0
   s     4 1.00
  0.130100D+02  0.196850D-01
  0.196200D+01  0.137977D+00
  0.444600D+00  0.478148D+00
  0.122000D+00  0.501240D+00
   s     1 1.00
  0.122000D+00  0.100000D+01
   p     1 1.00
  0.727000D+00  0.100000D+01
  
 14  0
   s     4 1.00
  0.130100D+02  0.196850D-01
  0.196200D+01  0.137977D+00
  0.444600D+00  0.478148D+00
  0.122000D+00  0.501240D+00
   s     1 1.00
  0.122000D+00  0.100000D+01
   p     1 1.00
  0.727000D+00  0.100000D+01
  
[MO]
 Sym= __1_A'_
 Ene=   1.00000000000000     
 Spin= Alpha
 Occup=    1.00000000000000     
                     1  1.028584328915125E-004
                     2  0.998353391346676     
                     3 -2.869603726107437E-003
                     4  1.840458175826198E-003
                     5  6.537005539471689E-003
                     6  2.802246465661784E-003
                     7  5.889063216253155E-003
                     8  0.000000000000000E+000
                     9 -7.119245739893607E-004
                    10 -7.410988852512776E-004
                    11  0.000000000000000E+000
                    12 -2.479636452337053E-003
                    13 -1.952961705530812E-003
                    14  0.000000000000000E+000
                    15 -3.170465755326421E-005
                    16  0.000000000000000E+000
                    17  0.000000000000000E+000
                    18 -1.535553666763440E-004
                    19 -6.407124894135394E-005
                    20  9.302108516018801E-005
                    21  0.000000000000000E+000
                    22  0.000000000000000E+000
                    23 -2.160248154526924E-004
                    24  4.994938983903429E-004
                    25  0.000000000000000E+000
                    26 -4.820228956792617E-006
                    27 -4.895923026825690E-005
                    28  0.000000000000000E+000
                    29  0.000000000000000E+000
                    30  3.373781924807232E-005
                    31 -1.094896151536971E-004
                    32 -3.544887765501494E-004
                    33  1.421996627733864E-004
                    34  3.266480331791809E-004
                    35 -1.284684044566191E-004
                    36 -6.941109321233296E-005
                    37 -2.536733487090969E-003
                    38  0.000000000000000E+000
                    39  3.733888221594054E-004
                    40  2.067072882118968E-004
                    41  0.000000000000000E+000
                    42 -2.153626607897148E-003
                    43  5.006749499792294E-003
                    44  0.000000000000000E+000
                    45  7.556693581496496E-006
                    46  0.000000000000000E+000
                    47  0.000000000000000E+000
                    48 -1.238738580419969E-004
                    49  1.256989388525203E-005
                    50 -1.950709073804389E-004
                    51  0.000000000000000E+000
                    52  0.000000000000000E+000
                    53  2.069787232085922E-005
                    54  7.827054764019056E-004
                    55  0.000000000000000E+000
                    56 -3.080271412276939E-006
                    57 -7.572313025795565E-005
                    58  0.000000000000000E+000
                    59  0.000000000000000E+000
                    60  1.750314769032943E-005
                    61 -1.302872014175741E-004
                    62 -5.483056282296237E-004
                    63 -2.156536515158435E-003
                    64 -9.057564956355809E-005
                    65  2.248408422522223E-003
                    66 -4.517738166260001E-004
                    67  1.053936087113772E-004
                    68  0.000000000000000E+000
                    69  3.838246879283529E-004
                    70  8.967854626524273E-004
                    71  0.000000000000000E+000
                    72 -1.805837820093517E-003
                    73  6.862474517109493E-004
                    74  0.000000000000000E+000
                    75 -4.544299342714707E-005
                    76  0.000000000000000E+000
                    77  0.000000000000000E+000
                    78 -6.000070334993296E-005
                    79 -2.388171478958513E-005
                    80 -1.347324171811455E-004
                    81  0.000000000000000E+000
                    82  0.000000000000000E+000
                    83  3.015006420475748E-005
                    84  5.790436781392079E-006
                    85  0.000000000000000E+000
                    86  9.656803208482569E-006
                    87 -4.655235054883200E-005
                    88  0.000000000000000E+000
                    89  0.000000000000000E+000
                    90 -2.911316412625312E-005
                    91 -1.558913432467267E-004
                    92 -1.762725687614882E-004
                    93 -6.373111234888279E-004
                    94  1.613082163452193E-004
                    95 -8.479955142522723E-005
                    96  1.972056812845668E-004
                    97  2.177838212438415E-005
                    98  0.000000000000000E+000
                    99  3.447191912857114E-004
                   100  3.785489806753438E-004
                   101  0.000000000000000E+000
                   102  6.174081285956932E-004
                   103 -1.760618797967301E-003
                   104  0.000000000000000E+000
                   105 -1.168706660419212E-005
                   106  0.000000000000000E+000
                   107  0.000000000000000E+000
                   108 -4.338952640100814E-005
                   109 -1.504541421136872E-005
                   110  8.500928571496978E-005
                   111  0.000000000000000E+000
                   112  0.000000000000000E+000
                   113 -1.630477667788752E-004
                   114  8.504829370463130E-005
                   115  0.000000000000000E+000
                   116 -1.930113577743630E-005
                   117 -2.252212943868491E-005
                   118  0.000000000000000E+000
                   119  0.000000000000000E+000
                   120 -1.175548627062308E-005
                   121 -3.748899571944998E-005
                   122 -2.456845618911553E-004
                   123 -6.153762627655575E-004
                   124  1.727534389310799E-004
                   125  3.034386224146901E-004
                   126 -3.047149885265036E-005
                   127 -3.132022828261454E-004
                   128  0.000000000000000E+000
                   129  2.311978644034998E-004
                   130  6.578832479605227E-004
                   131  0.000000000000000E+000
                   132  4.342947946255571E-004
                   133  2.015767972572018E-003
                   134  0.000000000000000E+000
                   135  1.446028264463615E-005
                   136  0.000000000000000E+000
                   137  0.000000000000000E+000
                   138  4.711644141031424E-005
                   139 -1.511023388465102E-006
                   140  2.064585421442196E-004
                   141  0.000000000000000E+000
                   142  0.000000000000000E+000
                   143  4.007244140822670E-004
                   144  2.314352967000165E-004
                   145  0.000000000000000E+000
                   146 -1.161457647675223E-005
                   147 -6.473532403181127E-005
                   148  0.000000000000000E+000
                   149  0.000000000000000E+000
                   150 -1.500712310423626E-005
                   151 -5.446822177477693E-005
                   152 -1.339835902111669E-004
                   153 -3.679852163270446E-004
                   154  5.471032810016222E-005
                   155  1.977087842808573E-004
                   156  4.678033570730036E-006
                   157 -8.790591314211908E-005
                   158  0.000000000000000E+000
                   159  8.926351287035302E-006
                   160  4.786386798155453E-005
                   161  0.000000000000000E+000
                   162  7.525436705677425E-004
                   163 -3.858855002534134E-004
                   164  0.000000000000000E+000
                   165  1.591089546650358E-006
                   166  0.000000000000000E+000
                   167  0.000000000000000E+000
                   168  2.151713908872546E-006
                   169  1.043730401943349E-005
                   170  1.040729478401384E-004
                   171  0.000000000000000E+000
                   172  0.000000000000000E+000
                   173  4.458917814520036E-005
                   174  3.283931044266657E-005
                   175  0.000000000000000E+000
                   176  3.662539862788557E-006
                   177 -1.334783811648710E-005
                   178  0.000000000000000E+000
                   179  0.000000000000000E+000
                   180 -2.370462434080873E-005
                   181 -2.852508432187068E-005
                   182 -1.390232570043104E-004
                   183 -4.076887853314991E-004
                   184  3.209977604533968E-005
                   185  2.079835567831860E-004
                   186 -4.665473578531285E-005
                   187 -6.192940112554075E-005
                   188  0.000000000000000E+000
                   189  2.646963215554845E-004
                   190  1.208428658923769E-004
                   191  0.000000000000000E+000
                   192  1.363882460509863E-003
                   193 -3.110958580585937E-004
                   194  0.000000000000000E+000
                   195  1.176496325513419E-006
                   196  0.000000000000000E+000
                   197  0.000000000000000E+000
                   198 -3.732651062875478E-006
                   199  4.307996984851439E-006
                   200 -9.360705048056725E-006
                   201  0.000000000000000E+000
                   202  0.000000000000000E+000
                   203 -6.983655188661915E-005
                   204 -2.053330598007166E-004
                   205  0.000000000000000E+000
                   206 -9.790446157836497E-006
                   207 -4.022998516914737E-006
                   208  0.000000000000000E+000
                   209  0.000000000000000E+000
                   210  8.208300999348391E-006
                   211 -4.501226917980772E-006
                   212 -4.175146381644973E-005
                   213  1.084596707873748E-004
                   214  2.170258986751144E-005
                   215  2.695408719125020E-005
                   216  0.000000000000000E+000
                   217 -8.848365284221864E-004
                   218 -6.118362694792662E-004
                   219 -2.405406733802546E-004
                   220  5.564681591857322E-005
                   221  0.000000000000000E+000
                   222 -2.115579058547173E-004
                   223 -6.222078160483778E-004
                   224  2.346180736629571E-005
                   225 -6.042593467948595E-005
                   226  0.000000000000000E+000
                   227  6.261476357554303E-005
                   228 -6.544563250000011E-004
                   229 -4.371459391635722E-005
                   230 -1.379852943720110E-005
                   231  0.000000000000000E+000
                   232  1.479076977610660E-005
                   233 -4.874570331930710E-004
                   234  1.269254733587993E-005
                   235 -4.069042036949644E-006
                   236  0.000000000000000E+000
                   237  3.124360860293728E-006
                   238 -3.608632769409246E-004
                   239 -6.923858931515902E-006
                   240 -2.255402733477003E-006
                   241  0.000000000000000E+000
                   242 -6.224487600707310E-005
                   243  9.099116269718946E-005
                   244 -1.261021483495113E-007
                   245  3.043811106598745E-005
                   246  0.000000000000000E+000
 Sym= __2_A'_
 Ene=   2.00000000000000     
 Spin= Alpha
 Occup=    1.00000000000000     
                     1  4.521379934679188E-005
                     2  3.099767603033163E-004
                     3 -3.419330641694906E-003
                     4 -1.085601986234757E-004
                     5 -1.393430309507347E-003
                     6  6.591053007091255E-004
                     7 -3.395551714120717E-003
                     8  0.000000000000000E+000
                     9  1.564677560427603E-005
                    10  1.032724740229855E-004
                    11  0.000000000000000E+000
                    12  1.893591553694712E-005
                    13  2.824838930369233E-004
                    14  0.000000000000000E+000
                    15 -2.149148330418409E-005
                    16  0.000000000000000E+000
                    17  0.000000000000000E+000
                    18  6.266946286497507E-005
                    19 -2.454598918718208E-005
                    20  1.311792731167274E-004
                    21  0.000000000000000E+000
                    22  0.000000000000000E+000
                    23 -7.023097997672861E-005
                    24  1.467978089521013E-004
                    25  0.000000000000000E+000
                    26  1.659925826156423E-005
                    27 -8.622728748238669E-005
                    28  0.000000000000000E+000
                    29  0.000000000000000E+000
                    30  6.513573439423213E-005
                    31 -1.399793205281369E-004
                    32  -1.00081763604790     
                    33 -9.235177979717854E-003
                    34 -2.810629823674492E-003
                    35  8.128154734985887E-003
                    36  2.577253526051724E-004
                    37  3.941440234944274E-003
                    38  0.000000000000000E+000
                    39  1.828097453721713E-004
                    40 -2.751390728571032E-004
                    41  0.000000000000000E+000
                    42  1.349348132939523E-004
                    43 -4.277983493127576E-003
                    44  0.000000000000000E+000
                    45  5.215748509300366E-004
                    46  0.000000000000000E+000
                    47  0.000000000000000E+000
                    48  2.150689547040216E-004
                    49 -3.481626804123681E-005
                    50 -5.537532816753707E-004
                    51  0.000000000000000E+000
                    52  0.000000000000000E+000
                    53  6.607032931036586E-004
                    54  4.528542274201103E-004
                    55  0.000000000000000E+000
                    56 -1.713146942086386E-005
                    57 -1.031355372730046E-004
                    58  0.000000000000000E+000
                    59  0.000000000000000E+000
                    60  2.434745870563573E-005
                    61 -3.797637143804831E-004
                    62 -1.359063657839127E-002
                    63  2.169811385702881E-003
                    64  2.211244118254350E-004
                    65 -2.677392382937601E-003
                    66  7.210909604830327E-005
                    67 -2.648891855087061E-004
                    68  0.000000000000000E+000
                    69 -4.926578097543816E-004
                    70 -1.689698475584327E-004
                    71  0.000000000000000E+000
                    72  2.121904379794403E-003
                    73 -2.528822445459990E-004
                    74  0.000000000000000E+000
                    75 -3.616635330640035E-005
                    76  0.000000000000000E+000
                    77  0.000000000000000E+000
                    78  2.012092365982460E-005
                    79 -3.544696534636846E-006
                    80  4.251425816634082E-004
                    81  0.000000000000000E+000
                    82  0.000000000000000E+000
                    83  6.810237306146452E-004
                    84  2.506121933302614E-004
                    85  0.000000000000000E+000
                    86 -3.043320177519589E-005
                    87  5.844658705760185E-005
                    88  0.000000000000000E+000
                    89  0.000000000000000E+000
                    90 -5.251204964888020E-005
                    91 -1.491835938256794E-004
                    92 -1.713971717981815E-002
                    93  2.250557278631911E-003
                    94  2.944709974737755E-004
                    95 -3.199552855588966E-003
                    96 -4.053953639243310E-004
                    97 -4.186705877359872E-004
                    98  0.000000000000000E+000
                    99  9.668630706316763E-004
                   100  1.634114400875888E-005
                   101  0.000000000000000E+000
                   102 -1.726388917019526E-003
                   103  3.976815937538422E-005
                   104  0.000000000000000E+000
                   105 -2.284543608458194E-005
                   106  0.000000000000000E+000
                   107  0.000000000000000E+000
                   108  1.825388807583975E-005
                   109 -1.124157000793114E-006
                   110  4.160661667766967E-004
                   111  0.000000000000000E+000
                   112  0.000000000000000E+000
                   113  3.909973802352594E-004
                   114 -2.307157487161430E-004
                   115  0.000000000000000E+000
                   116  3.246294404566596E-005
                   117  7.457003464884141E-005
                   118  0.000000000000000E+000
                   119  0.000000000000000E+000
                   120  3.475624261784178E-006
                   121 -1.368073347762165E-004
                   122 -5.446637370256009E-005
                   123  6.035836761686266E-004
                   124 -2.298423239454759E-004
                   125  1.252472054299436E-004
                   126 -2.030470437564909E-006
                   127  5.093890006454738E-004
                   128  0.000000000000000E+000
                   129  8.270339967809731E-005
                   130 -6.318144869437402E-004
                   131  0.000000000000000E+000
                   132 -3.639168337997577E-004
                   133 -9.618883303053566E-004
                   134  0.000000000000000E+000
                   135 -1.793507648953183E-005
                   136  0.000000000000000E+000
                   137  0.000000000000000E+000
                   138 -2.923790220512022E-007
                   139 -4.679135714769850E-005
                   140 -1.279691351728640E-004
                   141  0.000000000000000E+000
                   142  0.000000000000000E+000
                   143 -2.606875728369660E-004
                   144  9.447348235148936E-005
                   145  0.000000000000000E+000
                   146 -9.685172080758866E-006
                   147  3.619146210135523E-005
                   148  0.000000000000000E+000
                   149  0.000000000000000E+000
                   150  4.496442545860158E-005
                   151 -3.959053542842717E-005
                   152 -3.694503668376891E-004
                   153  5.549849139541373E-004
                   154 -2.284022994654370E-004
                   155  3.297627748195582E-005
                   156  5.316097850045683E-005
                   157  5.752506227342403E-004
                   158  0.000000000000000E+000
                   159 -1.409602409443539E-004
                   160 -5.524190468259065E-004