[Molden Format]
[Atoms] AU
  N     1    7     0.0000000000    0.0000000000   -4.3829337700        
  C     2    6     0.0000000000    0.0000000000   -1.7593156300        
  C     3    6     0.0000000000   -2.2737499100   -0.4007373600        
  C     4    6     0.0000000000    2.2737499100   -0.4007373600        
  C     5    6     0.0000000000   -2.2543437700    2.2172435800        
  C     6    6     0.0000000000    2.2543437700    2.2172435800        
  C     7    6     0.0000000000    0.0000000000    3.5500473800        
  H     8    1     0.0000000000   -1.6386575800   -5.3489091500        
  H     9    1     0.0000000000    1.6386575800   -5.3489091500        
  H    10    1     0.0000000000   -4.0402001000   -1.3989337800        
  H    11    1     0.0000000000    4.0402001000   -1.3989337800        
  H    12    1     0.0000000000   -4.0211451400    3.2165913200        
  H    13    1     0.0000000000    4.0211451400    3.2165913200        
  H    14    1     0.0000000000    0.0000000000    5.5775533300        
[5D]
[7F]
[GTO]
  1  0
   s    12 1.00
  0.114200D+05  0.172695D-04
  0.171200D+04  0.134411D-03
  0.389300D+03  0.694561D-03
  0.110000D+03  0.278531D-02
  0.355700D+02  0.863457D-02
  0.125400D+02  0.199805D-01
  0.464400D+01  0.262908D-01
  0.129300D+01 -0.243845D-01
  0.511800D+00 -0.924934D-01
  0.178700D+00 -0.339683D+00
  0.246240D-01  0.345111D+00
  0.112530D-01  0.752750D+00
   s    10 1.00
  0.114200D+05  0.523000D-03
  0.171200D+04  0.404500D-02
  0.389300D+03  0.207750D-01
  0.110000D+03  0.807269D-01
  0.355700D+02  0.233074D+00
  0.125400D+02  0.433501D+00
  0.464400D+01  0.347472D+00
  0.129300D+01  0.412620D-01
  0.511800D+00 -0.850799D-02
  0.178700D+00  0.238400D-02
   s    10 1.00
  0.114200D+05 -0.115000D-03
  0.171200D+04 -0.895000D-03
  0.389300D+03 -0.462400D-02
  0.110000D+03 -0.185280D-01
  0.355700D+02 -0.573390D-01
  0.125400D+02 -0.132076D+00
  0.464400D+01 -0.172510D+00
  0.129300D+01  0.151814D+00
  0.511800D+00  0.599944D+00
  0.178700D+00  0.387462D+00
   s     1 1.00
  0.129300D+01  0.100000D+01
   s     1 1.00
  0.178700D+00  0.100000D+01
   p     5 1.00
  0.266300D+02  0.146700D-01
  0.594800D+01  0.917640D-01
  0.174200D+01  0.298683D+00
  0.555000D+00  0.498487D+00
  0.172500D+00  0.337023D+00
   p     1 1.00
  0.174200D+01  0.100000D+01
   p     1 1.00
  0.555000D+00  0.100000D+01
   d     1 1.00
  0.165400D+01  0.100000D+01
   d     1 1.00
  0.469000D+00  0.100000D+01
   f     1 1.00
  0.109300D+01  0.100000D+01
  
  2  0
   s    10 1.00
  0.823600D+04  0.531000D-03
  0.123500D+04  0.410800D-02
  0.280800D+03  0.210870D-01
  0.792700D+02  0.818530D-01
  0.255900D+02  0.234817D+00
  0.899700D+01  0.434401D+00
  0.331900D+01  0.346129D+00
  0.905900D+00  0.393780D-01
  0.364300D+00 -0.898300D-02
  0.128500D+00  0.238500D-02
   s    10 1.00
  0.823600D+04 -0.113000D-03
  0.123500D+04 -0.878000D-03
  0.280800D+03 -0.454000D-02
  0.792700D+02 -0.181330D-01
  0.255900D+02 -0.557600D-01
  0.899700D+01 -0.126895D+00
  0.331900D+01 -0.170352D+00
  0.905900D+00  0.140382D+00
  0.364300D+00  0.598684D+00
  0.128500D+00  0.395389D+00
   s     1 1.00
  0.905900D+00  0.100000D+01
   s     1 1.00
  0.364300D+00  0.100000D+01
   p     5 1.00
  0.187100D+02  0.140310D-01
  0.413300D+01  0.868660D-01
  0.120000D+01  0.290216D+00
  0.382700D+00  0.501008D+00
  0.120900D+00  0.343406D+00
   p     1 1.00
  0.382700D+00  0.100000D+01
   p     1 1.00
  0.120900D+00  0.100000D+01
   d     1 1.00
  0.109700D+01  0.100000D+01
   d     1 1.00
  0.318000D+00  0.100000D+01
   f     1 1.00
  0.761000D+00  0.100000D+01
  
  3  0
   s    10 1.00
  0.823600D+04  0.531000D-03
  0.123500D+04  0.410800D-02
  0.280800D+03  0.210870D-01
  0.792700D+02  0.818530D-01
  0.255900D+02  0.234817D+00
  0.899700D+01  0.434401D+00
  0.331900D+01  0.346129D+00
  0.905900D+00  0.393780D-01
  0.364300D+00 -0.898300D-02
  0.128500D+00  0.238500D-02
   s    10 1.00
  0.823600D+04 -0.113000D-03
  0.123500D+04 -0.878000D-03
  0.280800D+03 -0.454000D-02
  0.792700D+02 -0.181330D-01
  0.255900D+02 -0.557600D-01
  0.899700D+01 -0.126895D+00
  0.331900D+01 -0.170352D+00
  0.905900D+00  0.140382D+00
  0.364300D+00  0.598684D+00
  0.128500D+00  0.395389D+00
   s     1 1.00
  0.905900D+00  0.100000D+01
   s     1 1.00
  0.364300D+00  0.100000D+01
   p     5 1.00
  0.187100D+02  0.140310D-01
  0.413300D+01  0.868660D-01
  0.120000D+01  0.290216D+00
  0.382700D+00  0.501008D+00
  0.120900D+00  0.343406D+00
   p     1 1.00
  0.382700D+00  0.100000D+01
   p     1 1.00
  0.120900D+00  0.100000D+01
   d     1 1.00
  0.109700D+01  0.100000D+01
   d     1 1.00
  0.318000D+00  0.100000D+01
   f     1 1.00
  0.761000D+00  0.100000D+01
  
  4  0
   s    10 1.00
  0.823600D+04  0.531000D-03
  0.123500D+04  0.410800D-02
  0.280800D+03  0.210870D-01
  0.792700D+02  0.818530D-01
  0.255900D+02  0.234817D+00
  0.899700D+01  0.434401D+00
  0.331900D+01  0.346129D+00
  0.905900D+00  0.393780D-01
  0.364300D+00 -0.898300D-02
  0.128500D+00  0.238500D-02
   s    10 1.00
  0.823600D+04 -0.113000D-03
  0.123500D+04 -0.878000D-03
  0.280800D+03 -0.454000D-02
  0.792700D+02 -0.181330D-01
  0.255900D+02 -0.557600D-01
  0.899700D+01 -0.126895D+00
  0.331900D+01 -0.170352D+00
  0.905900D+00  0.140382D+00
  0.364300D+00  0.598684D+00
  0.128500D+00  0.395389D+00
   s     1 1.00
  0.905900D+00  0.100000D+01
   s     1 1.00
  0.364300D+00  0.100000D+01
   p     5 1.00
  0.187100D+02  0.140310D-01
  0.413300D+01  0.868660D-01
  0.120000D+01  0.290216D+00
  0.382700D+00  0.501008D+00
  0.120900D+00  0.343406D+00
   p     1 1.00
  0.382700D+00  0.100000D+01
   p     1 1.00
  0.120900D+00  0.100000D+01
   d     1 1.00
  0.109700D+01  0.100000D+01
   d     1 1.00
  0.318000D+00  0.100000D+01
   f     1 1.00
  0.761000D+00  0.100000D+01
  
  5  0
   s    10 1.00
  0.823600D+04  0.531000D-03
  0.123500D+04  0.410800D-02
  0.280800D+03  0.210870D-01
  0.792700D+02  0.818530D-01
  0.255900D+02  0.234817D+00
  0.899700D+01  0.434401D+00
  0.331900D+01  0.346129D+00
  0.905900D+00  0.393780D-01
  0.364300D+00 -0.898300D-02
  0.128500D+00  0.238500D-02
   s    10 1.00
  0.823600D+04 -0.113000D-03
  0.123500D+04 -0.878000D-03
  0.280800D+03 -0.454000D-02
  0.792700D+02 -0.181330D-01
  0.255900D+02 -0.557600D-01
  0.899700D+01 -0.126895D+00
  0.331900D+01 -0.170352D+00
  0.905900D+00  0.140382D+00
  0.364300D+00  0.598684D+00
  0.128500D+00  0.395389D+00
   s     1 1.00
  0.905900D+00  0.100000D+01
   s     1 1.00
  0.364300D+00  0.100000D+01
   p     5 1.00
  0.187100D+02  0.140310D-01
  0.413300D+01  0.868660D-01
  0.120000D+01  0.290216D+00
  0.382700D+00  0.501008D+00
  0.120900D+00  0.343406D+00
   p     1 1.00
  0.382700D+00  0.100000D+01
   p     1 1.00
  0.120900D+00  0.100000D+01
   d     1 1.00
  0.109700D+01  0.100000D+01
   d     1 1.00
  0.318000D+00  0.100000D+01
   f     1 1.00
  0.761000D+00  0.100000D+01
  
  6  0
   s    10 1.00
  0.823600D+04  0.531000D-03
  0.123500D+04  0.410800D-02
  0.280800D+03  0.210870D-01
  0.792700D+02  0.818530D-01
  0.255900D+02  0.234817D+00
  0.899700D+01  0.434401D+00
  0.331900D+01  0.346129D+00
  0.905900D+00  0.393780D-01
  0.364300D+00 -0.898300D-02
  0.128500D+00  0.238500D-02
   s    10 1.00
  0.823600D+04 -0.113000D-03
  0.123500D+04 -0.878000D-03
  0.280800D+03 -0.454000D-02
  0.792700D+02 -0.181330D-01
  0.255900D+02 -0.557600D-01
  0.899700D+01 -0.126895D+00
  0.331900D+01 -0.170352D+00
  0.905900D+00  0.140382D+00
  0.364300D+00  0.598684D+00
  0.128500D+00  0.395389D+00
   s     1 1.00
  0.905900D+00  0.100000D+01
   s     1 1.00
  0.364300D+00  0.100000D+01
   p     5 1.00
  0.187100D+02  0.140310D-01
  0.413300D+01  0.868660D-01
  0.120000D+01  0.290216D+00
  0.382700D+00  0.501008D+00
  0.120900D+00  0.343406D+00
   p     1 1.00
  0.382700D+00  0.100000D+01
   p     1 1.00
  0.120900D+00  0.100000D+01
   d     1 1.00
  0.109700D+01  0.100000D+01
   d     1 1.00
  0.318000D+00  0.100000D+01
   f     1 1.00
  0.761000D+00  0.100000D+01
  
  7  0
   s    10 1.00
  0.823600D+04  0.531000D-03
  0.123500D+04  0.410800D-02
  0.280800D+03  0.210870D-01
  0.792700D+02  0.818530D-01
  0.255900D+02  0.234817D+00
  0.899700D+01  0.434401D+00
  0.331900D+01  0.346129D+00
  0.905900D+00  0.393780D-01
  0.364300D+00 -0.898300D-02
  0.128500D+00  0.238500D-02
   s    10 1.00
  0.823600D+04 -0.113000D-03
  0.123500D+04 -0.878000D-03
  0.280800D+03 -0.454000D-02
  0.792700D+02 -0.181330D-01
  0.255900D+02 -0.557600D-01
  0.899700D+01 -0.126895D+00
  0.331900D+01 -0.170352D+00
  0.905900D+00  0.140382D+00
  0.364300D+00  0.598684D+00
  0.128500D+00  0.395389D+00
   s     1 1.00
  0.905900D+00  0.100000D+01
   s     1 1.00
  0.364300D+00  0.100000D+01
   p     5 1.00
  0.187100D+02  0.140310D-01
  0.413300D+01  0.868660D-01
  0.120000D+01  0.290216D+00
  0.382700D+00  0.501008D+00
  0.120900D+00  0.343406D+00
   p     1 1.00
  0.382700D+00  0.100000D+01
   p     1 1.00
  0.120900D+00  0.100000D+01
   d     1 1.00
  0.109700D+01  0.100000D+01
   d     1 1.00
  0.318000D+00  0.100000D+01
   f     1 1.00
  0.761000D+00  0.100000D+01
  
  8  0
   s     4 1.00
  0.130100D+02  0.196850D-01
  0.196200D+01  0.137977D+00
  0.444600D+00  0.478148D+00
  0.122000D+00  0.501240D+00
   s     1 1.00
  0.122000D+00  0.100000D+01
   p     1 1.00
  0.727000D+00  0.100000D+01
  
  9  0
   s     4 1.00
  0.130100D+02  0.196850D-01
  0.196200D+01  0.137977D+00
  0.444600D+00  0.478148D+00
  0.122000D+00  0.501240D+00
   s     1 1.00
  0.122000D+00  0.100000D+01
   p     1 1.00
  0.727000D+00  0.100000D+01
  
 10  0
   s     4 1.00
  0.130100D+02  0.196850D-01
  0.196200D+01  0.137977D+00
  0.444600D+00  0.478148D+00
  0.122000D+00  0.501240D+00
   s     1 1.00
  0.122000D+00  0.100000D+01
   p     1 1.00
  0.727000D+00  0.100000D+01
  
 11  0
   s     4 1.00
  0.130100D+02  0.196850D-01
  0.196200D+01  0.137977D+00
  0.444600D+00  0.478148D+00
  0.122000D+00  0.501240D+00
   s     1 1.00
  0.122000D+00  0.100000D+01
   p     1 1.00
  0.727000D+00  0.100000D+01
  
 12  0
   s     4 1.00
  0.130100D+02  0.196850D-01
  0.196200D+01  0.137977D+00
  0.444600D+00  0.478148D+00
  0.122000D+00  0.501240D+00
   s     1 1.00
  0.122000D+00  0.100000D+01
   p     1 1.00
  0.727000D+00  0.100000D+01
  
 13  0
   s     4 1.00
  0.130100D+02  0.196850D-01
  0.196200D+01  0.137977D+00
  0.444600D+00  0.478148D+00
  0.122000D+00  0.501240D+00
   s     1 1.00
  0.122000D+00  0.100000D+01
   p     1 1.00
  0.727000D+00  0.100000D+01
  
 14  0
   s     4 1.00
  0.130100D+02  0.196850D-01
  0.196200D+01  0.137977D+00
  0.444600D+00  0.478148D+00
  0.122000D+00  0.501240D+00
   s     1 1.00
  0.122000D+00  0.100000D+01
   p     1 1.00
  0.727000D+00  0.100000D+01
  
[MO]
 Sym= __1_A1_
 Ene=   1.00000000000000     
 Spin= Alpha
 Occup=    1.00000000000000     
                     1  4.432804524793788E-005
                     2  0.998025602005825     
                     3  7.583708671462917E-003
                     4  2.109709179738673E-003
                     5  1.808193804103419E-003
                     6  0.000000000000000E+000
                     7  0.000000000000000E+000
                     8  3.797157606330469E-003
                     9  0.000000000000000E+000
                    10  0.000000000000000E+000
                    11 -2.314397876248800E-004
                    12  0.000000000000000E+000
                    13  0.000000000000000E+000
                    14 -4.303047038477739E-004
                    15  1.502846184306044E-004
                    16  0.000000000000000E+000
                    17  0.000000000000000E+000
                    18 -1.315131405685336E-004
                    19  0.000000000000000E+000
                    20  2.895366640778257E-005
                    21  0.000000000000000E+000
                    22  0.000000000000000E+000
                    23  5.140224969521766E-004
                    24  0.000000000000000E+000
                    25 -1.484518591870434E-004
                    26  0.000000000000000E+000
                    27  0.000000000000000E+000
                    28  1.019559629557041E-004
                    29  0.000000000000000E+000
                    30  0.000000000000000E+000
                    31  0.000000000000000E+000
                    32 -2.412309325709346E-004
                    33  2.141887330488505E-003
                    34  1.388551951978748E-005
                    35 -7.006792460979406E-005
                    36  0.000000000000000E+000
                    37  0.000000000000000E+000
                    38 -5.601811547139417E-003
                    39  0.000000000000000E+000
                    40  0.000000000000000E+000
                    41 -2.800047609899607E-004
                    42  0.000000000000000E+000
                    43  0.000000000000000E+000
                    44  3.809787443533344E-003
                    45  3.343445005639176E-004
                    46  0.000000000000000E+000
                    47  0.000000000000000E+000
                    48  1.184248761657550E-004
                    49  0.000000000000000E+000
                    50  3.155487425280109E-004
                    51  0.000000000000000E+000
                    52  0.000000000000000E+000
                    53 -2.765412281581694E-004
                    54  0.000000000000000E+000
                    55 -5.375913113543970E-005
                    56  0.000000000000000E+000
                    57  0.000000000000000E+000
                    58  8.544136624282164E-005
                    59  0.000000000000000E+000
                    60  0.000000000000000E+000
                    61  0.000000000000000E+000
                    62 -1.975017389295836E-004
                    63 -1.506122436803998E-003
                    64  2.213526555563885E-005
                    65  6.398927342483782E-004
                    66  0.000000000000000E+000
                    67 -6.898895066650540E-004
                    68  8.865000771813486E-004
                    69  0.000000000000000E+000
                    70  5.192224244523733E-005
                    71  4.324616479892965E-004
                    72  0.000000000000000E+000
                    73 -4.204659760586137E-004
                    74 -2.477361517690283E-004
                    75  8.230486245865071E-005
                    76  0.000000000000000E+000
                    77 -9.688507799805434E-006
                    78  3.083905576576280E-005
                    79  0.000000000000000E+000
                    80 -2.126799688330610E-005
                    81  0.000000000000000E+000
                    82  6.631944519742516E-005
                    83 -4.187969245720114E-005
                    84  0.000000000000000E+000
                    85 -9.385866104494278E-005
                    86  0.000000000000000E+000
                    87 -2.486008807716691E-005
                    88  2.236950013715340E-005
                    89  0.000000000000000E+000
                    90  0.000000000000000E+000
                    91  1.009026067191560E-005
                    92 -1.975017389295836E-004
                    93 -1.506122436803998E-003
                    94  2.213526555563885E-005
                    95  6.398927342483782E-004
                    96  0.000000000000000E+000
                    97  6.898895066650540E-004
                    98  8.865000771813486E-004
                    99  0.000000000000000E+000
                   100 -5.192224244523733E-005
                   101  4.324616479892965E-004
                   102  0.000000000000000E+000
                   103  4.204659760586137E-004
                   104 -2.477361517690283E-004
                   105  8.230486245865071E-005
                   106  0.000000000000000E+000
                   107  9.688507799805434E-006
                   108  3.083905576576280E-005
                   109  0.000000000000000E+000
                   110 -2.126799688330610E-005
                   111  0.000000000000000E+000
                   112 -6.631944519742516E-005
                   113 -4.187969245720114E-005
                   114  0.000000000000000E+000
                   115 -9.385866104494278E-005
                   116  0.000000000000000E+000
                   117  2.486008807716691E-005
                   118  2.236950013715340E-005
                   119  0.000000000000000E+000
                   120  0.000000000000000E+000
                   121 -1.009026067191560E-005
                   122 -1.264234074950119E-004
                   123  5.913532813626852E-006
                   124  8.572070561254321E-005
                   125  1.859844552541820E-004
                   126  0.000000000000000E+000
                   127  2.213570784452244E-005
                   128 -7.193106061556124E-004
                   129  0.000000000000000E+000
                   130  6.677619496233333E-005
                   131  3.011596130988893E-004
                   132  0.000000000000000E+000
                   133 -2.044286890182085E-004
                   134  5.982382878278915E-004
                   135 -1.383153198443707E-005
                   136  0.000000000000000E+000
                   137 -5.785808523059265E-007
                   138 -2.481507512062740E-006
                   139  0.000000000000000E+000
                   140 -1.553897102034372E-004
                   141  0.000000000000000E+000
                   142  1.388848812553891E-004
                   143  2.940200437411572E-005
                   144  0.000000000000000E+000
                   145 -3.798088450533506E-005
                   146  0.000000000000000E+000
                   147  3.019793966827570E-006
                   148 -1.061432035291611E-005
                   149  0.000000000000000E+000
                   150  0.000000000000000E+000
                   151 -3.578520377265788E-006
                   152 -1.264234074950119E-004
                   153  5.913532813626852E-006
                   154  8.572070561254321E-005
                   155  1.859844552541820E-004
                   156  0.000000000000000E+000
                   157 -2.213570784452244E-005
                   158 -7.193106061556124E-004
                   159  0.000000000000000E+000
                   160 -6.677619496233333E-005
                   161  3.011596130988893E-004
                   162  0.000000000000000E+000
                   163  2.044286890182085E-004
                   164  5.982382878278915E-004
                   165 -1.383153198443707E-005
                   166  0.000000000000000E+000
                   167  5.785808523059265E-007
                   168 -2.481507512062740E-006
                   169  0.000000000000000E+000
                   170 -1.553897102034372E-004
                   171  0.000000000000000E+000
                   172 -1.388848812553891E-004
                   173  2.940200437411572E-005
                   174  0.000000000000000E+000
                   175 -3.798088450533506E-005
                   176  0.000000000000000E+000
                   177 -3.019793966827570E-006
                   178 -1.061432035291611E-005
                   179  0.000000000000000E+000
                   180  0.000000000000000E+000
                   181  3.578520377265788E-006
                   182 -8.718661179228769E-005
                   183 -2.618515348732424E-004
                   184  3.204923259998209E-005
                   185  8.203051660510254E-005
                   186  0.000000000000000E+000
                   187  0.000000000000000E+000
                   188 -7.335269991098357E-007
                   189  0.000000000000000E+000
                   190  0.000000000000000E+000
                   191  2.733229979741088E-005
                   192  0.000000000000000E+000
                   193  0.000000000000000E+000
                   194 -2.250883988409304E-005
                   195  1.954775260761894E-005
                   196  0.000000000000000E+000
                   197  0.000000000000000E+000
                   198  1.008466128317745E-005
                   199  0.000000000000000E+000
                   200  6.332319164451438E-005
                   201  0.000000000000000E+000
                   202  0.000000000000000E+000
                   203  6.812097598164384E-005
                   204  0.000000000000000E+000
                   205 -3.091503691584363E-006
                   206  0.000000000000000E+000
                   207  0.000000000000000E+000
                   208 -4.651536482670608E-006
                   209  0.000000000000000E+000
                   210  0.000000000000000E+000
                   211  0.000000000000000E+000
                   212  3.833569464783772E-003
                   213 -2.363871127377162E-003
                   214  0.000000000000000E+000
                   215  4.388387603581596E-004
                   216  3.324211386063402E-004
                   217  3.833569464783772E-003
                   218 -2.363871127377162E-003
                   219  0.000000000000000E+000
                   220 -4.388387603581596E-004
                   221  3.324211386063402E-004
                   222 -5.871829349287817E-004
                   223 -8.613385916485278E-005
                   224  0.000000000000000E+000
                   225 -1.477396627249542E-005
                   226 -4.460955155922275E-005
                   227 -5.871829349287817E-004
                   228 -8.613385916485278E-005
                   229  0.000000000000000E+000
                   230  1.477396627249542E-005
                   231 -4.460955155922275E-005
                   232 -1.734946506942030E-004
                   233 -3.518911233419464E-004
                   234  0.000000000000000E+000
                   235 -2.964159908382520E-006
                   236 -1.575049796968562E-006
                   237 -1.734946506942030E-004
                   238 -3.518911233419464E-004
                   239  0.000000000000000E+000
                   240  2.964159908382520E-006
                   241 -1.575049796968562E-006
                   242  9.767085211925464E-005
                   243 -5.921286628257179E-005
                   244  0.000000000000000E+000
                   245  0.000000000000000E+000
                   246  9.062789217314972E-006
 Sym= __2_A1_
 Ene=   2.00000000000000     
 Spin= Alpha
 Occup=    1.00000000000000     
                     1 -4.502281973211010E-005
                     2 -7.530933561276769E-005
                     3  2.012391604835654E-003
                     4 -6.183537233169791E-007
                     5  1.204775893248080E-003
                     6  0.000000000000000E+000
                     7  0.000000000000000E+000
                     8  2.598786200763890E-003
                     9  0.000000000000000E+000
                    10  0.000000000000000E+000
                    11 -1.085443812916444E-004
                    12  0.000000000000000E+000
                    13  0.000000000000000E+000
                    14 -2.319473307433549E-004
                    15  6.957651277381203E-005
                    16  0.000000000000000E+000
                    17  0.000000000000000E+000
                    18  6.274397569754184E-005
                    19  0.000000000000000E+000
                    20 -1.920880016314083E-004
                    21  0.000000000000000E+000
                    22  0.000000000000000E+000
                    23 -3.195475251741606E-004
                    24  0.000000000000000E+000
                    25  1.937235132479158E-004
                    26  0.000000000000000E+000
                    27  0.000000000000000E+000
                    28 -1.210222720649823E-005
                    29  0.000000000000000E+000
                    30  0.000000000000000E+000
                    31  0.000000000000000E+000
                    32   1.00103809866481     
                    33  9.048868616635701E-003
                    34  2.662210479368340E-003
                    35 -7.895700142758479E-003
                    36  0.000000000000000E+000
                    37  0.000000000000000E+000
                    38 -3.524579655744021E-003
                    39  0.000000000000000E+000
                    40  0.000000000000000E+000
                    41  1.290694606356523E-003
                    42  0.000000000000000E+000
                    43  0.000000000000000E+000
                    44  3.952053165989041E-003
                    45  3.107245581258149E-004
                    46  0.000000000000000E+000
                    47  0.000000000000000E+000
                    48 -4.760642180855818E-004
                    49  0.000000000000000E+000
                    50  4.781332434603894E-004
                    51  0.000000000000000E+000
                    52  0.000000000000000E+000
                    53  9.627896243246286E-004
                    54  0.000000000000000E+000
                    55  3.130675478868601E-004
                    56  0.000000000000000E+000
                    57  0.000000000000000E+000
                    58 -2.253490973567626E-004
                    59  0.000000000000000E+000
                    60  0.000000000000000E+000
                    61  0.000000000000000E+000
                    62  9.605543733172186E-003
                    63 -2.016440086800903E-003
                    64 -2.876869616974345E-004
                    65  3.115853341221514E-003
                    66  0.000000000000000E+000
                    67  1.904561050009657E-004
                    68 -8.805041269268691E-005
                    69  0.000000000000000E+000
                    70  5.006237032441353E-004
                    71  2.090160328292569E-005
                    72  0.000000000000000E+000
                    73 -1.933899243537018E-003
                    74  1.890981900338669E-004
                    75 -2.133788242654930E-005
                    76  0.000000000000000E+000
                    77  2.852762486531944E-005
                    78  3.618765851745940E-005
                    79  0.000000000000000E+000
                    80  8.622250069481552E-004
                    81  0.000000000000000E+000
                    82 -4.355656828798080E-004
                    83  3.225383145907122E-006
                    84  0.000000000000000E+000
                    85  5.533578918362752E-005
                    86  0.000000000000000E+000
                    87  2.573762962399611E-005
                    88 -1.121890803525396E-004
                    89  0.000000000000000E+000
                    90  0.000000000000000E+000
                    91  5.054921947992156E-005
                    92  9.605543733172186E-003
                    93 -2.016440086800903E-003
                    94 -2.876869616974345E-004
                    95  3.115853341221514E-003
                    96  0.000000000000000E+000
                    97 -1.904561050009657E-004
                    98 -8.805041269268691E-005
                    99  0.000000000000000E+000
                   100 -5.006237032441353E-004
                   101  2.090160328292569E-005
                   102  0.000000000000000E+000
                   103  1.933899243537018E-003
                   104  1.890981900338669E-004
                   105 -2.133788242654930E-005
                   106  0.000000000000000E+000
                   107 -2.852762486531944E-005
                   108  3.618765851745940E-005
                   109  0.000000000000000E+000
                   110  8.622250069481552E-004
                   111  0.000000000000000E+000
                   112  4.355656828798080E-004
                   113  3.225383145907122E-006
                   114  0.000000000000000E+000
                   115  5.533578918362752E-005
                   116  0.000000000000000E+000
                   117 -2.573762962399611E-005
                   118 -1.121890803525396E-004
                   119  0.000000000000000E+000
                   120  0.000000000000000E+000
                   121 -5.054921947992156E-005
                   122 -2.050141237925963E-004
                   123 -7.418006854365520E-004
                   124  2.466645690968094E-004
                   125 -2.480136401435975E-004
                   126  0.000000000000000E+000
                   127 -3.633777143201237E-005
                   128 -2.248895607178152E-004
                   129  0.000000000000000E+000
                   130  2.866817604652534E-005
                   131  5.764273273392263E-004
                   132  0.000000000000000E+000
                   133  3.447944292882776E-004
                   134  6.351271349641876E-004
                   135 -2.416319624546664E-005
                   136  0.000000000000000E+000
                   137  4.315918701124337E-005
                   138  1.594991064847789E-005
                   139  0.000000000000000E+000
                   140 -3.183872724375542E-004
                   141  0.000000000000000E+000
                   142 -2.461135144982267E-004
                   143 -3.400707354700702E-005
                   144  0.000000000000000E+000
                   145 -6.622889405840458E-006
                   146  0.000000000000000E+000
                   147 -2.706017965914160E-005
                   148 -2.959283945100642E-005
                   149  0.000000000000000E+000
                   150  0.000000000000000E+000
                   151 -5.750643091923528E-006
                   152 -2.050141237925963E-004
                   153 -7.418006854365520E-004
                   154  2.466645690968094E-004
                   155 -2.480136401435975E-004
                   156  0.000000000000000E+000
                   157  3.633777143201237E-005
                   158 -2.248895607178152E-004
                   159  0.000000000000000E+000
                   160 -2.866817604652534E-005