[Molden Format]
[Atoms] AU
  N     1    7     0.0000000000    0.0000000000   -4.3829337700        
  C     2    6     0.0000000000    0.0000000000   -1.7593156300        
  C     3    6     0.0000000000   -2.2737499100   -0.4007373600        
  C     4    6     0.0000000000    2.2737499100   -0.4007373600        
  C     5    6     0.0000000000   -2.2543437700    2.2172435800        
  C     6    6     0.0000000000    2.2543437700    2.2172435800        
  C     7    6     0.0000000000    0.0000000000    3.5500473800        
  H     8    1     0.0000000000   -1.6386575800   -5.3489091500        
  H     9    1     0.0000000000    1.6386575800   -5.3489091500        
  H    10    1     0.0000000000   -4.0402001000   -1.3989337800        
  H    11    1     0.0000000000    4.0402001000   -1.3989337800        
  H    12    1     0.0000000000   -4.0211451400    3.2165913200        
  H    13    1     0.0000000000    4.0211451400    3.2165913200        
  H    14    1     0.0000000000    0.0000000000    5.5775533300        
[5D]
[7F]
[GTO]
  1  0
   s    12 1.00
  0.114200D+05  0.172695D-04
  0.171200D+04  0.134411D-03
  0.389300D+03  0.694561D-03
  0.110000D+03  0.278531D-02
  0.355700D+02  0.863457D-02
  0.125400D+02  0.199805D-01
  0.464400D+01  0.262908D-01
  0.129300D+01 -0.243845D-01
  0.511800D+00 -0.924934D-01
  0.178700D+00 -0.339683D+00
  0.246240D-01  0.345111D+00
  0.112530D-01  0.752750D+00
   s    10 1.00
  0.114200D+05  0.523000D-03
  0.171200D+04  0.404500D-02
  0.389300D+03  0.207750D-01
  0.110000D+03  0.807269D-01
  0.355700D+02  0.233074D+00
  0.125400D+02  0.433501D+00
  0.464400D+01  0.347472D+00
  0.129300D+01  0.412620D-01
  0.511800D+00 -0.850799D-02
  0.178700D+00  0.238400D-02
   s    10 1.00
  0.114200D+05 -0.115000D-03
  0.171200D+04 -0.895000D-03
  0.389300D+03 -0.462400D-02
  0.110000D+03 -0.185280D-01
  0.355700D+02 -0.573390D-01
  0.125400D+02 -0.132076D+00
  0.464400D+01 -0.172510D+00
  0.129300D+01  0.151814D+00
  0.511800D+00  0.599944D+00
  0.178700D+00  0.387462D+00
   s     1 1.00
  0.129300D+01  0.100000D+01
   s     1 1.00
  0.178700D+00  0.100000D+01
   p     5 1.00
  0.266300D+02  0.146700D-01
  0.594800D+01  0.917640D-01
  0.174200D+01  0.298683D+00
  0.555000D+00  0.498487D+00
  0.172500D+00  0.337023D+00
   p     1 1.00
  0.174200D+01  0.100000D+01
   p     1 1.00
  0.555000D+00  0.100000D+01
   d     1 1.00
  0.165400D+01  0.100000D+01
   d     1 1.00
  0.469000D+00  0.100000D+01
   f     1 1.00
  0.109300D+01  0.100000D+01
  
  2  0
   s    10 1.00
  0.823600D+04  0.531000D-03
  0.123500D+04  0.410800D-02
  0.280800D+03  0.210870D-01
  0.792700D+02  0.818530D-01
  0.255900D+02  0.234817D+00
  0.899700D+01  0.434401D+00
  0.331900D+01  0.346129D+00
  0.905900D+00  0.393780D-01
  0.364300D+00 -0.898300D-02
  0.128500D+00  0.238500D-02
   s    10 1.00
  0.823600D+04 -0.113000D-03
  0.123500D+04 -0.878000D-03
  0.280800D+03 -0.454000D-02
  0.792700D+02 -0.181330D-01
  0.255900D+02 -0.557600D-01
  0.899700D+01 -0.126895D+00
  0.331900D+01 -0.170352D+00
  0.905900D+00  0.140382D+00
  0.364300D+00  0.598684D+00
  0.128500D+00  0.395389D+00
   s     1 1.00
  0.905900D+00  0.100000D+01
   s     1 1.00
  0.364300D+00  0.100000D+01
   p     5 1.00
  0.187100D+02  0.140310D-01
  0.413300D+01  0.868660D-01
  0.120000D+01  0.290216D+00
  0.382700D+00  0.501008D+00
  0.120900D+00  0.343406D+00
   p     1 1.00
  0.382700D+00  0.100000D+01
   p     1 1.00
  0.120900D+00  0.100000D+01
   d     1 1.00
  0.109700D+01  0.100000D+01
   d     1 1.00
  0.318000D+00  0.100000D+01
   f     1 1.00
  0.761000D+00  0.100000D+01
  
  3  0
   s    10 1.00
  0.823600D+04  0.531000D-03
  0.123500D+04  0.410800D-02
  0.280800D+03  0.210870D-01
  0.792700D+02  0.818530D-01
  0.255900D+02  0.234817D+00
  0.899700D+01  0.434401D+00
  0.331900D+01  0.346129D+00
  0.905900D+00  0.393780D-01
  0.364300D+00 -0.898300D-02
  0.128500D+00  0.238500D-02
   s    10 1.00
  0.823600D+04 -0.113000D-03
  0.123500D+04 -0.878000D-03
  0.280800D+03 -0.454000D-02
  0.792700D+02 -0.181330D-01
  0.255900D+02 -0.557600D-01
  0.899700D+01 -0.126895D+00
  0.331900D+01 -0.170352D+00
  0.905900D+00  0.140382D+00
  0.364300D+00  0.598684D+00
  0.128500D+00  0.395389D+00
   s     1 1.00
  0.905900D+00  0.100000D+01
   s     1 1.00
  0.364300D+00  0.100000D+01
   p     5 1.00
  0.187100D+02  0.140310D-01
  0.413300D+01  0.868660D-01
  0.120000D+01  0.290216D+00
  0.382700D+00  0.501008D+00
  0.120900D+00  0.343406D+00
   p     1 1.00
  0.382700D+00  0.100000D+01
   p     1 1.00
  0.120900D+00  0.100000D+01
   d     1 1.00
  0.109700D+01  0.100000D+01
   d     1 1.00
  0.318000D+00  0.100000D+01
   f     1 1.00
  0.761000D+00  0.100000D+01
  
  4  0
   s    10 1.00
  0.823600D+04  0.531000D-03
  0.123500D+04  0.410800D-02
  0.280800D+03  0.210870D-01
  0.792700D+02  0.818530D-01
  0.255900D+02  0.234817D+00
  0.899700D+01  0.434401D+00
  0.331900D+01  0.346129D+00
  0.905900D+00  0.393780D-01
  0.364300D+00 -0.898300D-02
  0.128500D+00  0.238500D-02
   s    10 1.00
  0.823600D+04 -0.113000D-03
  0.123500D+04 -0.878000D-03
  0.280800D+03 -0.454000D-02
  0.792700D+02 -0.181330D-01
  0.255900D+02 -0.557600D-01
  0.899700D+01 -0.126895D+00
  0.331900D+01 -0.170352D+00
  0.905900D+00  0.140382D+00
  0.364300D+00  0.598684D+00
  0.128500D+00  0.395389D+00
   s     1 1.00
  0.905900D+00  0.100000D+01
   s     1 1.00
  0.364300D+00  0.100000D+01
   p     5 1.00
  0.187100D+02  0.140310D-01
  0.413300D+01  0.868660D-01
  0.120000D+01  0.290216D+00
  0.382700D+00  0.501008D+00
  0.120900D+00  0.343406D+00
   p     1 1.00
  0.382700D+00  0.100000D+01
   p     1 1.00
  0.120900D+00  0.100000D+01
   d     1 1.00
  0.109700D+01  0.100000D+01
   d     1 1.00
  0.318000D+00  0.100000D+01
   f     1 1.00
  0.761000D+00  0.100000D+01
  
  5  0
   s    10 1.00
  0.823600D+04  0.531000D-03
  0.123500D+04  0.410800D-02
  0.280800D+03  0.210870D-01
  0.792700D+02  0.818530D-01
  0.255900D+02  0.234817D+00
  0.899700D+01  0.434401D+00
  0.331900D+01  0.346129D+00
  0.905900D+00  0.393780D-01
  0.364300D+00 -0.898300D-02
  0.128500D+00  0.238500D-02
   s    10 1.00
  0.823600D+04 -0.113000D-03
  0.123500D+04 -0.878000D-03
  0.280800D+03 -0.454000D-02
  0.792700D+02 -0.181330D-01
  0.255900D+02 -0.557600D-01
  0.899700D+01 -0.126895D+00
  0.331900D+01 -0.170352D+00
  0.905900D+00  0.140382D+00
  0.364300D+00  0.598684D+00
  0.128500D+00  0.395389D+00
   s     1 1.00
  0.905900D+00  0.100000D+01
   s     1 1.00
  0.364300D+00  0.100000D+01
   p     5 1.00
  0.187100D+02  0.140310D-01
  0.413300D+01  0.868660D-01
  0.120000D+01  0.290216D+00
  0.382700D+00  0.501008D+00
  0.120900D+00  0.343406D+00
   p     1 1.00
  0.382700D+00  0.100000D+01
   p     1 1.00
  0.120900D+00  0.100000D+01
   d     1 1.00
  0.109700D+01  0.100000D+01
   d     1 1.00
  0.318000D+00  0.100000D+01
   f     1 1.00
  0.761000D+00  0.100000D+01
  
  6  0
   s    10 1.00
  0.823600D+04  0.531000D-03
  0.123500D+04  0.410800D-02
  0.280800D+03  0.210870D-01
  0.792700D+02  0.818530D-01
  0.255900D+02  0.234817D+00
  0.899700D+01  0.434401D+00
  0.331900D+01  0.346129D+00
  0.905900D+00  0.393780D-01
  0.364300D+00 -0.898300D-02
  0.128500D+00  0.238500D-02
   s    10 1.00
  0.823600D+04 -0.113000D-03
  0.123500D+04 -0.878000D-03
  0.280800D+03 -0.454000D-02
  0.792700D+02 -0.181330D-01
  0.255900D+02 -0.557600D-01
  0.899700D+01 -0.126895D+00
  0.331900D+01 -0.170352D+00
  0.905900D+00  0.140382D+00
  0.364300D+00  0.598684D+00
  0.128500D+00  0.395389D+00
   s     1 1.00
  0.905900D+00  0.100000D+01
   s     1 1.00
  0.364300D+00  0.100000D+01
   p     5 1.00
  0.187100D+02  0.140310D-01
  0.413300D+01  0.868660D-01
  0.120000D+01  0.290216D+00
  0.382700D+00  0.501008D+00
  0.120900D+00  0.343406D+00
   p     1 1.00
  0.382700D+00  0.100000D+01
   p     1 1.00
  0.120900D+00  0.100000D+01
   d     1 1.00
  0.109700D+01  0.100000D+01
   d     1 1.00
  0.318000D+00  0.100000D+01
   f     1 1.00
  0.761000D+00  0.100000D+01
  
  7  0
   s    10 1.00
  0.823600D+04  0.531000D-03
  0.123500D+04  0.410800D-02
  0.280800D+03  0.210870D-01
  0.792700D+02  0.818530D-01
  0.255900D+02  0.234817D+00
  0.899700D+01  0.434401D+00
  0.331900D+01  0.346129D+00
  0.905900D+00  0.393780D-01
  0.364300D+00 -0.898300D-02
  0.128500D+00  0.238500D-02
   s    10 1.00
  0.823600D+04 -0.113000D-03
  0.123500D+04 -0.878000D-03
  0.280800D+03 -0.454000D-02
  0.792700D+02 -0.181330D-01
  0.255900D+02 -0.557600D-01
  0.899700D+01 -0.126895D+00
  0.331900D+01 -0.170352D+00
  0.905900D+00  0.140382D+00
  0.364300D+00  0.598684D+00
  0.128500D+00  0.395389D+00
   s     1 1.00
  0.905900D+00  0.100000D+01
   s     1 1.00
  0.364300D+00  0.100000D+01
   p     5 1.00
  0.187100D+02  0.140310D-01
  0.413300D+01  0.868660D-01
  0.120000D+01  0.290216D+00
  0.382700D+00  0.501008D+00
  0.120900D+00  0.343406D+00
   p     1 1.00
  0.382700D+00  0.100000D+01
   p     1 1.00
  0.120900D+00  0.100000D+01
   d     1 1.00
  0.109700D+01  0.100000D+01
   d     1 1.00
  0.318000D+00  0.100000D+01
   f     1 1.00
  0.761000D+00  0.100000D+01
  
  8  0
   s     4 1.00
  0.130100D+02  0.196850D-01
  0.196200D+01  0.137977D+00
  0.444600D+00  0.478148D+00
  0.122000D+00  0.501240D+00
   s     1 1.00
  0.122000D+00  0.100000D+01
   p     1 1.00
  0.727000D+00  0.100000D+01
  
  9  0
   s     4 1.00
  0.130100D+02  0.196850D-01
  0.196200D+01  0.137977D+00
  0.444600D+00  0.478148D+00
  0.122000D+00  0.501240D+00
   s     1 1.00
  0.122000D+00  0.100000D+01
   p     1 1.00
  0.727000D+00  0.100000D+01
  
 10  0
   s     4 1.00
  0.130100D+02  0.196850D-01
  0.196200D+01  0.137977D+00
  0.444600D+00  0.478148D+00
  0.122000D+00  0.501240D+00
   s     1 1.00
  0.122000D+00  0.100000D+01
   p     1 1.00
  0.727000D+00  0.100000D+01
  
 11  0
   s     4 1.00
  0.130100D+02  0.196850D-01
  0.196200D+01  0.137977D+00
  0.444600D+00  0.478148D+00
  0.122000D+00  0.501240D+00
   s     1 1.00
  0.122000D+00  0.100000D+01
   p     1 1.00
  0.727000D+00  0.100000D+01
  
 12  0
   s     4 1.00
  0.130100D+02  0.196850D-01
  0.196200D+01  0.137977D+00
  0.444600D+00  0.478148D+00
  0.122000D+00  0.501240D+00
   s     1 1.00
  0.122000D+00  0.100000D+01
   p     1 1.00
  0.727000D+00  0.100000D+01
  
 13  0
   s     4 1.00
  0.130100D+02  0.196850D-01
  0.196200D+01  0.137977D+00
  0.444600D+00  0.478148D+00
  0.122000D+00  0.501240D+00
   s     1 1.00
  0.122000D+00  0.100000D+01
   p     1 1.00
  0.727000D+00  0.100000D+01
  
 14  0
   s     4 1.00
  0.130100D+02  0.196850D-01
  0.196200D+01  0.137977D+00
  0.444600D+00  0.478148D+00
  0.122000D+00  0.501240D+00
   s     1 1.00
  0.122000D+00  0.100000D+01
   p     1 1.00
  0.727000D+00  0.100000D+01
  
[MO]
 Sym= __1_A1_
 Ene=  0.000000000000000E+000
 Spin= Alpha
 Occup=    2.00000000000000     
                     1  4.432804747769858E-005
                     2  0.998025602040185     
                     3  7.583708179790294E-003
                     4  2.109709190428537E-003
                     5  1.808194557038774E-003
                     6  0.000000000000000E+000
                     7  0.000000000000000E+000
                     8  3.797157483453149E-003
                     9  0.000000000000000E+000
                    10  0.000000000000000E+000
                    11 -2.314398793959484E-004
                    12  0.000000000000000E+000
                    13  0.000000000000000E+000
                    14 -4.303047169110402E-004
                    15  1.502846042540046E-004
                    16  0.000000000000000E+000
                    17  0.000000000000000E+000
                    18 -1.315131335779159E-004
                    19  0.000000000000000E+000
                    20  2.895359434378511E-005
                    21  0.000000000000000E+000
                    22  0.000000000000000E+000
                    23  5.140224121566910E-004
                    24  0.000000000000000E+000
                    25 -1.484518632081957E-004
                    26  0.000000000000000E+000
                    27  0.000000000000000E+000
                    28  1.019559773085076E-004
                    29  0.000000000000000E+000
                    30  0.000000000000000E+000
                    31  0.000000000000000E+000
                    32 -2.412268426766781E-004
                    33  2.141876002611763E-003
                    34  1.388567313952598E-005
                    35 -7.006777826792121E-005
                    36  0.000000000000000E+000
                    37  0.000000000000000E+000
                    38 -5.601816711090116E-003
                    39  0.000000000000000E+000
                    40  0.000000000000000E+000
                    41 -2.800044599599420E-004
                    42  0.000000000000000E+000
                    43  0.000000000000000E+000
                    44  3.809787986868741E-003
                    45  3.343444838447775E-004
                    46  0.000000000000000E+000
                    47  0.000000000000000E+000
                    48  1.184250918414812E-004
                    49  0.000000000000000E+000
                    50  3.155487065279727E-004
                    51  0.000000000000000E+000
                    52  0.000000000000000E+000
                    53 -2.765408821521228E-004
                    54  0.000000000000000E+000
                    55 -5.375926959630090E-005
                    56  0.000000000000000E+000
                    57  0.000000000000000E+000
                    58  8.544153102386066E-005
                    59  0.000000000000000E+000
                    60  0.000000000000000E+000
                    61  0.000000000000000E+000
                    62 -1.975015270708524E-004
                    63 -1.506124299839588E-003
                    64  2.213528533779932E-005
                    65  6.398925905480367E-004
                    66  0.000000000000000E+000
                    67 -6.898964133467726E-004
                    68  8.865008141022374E-004
                    69  0.000000000000000E+000
                    70  5.192287745338038E-005
                    71  4.324613316974981E-004
                    72  0.000000000000000E+000
                    73 -4.204635537941704E-004
                    74 -2.477369511516075E-004
                    75  8.230490707508692E-005
                    76  0.000000000000000E+000
                    77 -9.688316540105181E-006
                    78  3.083915410414078E-005
                    79  0.000000000000000E+000
                    80 -2.126798820250760E-005
                    81  0.000000000000000E+000
                    82  6.631942440985492E-005
                    83 -4.187948450207036E-005
                    84  0.000000000000000E+000
                    85 -9.385859831182881E-005
                    86  0.000000000000000E+000
                    87 -2.486007631758274E-005
                    88  2.236944817903926E-005
                    89  0.000000000000000E+000
                    90  0.000000000000000E+000
                    91  1.009031421571530E-005
                    92 -1.975015270708524E-004
                    93 -1.506124299839588E-003
                    94  2.213528533779932E-005
                    95  6.398925905480367E-004
                    96  0.000000000000000E+000
                    97  6.898964133467726E-004
                    98  8.865008141022374E-004
                    99  0.000000000000000E+000
                   100 -5.192287745338038E-005
                   101  4.324613316974981E-004
                   102  0.000000000000000E+000
                   103  4.204635537941704E-004
                   104 -2.477369511516075E-004
                   105  8.230490707508692E-005
                   106  0.000000000000000E+000
                   107  9.688316540105181E-006
                   108  3.083915410414078E-005
                   109  0.000000000000000E+000
                   110 -2.126798820250760E-005
                   111  0.000000000000000E+000
                   112 -6.631942440985492E-005
                   113 -4.187948450207036E-005
                   114  0.000000000000000E+000
                   115 -9.385859831182881E-005
                   116  0.000000000000000E+000
                   117  2.486007631758274E-005
                   118  2.236944817903926E-005
                   119  0.000000000000000E+000
                   120  0.000000000000000E+000
                   121 -1.009031421571530E-005
                   122 -1.264232908745035E-004
                   123  5.914767893164172E-006
                   124  8.572063479815519E-005
                   125  1.859841283023029E-004
                   126  0.000000000000000E+000
                   127  2.213555939797478E-005
                   128 -7.193101414035270E-004
                   129  0.000000000000000E+000
                   130  6.677616695392865E-005
                   131  3.011594167508619E-004
                   132  0.000000000000000E+000
                   133 -2.044284687069249E-004
                   134  5.982372669920544E-004
                   135 -1.383154544665695E-005
                   136  0.000000000000000E+000
                   137 -5.784838337435918E-007
                   138 -2.481521149370266E-006
                   139  0.000000000000000E+000
                   140 -1.553896525497637E-004
                   141  0.000000000000000E+000
                   142  1.388849942275117E-004
                   143  2.940199011558920E-005
                   144  0.000000000000000E+000
                   145 -3.798087180017500E-005
                   146  0.000000000000000E+000
                   147  3.019745968661765E-006
                   148 -1.061431590598256E-005
                   149  0.000000000000000E+000
                   150  0.000000000000000E+000
                   151 -3.578527166815092E-006
                   152 -1.264232908745035E-004
                   153  5.914767893164172E-006
                   154  8.572063479815519E-005
                   155  1.859841283023029E-004
                   156  0.000000000000000E+000
                   157 -2.213555939797478E-005
                   158 -7.193101414035270E-004
                   159  0.000000000000000E+000
                   160 -6.677616695392865E-005
                   161  3.011594167508619E-004
                   162  0.000000000000000E+000
                   163  2.044284687069249E-004
                   164  5.982372669920544E-004
                   165 -1.383154544665695E-005
                   166  0.000000000000000E+000
                   167  5.784838337435918E-007
                   168 -2.481521149370266E-006
                   169  0.000000000000000E+000
                   170 -1.553896525497637E-004
                   171  0.000000000000000E+000
                   172 -1.388849942275117E-004
                   173  2.940199011558920E-005
                   174  0.000000000000000E+000
                   175 -3.798087180017500E-005
                   176  0.000000000000000E+000
                   177 -3.019745968661765E-006
                   178 -1.061431590598256E-005
                   179  0.000000000000000E+000
                   180  0.000000000000000E+000
                   181  3.578527166815092E-006
                   182 -8.718641916268220E-005
                   183 -2.618498978845092E-004
                   184  3.204918866011664E-005
                   185  8.203008832715590E-005
                   186  0.000000000000000E+000
                   187  0.000000000000000E+000
                   188 -7.342697176022802E-007
                   189  0.000000000000000E+000
                   190  0.000000000000000E+000
                   191  2.733241358746494E-005
                   192  0.000000000000000E+000
                   193  0.000000000000000E+000
                   194 -2.250900531398236E-005
                   195  1.954771803758090E-005
                   196  0.000000000000000E+000
                   197  0.000000000000000E+000
                   198  1.008463440802337E-005
                   199  0.000000000000000E+000
                   200  6.332306495562340E-005
                   201  0.000000000000000E+000
                   202  0.000000000000000E+000
                   203  6.812090134363210E-005
                   204  0.000000000000000E+000
                   205 -3.091513631772270E-006
                   206  0.000000000000000E+000
                   207  0.000000000000000E+000
                   208 -4.651530912343762E-006
                   209  0.000000000000000E+000
                   210  0.000000000000000E+000
                   211  0.000000000000000E+000
                   212  3.833569332471060E-003
                   213 -2.363871292475261E-003
                   214  0.000000000000000E+000
                   215  4.388387357079175E-004
                   216  3.324211302468756E-004
                   217  3.833569332471060E-003
                   218 -2.363871292475261E-003
                   219  0.000000000000000E+000
                   220 -4.388387357079175E-004
                   221  3.324211302468756E-004
                   222 -5.871786646056425E-004
                   223 -8.613456072173224E-005
                   224  0.000000000000000E+000
                   225 -1.477377077716111E-005
                   226 -4.460939774721696E-005
                   227 -5.871786646056425E-004
                   228 -8.613456072173224E-005
                   229  0.000000000000000E+000
                   230  1.477377077716111E-005
                   231 -4.460939774721696E-005
                   232 -1.734945140406634E-004
                   233 -3.518908024670180E-004
                   234  0.000000000000000E+000
                   235 -2.964123300150682E-006
                   236 -1.575077793112692E-006
                   237 -1.734945140406634E-004
                   238 -3.518908024670180E-004
                   239  0.000000000000000E+000
                   240  2.964123300150682E-006
                   241 -1.575077793112692E-006
                   242  9.767048114720777E-005
                   243 -5.921242648953110E-005
                   244  0.000000000000000E+000
                   245  0.000000000000000E+000
                   246  9.062785510900986E-006
 Sym= __2_A1_
 Ene=  0.000000000000000E+000
 Spin= Alpha
 Occup=    2.00000000000000     
                     1 -4.502280630788307E-005
                     2 -7.531311270372017E-005
                     3  2.012391664901997E-003
                     4 -6.183666034075739E-007
                     5  1.204775704927468E-003
                     6  0.000000000000000E+000
                     7  0.000000000000000E+000
                     8  2.598786154592741E-003
                     9  0.000000000000000E+000
                    10  0.000000000000000E+000
                    11 -1.085443674409494E-004
                    12  0.000000000000000E+000
                    13  0.000000000000000E+000
                    14 -2.319473628011025E-004
                    15  6.957651688565766E-005
                    16  0.000000000000000E+000
                    17  0.000000000000000E+000
                    18  6.274397182839433E-005
                    19  0.000000000000000E+000
                    20 -1.920879748137051E-004
                    21  0.000000000000000E+000
                    22  0.000000000000000E+000
                    23 -3.195475337557792E-004
                    24  0.000000000000000E+000
                    25  1.937235071701072E-004
                    26  0.000000000000000E+000
                    27  0.000000000000000E+000
                    28 -1.210222956167097E-005
                    29  0.000000000000000E+000
                    30  0.000000000000000E+000
                    31  0.000000000000000E+000
                    32   1.00103809844343     
                    33  9.048871023766071E-003
                    34  2.662210460821399E-003
                    35 -7.895700345249770E-003
                    36  0.000000000000000E+000
                    37  0.000000000000000E+000
                    38 -3.524579074754670E-003
                    39  0.000000000000000E+000
                    40  0.000000000000000E+000
                    41  1.290694619874636E-003
                    42  0.000000000000000E+000
                    43  0.000000000000000E+000
                    44  3.952053418988858E-003
                    45  3.107244923547507E-004
                    46  0.000000000000000E+000
                    47  0.000000000000000E+000
                    48 -4.760642931929654E-004
                    49  0.000000000000000E+000
                    50  4.781332971251428E-004
                    51  0.000000000000000E+000
                    52  0.000000000000000E+000
                    53  9.627895465463471E-004
                    54  0.000000000000000E+000
                    55  3.130675729561946E-004
                    56  0.000000000000000E+000
                    57  0.000000000000000E+000
                    58 -2.253491219925632E-004
                    59  0.000000000000000E+000
                    60  0.000000000000000E+000
                    61  0.000000000000000E+000
                    62  9.605551664398320E-003
                    63 -2.016439223169617E-003
                    64 -2.876869339344858E-004
                    65  3.115853237755633E-003
                    66  0.000000000000000E+000
                    67  1.904557577995046E-004
                    68 -8.805321595288919E-005
                    69  0.000000000000000E+000
                    70  5.006237788869058E-004
                    71  2.090188137593271E-005
                    72  0.000000000000000E+000
                    73 -1.933899486391074E-003
                    74  1.890987836508694E-004
                    75 -2.133794729878227E-005
                    76  0.000000000000000E+000
                    77  2.852762167947175E-005
                    78  3.618760425116968E-005
                    79  0.000000000000000E+000
                    80  8.622250494161958E-004
                    81  0.000000000000000E+000
                    82 -4.355658244390721E-004
                    83  3.225407747952456E-006
                    84  0.000000000000000E+000
                    85  5.533579344717746E-005
                    86  0.000000000000000E+000
                    87  2.573763558855055E-005
                    88 -1.121890591237402E-004
                    89  0.000000000000000E+000
                    90  0.000000000000000E+000
                    91  5.054921926838921E-005
                    92  9.605551664398320E-003
                    93 -2.016439223169617E-003
                    94 -2.876869339344858E-004
                    95  3.115853237755633E-003
                    96  0.000000000000000E+000
                    97 -1.904557577995046E-004
                    98 -8.805321595288919E-005
                    99  0.000000000000000E+000
                   100 -5.006237788869058E-004
                   101  2.090188137593271E-005
                   102  0.000000000000000E+000
                   103  1.933899486391074E-003
                   104  1.890987836508694E-004
                   105 -2.133794729878227E-005
                   106  0.000000000000000E+000
                   107 -2.852762167947175E-005
                   108  3.618760425116968E-005
                   109  0.000000000000000E+000
                   110  8.622250494161958E-004
                   111  0.000000000000000E+000
                   112  4.355658244390721E-004
                   113  3.225407747952456E-006
                   114  0.000000000000000E+000
                   115  5.533579344717746E-005
                   116  0.000000000000000E+000
                   117 -2.573763558855055E-005
                   118 -1.121890591237402E-004
                   119  0.000000000000000E+000
                   120  0.000000000000000E+000
                   121 -5.054921926838921E-005
                   122 -2.050137516507438E-004
                   123 -7.418015754618082E-004
                   124  2.466646066572263E-004
                   125 -2.480136475654620E-004
                   126  0.000000000000000E+000
                   127 -3.633802715681117E-005
                   128 -2.248875624057042E-004
                   129  0.000000000000000E+000
                   130  2.866825291254846E-005
                   131  5.764272532482733E-004
                   132  0.000000000000000E+000
                   133  3.447945157082955E-004
                   134  6.351269904691380E-004
                   135 -2.416325920839681E-005
                   136  0.000000000000000E+000
                   137  4.315918694439239E-005
                   138  1.594989650729306E-005
                   139  0.000000000000000E+000
                   140 -3.183873638097509E-004
                   141  0.000000000000000E+000
                   142 -2.461135104286023E-004
                   143 -3.400709327607328E-005
                   144  0.000000000000000E+000
                   145 -6.622915679280382E-006
                   146  0.000000000000000E+000
                   147 -2.706018015710641E-005
                   148 -2.959283961592512E-005
                   149  0.000000000000000E+000
                   150  0.000000000000000E+000
                   151 -5.750641662278962E-006
                   152 -2.050137516507438E-004
                   153 -7.418015754618082E-004
                   154  2.466646066572263E-004
                   155 -2.480136475654620E-004
                   156  0.000000000000000E+000
                   157  3.633802715681117E-005
                   158 -2.248875624057042E-004
                   159  0.000000000000000E+000
                   160 -2.866825291254846E-005