[Molden Format]
[Atoms] AU
  N     1    7    -0.0205367200   -4.2910568000    0.0000000200        
  C     2    6     0.0901128000   -1.7564437400    0.0000000000        
  C     3    6    -2.2465144000   -0.3866666000    0.0000000000        
  C     4    6     2.3809048100   -0.3087727200   -0.0000000200        
  C     5    6    -2.2560261400    2.1956889600   -0.0000000100        
  C     6    6     2.3213974900    2.2718125700    0.0000000000        
  C     7    6     0.0142369500    3.5541877800    0.0000000000        
  H     8    1    -3.8352523500   -7.0780085500    0.0000000100        
  H     9    1     1.7858907800   -5.0176621700    0.0000000200        
  H    10    1    -3.9716190900   -1.4461130500   -0.0000000100        
  H    11    1     4.1540031500   -1.2968462500   -0.0000000300        
  H    12    1    -4.0184873400    3.2016402500   -0.0000000200        
  H    13    1     4.0532286200    3.3296734400    0.0000000100        
  H    14    1    -0.0185707600    5.5818913000    0.0000000200        
[5D]
[7F]
[GTO]
  1  0
   s    12 1.00
  0.114200D+05  0.172695D-04
  0.171200D+04  0.134411D-03
  0.389300D+03  0.694561D-03
  0.110000D+03  0.278531D-02
  0.355700D+02  0.863457D-02
  0.125400D+02  0.199805D-01
  0.464400D+01  0.262908D-01
  0.129300D+01 -0.243845D-01
  0.511800D+00 -0.924934D-01
  0.178700D+00 -0.339683D+00
  0.246240D-01  0.345111D+00
  0.112530D-01  0.752750D+00
   s    10 1.00
  0.114200D+05  0.523000D-03
  0.171200D+04  0.404500D-02
  0.389300D+03  0.207750D-01
  0.110000D+03  0.807269D-01
  0.355700D+02  0.233074D+00
  0.125400D+02  0.433501D+00
  0.464400D+01  0.347472D+00
  0.129300D+01  0.412620D-01
  0.511800D+00 -0.850799D-02
  0.178700D+00  0.238400D-02
   s    10 1.00
  0.114200D+05 -0.115000D-03
  0.171200D+04 -0.895000D-03
  0.389300D+03 -0.462400D-02
  0.110000D+03 -0.185280D-01
  0.355700D+02 -0.573390D-01
  0.125400D+02 -0.132076D+00
  0.464400D+01 -0.172510D+00
  0.129300D+01  0.151814D+00
  0.511800D+00  0.599944D+00
  0.178700D+00  0.387462D+00
   s     1 1.00
  0.129300D+01  0.100000D+01
   s     1 1.00
  0.178700D+00  0.100000D+01
   p     5 1.00
  0.266300D+02  0.146700D-01
  0.594800D+01  0.917640D-01
  0.174200D+01  0.298683D+00
  0.555000D+00  0.498487D+00
  0.172500D+00  0.337023D+00
   p     1 1.00
  0.174200D+01  0.100000D+01
   p     1 1.00
  0.555000D+00  0.100000D+01
   d     1 1.00
  0.165400D+01  0.100000D+01
   d     1 1.00
  0.469000D+00  0.100000D+01
   f     1 1.00
  0.109300D+01  0.100000D+01
  
  2  0
   s    10 1.00
  0.823600D+04  0.531000D-03
  0.123500D+04  0.410800D-02
  0.280800D+03  0.210870D-01
  0.792700D+02  0.818530D-01
  0.255900D+02  0.234817D+00
  0.899700D+01  0.434401D+00
  0.331900D+01  0.346129D+00
  0.905900D+00  0.393780D-01
  0.364300D+00 -0.898300D-02
  0.128500D+00  0.238500D-02
   s    10 1.00
  0.823600D+04 -0.113000D-03
  0.123500D+04 -0.878000D-03
  0.280800D+03 -0.454000D-02
  0.792700D+02 -0.181330D-01
  0.255900D+02 -0.557600D-01
  0.899700D+01 -0.126895D+00
  0.331900D+01 -0.170352D+00
  0.905900D+00  0.140382D+00
  0.364300D+00  0.598684D+00
  0.128500D+00  0.395389D+00
   s     1 1.00
  0.905900D+00  0.100000D+01
   s     1 1.00
  0.364300D+00  0.100000D+01
   p     5 1.00
  0.187100D+02  0.140310D-01
  0.413300D+01  0.868660D-01
  0.120000D+01  0.290216D+00
  0.382700D+00  0.501008D+00
  0.120900D+00  0.343406D+00
   p     1 1.00
  0.382700D+00  0.100000D+01
   p     1 1.00
  0.120900D+00  0.100000D+01
   d     1 1.00
  0.109700D+01  0.100000D+01
   d     1 1.00
  0.318000D+00  0.100000D+01
   f     1 1.00
  0.761000D+00  0.100000D+01
  
  3  0
   s    10 1.00
  0.823600D+04  0.531000D-03
  0.123500D+04  0.410800D-02
  0.280800D+03  0.210870D-01
  0.792700D+02  0.818530D-01
  0.255900D+02  0.234817D+00
  0.899700D+01  0.434401D+00
  0.331900D+01  0.346129D+00
  0.905900D+00  0.393780D-01
  0.364300D+00 -0.898300D-02
  0.128500D+00  0.238500D-02
   s    10 1.00
  0.823600D+04 -0.113000D-03
  0.123500D+04 -0.878000D-03
  0.280800D+03 -0.454000D-02
  0.792700D+02 -0.181330D-01
  0.255900D+02 -0.557600D-01
  0.899700D+01 -0.126895D+00
  0.331900D+01 -0.170352D+00
  0.905900D+00  0.140382D+00
  0.364300D+00  0.598684D+00
  0.128500D+00  0.395389D+00
   s     1 1.00
  0.905900D+00  0.100000D+01
   s     1 1.00
  0.364300D+00  0.100000D+01
   p     5 1.00
  0.187100D+02  0.140310D-01
  0.413300D+01  0.868660D-01
  0.120000D+01  0.290216D+00
  0.382700D+00  0.501008D+00
  0.120900D+00  0.343406D+00
   p     1 1.00
  0.382700D+00  0.100000D+01
   p     1 1.00
  0.120900D+00  0.100000D+01
   d     1 1.00
  0.109700D+01  0.100000D+01
   d     1 1.00
  0.318000D+00  0.100000D+01
   f     1 1.00
  0.761000D+00  0.100000D+01
  
  4  0
   s    10 1.00
  0.823600D+04  0.531000D-03
  0.123500D+04  0.410800D-02
  0.280800D+03  0.210870D-01
  0.792700D+02  0.818530D-01
  0.255900D+02  0.234817D+00
  0.899700D+01  0.434401D+00
  0.331900D+01  0.346129D+00
  0.905900D+00  0.393780D-01
  0.364300D+00 -0.898300D-02
  0.128500D+00  0.238500D-02
   s    10 1.00
  0.823600D+04 -0.113000D-03
  0.123500D+04 -0.878000D-03
  0.280800D+03 -0.454000D-02
  0.792700D+02 -0.181330D-01
  0.255900D+02 -0.557600D-01
  0.899700D+01 -0.126895D+00
  0.331900D+01 -0.170352D+00
  0.905900D+00  0.140382D+00
  0.364300D+00  0.598684D+00
  0.128500D+00  0.395389D+00
   s     1 1.00
  0.905900D+00  0.100000D+01
   s     1 1.00
  0.364300D+00  0.100000D+01
   p     5 1.00
  0.187100D+02  0.140310D-01
  0.413300D+01  0.868660D-01
  0.120000D+01  0.290216D+00
  0.382700D+00  0.501008D+00
  0.120900D+00  0.343406D+00
   p     1 1.00
  0.382700D+00  0.100000D+01
   p     1 1.00
  0.120900D+00  0.100000D+01
   d     1 1.00
  0.109700D+01  0.100000D+01
   d     1 1.00
  0.318000D+00  0.100000D+01
   f     1 1.00
  0.761000D+00  0.100000D+01
  
  5  0
   s    10 1.00
  0.823600D+04  0.531000D-03
  0.123500D+04  0.410800D-02
  0.280800D+03  0.210870D-01
  0.792700D+02  0.818530D-01
  0.255900D+02  0.234817D+00
  0.899700D+01  0.434401D+00
  0.331900D+01  0.346129D+00
  0.905900D+00  0.393780D-01
  0.364300D+00 -0.898300D-02
  0.128500D+00  0.238500D-02
   s    10 1.00
  0.823600D+04 -0.113000D-03
  0.123500D+04 -0.878000D-03
  0.280800D+03 -0.454000D-02
  0.792700D+02 -0.181330D-01
  0.255900D+02 -0.557600D-01
  0.899700D+01 -0.126895D+00
  0.331900D+01 -0.170352D+00
  0.905900D+00  0.140382D+00
  0.364300D+00  0.598684D+00
  0.128500D+00  0.395389D+00
   s     1 1.00
  0.905900D+00  0.100000D+01
   s     1 1.00
  0.364300D+00  0.100000D+01
   p     5 1.00
  0.187100D+02  0.140310D-01
  0.413300D+01  0.868660D-01
  0.120000D+01  0.290216D+00
  0.382700D+00  0.501008D+00
  0.120900D+00  0.343406D+00
   p     1 1.00
  0.382700D+00  0.100000D+01
   p     1 1.00
  0.120900D+00  0.100000D+01
   d     1 1.00
  0.109700D+01  0.100000D+01
   d     1 1.00
  0.318000D+00  0.100000D+01
   f     1 1.00
  0.761000D+00  0.100000D+01
  
  6  0
   s    10 1.00
  0.823600D+04  0.531000D-03
  0.123500D+04  0.410800D-02
  0.280800D+03  0.210870D-01
  0.792700D+02  0.818530D-01
  0.255900D+02  0.234817D+00
  0.899700D+01  0.434401D+00
  0.331900D+01  0.346129D+00
  0.905900D+00  0.393780D-01
  0.364300D+00 -0.898300D-02
  0.128500D+00  0.238500D-02
   s    10 1.00
  0.823600D+04 -0.113000D-03
  0.123500D+04 -0.878000D-03
  0.280800D+03 -0.454000D-02
  0.792700D+02 -0.181330D-01
  0.255900D+02 -0.557600D-01
  0.899700D+01 -0.126895D+00
  0.331900D+01 -0.170352D+00
  0.905900D+00  0.140382D+00
  0.364300D+00  0.598684D+00
  0.128500D+00  0.395389D+00
   s     1 1.00
  0.905900D+00  0.100000D+01
   s     1 1.00
  0.364300D+00  0.100000D+01
   p     5 1.00
  0.187100D+02  0.140310D-01
  0.413300D+01  0.868660D-01
  0.120000D+01  0.290216D+00
  0.382700D+00  0.501008D+00
  0.120900D+00  0.343406D+00
   p     1 1.00
  0.382700D+00  0.100000D+01
   p     1 1.00
  0.120900D+00  0.100000D+01
   d     1 1.00
  0.109700D+01  0.100000D+01
   d     1 1.00
  0.318000D+00  0.100000D+01
   f     1 1.00
  0.761000D+00  0.100000D+01
  
  7  0
   s    10 1.00
  0.823600D+04  0.531000D-03
  0.123500D+04  0.410800D-02
  0.280800D+03  0.210870D-01
  0.792700D+02  0.818530D-01
  0.255900D+02  0.234817D+00
  0.899700D+01  0.434401D+00
  0.331900D+01  0.346129D+00
  0.905900D+00  0.393780D-01
  0.364300D+00 -0.898300D-02
  0.128500D+00  0.238500D-02
   s    10 1.00
  0.823600D+04 -0.113000D-03
  0.123500D+04 -0.878000D-03
  0.280800D+03 -0.454000D-02
  0.792700D+02 -0.181330D-01
  0.255900D+02 -0.557600D-01
  0.899700D+01 -0.126895D+00
  0.331900D+01 -0.170352D+00
  0.905900D+00  0.140382D+00
  0.364300D+00  0.598684D+00
  0.128500D+00  0.395389D+00
   s     1 1.00
  0.905900D+00  0.100000D+01
   s     1 1.00
  0.364300D+00  0.100000D+01
   p     5 1.00
  0.187100D+02  0.140310D-01
  0.413300D+01  0.868660D-01
  0.120000D+01  0.290216D+00
  0.382700D+00  0.501008D+00
  0.120900D+00  0.343406D+00
   p     1 1.00
  0.382700D+00  0.100000D+01
   p     1 1.00
  0.120900D+00  0.100000D+01
   d     1 1.00
  0.109700D+01  0.100000D+01
   d     1 1.00
  0.318000D+00  0.100000D+01
   f     1 1.00
  0.761000D+00  0.100000D+01
  
  8  0
   s     4 1.00
  0.130100D+02  0.196850D-01
  0.196200D+01  0.137977D+00
  0.444600D+00  0.478148D+00
  0.122000D+00  0.501240D+00
   s     1 1.00
  0.122000D+00  0.100000D+01
   p     1 1.00
  0.727000D+00  0.100000D+01
  
  9  0
   s     4 1.00
  0.130100D+02  0.196850D-01
  0.196200D+01  0.137977D+00
  0.444600D+00  0.478148D+00
  0.122000D+00  0.501240D+00
   s     1 1.00
  0.122000D+00  0.100000D+01
   p     1 1.00
  0.727000D+00  0.100000D+01
  
 10  0
   s     4 1.00
  0.130100D+02  0.196850D-01
  0.196200D+01  0.137977D+00
  0.444600D+00  0.478148D+00
  0.122000D+00  0.501240D+00
   s     1 1.00
  0.122000D+00  0.100000D+01
   p     1 1.00
  0.727000D+00  0.100000D+01
  
 11  0
   s     4 1.00
  0.130100D+02  0.196850D-01
  0.196200D+01  0.137977D+00
  0.444600D+00  0.478148D+00
  0.122000D+00  0.501240D+00
   s     1 1.00
  0.122000D+00  0.100000D+01
   p     1 1.00
  0.727000D+00  0.100000D+01
  
 12  0
   s     4 1.00
  0.130100D+02  0.196850D-01
  0.196200D+01  0.137977D+00
  0.444600D+00  0.478148D+00
  0.122000D+00  0.501240D+00
   s     1 1.00
  0.122000D+00  0.100000D+01
   p     1 1.00
  0.727000D+00  0.100000D+01
  
 13  0
   s     4 1.00
  0.130100D+02  0.196850D-01
  0.196200D+01  0.137977D+00
  0.444600D+00  0.478148D+00
  0.122000D+00  0.501240D+00
   s     1 1.00
  0.122000D+00  0.100000D+01
   p     1 1.00
  0.727000D+00  0.100000D+01
  
 14  0
   s     4 1.00
  0.130100D+02  0.196850D-01
  0.196200D+01  0.137977D+00
  0.444600D+00  0.478148D+00
  0.122000D+00  0.501240D+00
   s     1 1.00
  0.122000D+00  0.100000D+01
   p     1 1.00
  0.727000D+00  0.100000D+01
  
[MO]
 Sym= __1_A__
 Ene=  0.000000000000000E+000
 Spin= Alpha
 Occup=    2.00000000000000     
                     1  9.215917282341810E-005
                     2  0.998378846775985     
                     3 -4.019283065257247E-003
                     4  1.848139567018466E-003
                     5  6.520059773967261E-003
                     6  2.718809549691814E-003
                     7  5.571388955152576E-003
                     8 -1.054587405750387E-010
                     9 -7.203223316234718E-004
                    10 -7.272683851892664E-004
                    11  1.867339606991937E-010
                    12 -2.445992898683187E-003
                    13 -1.971760717357871E-003
                    14 -2.322734477449786E-010
                    15 -2.538339149671449E-005
                    16  5.297248407237487E-011
                    17  7.628203119033048E-012
                    18 -1.473647251062280E-004
                    19 -6.106202180261354E-005
                    20  1.088998181463066E-004
                    21 -5.704217071208908E-011
                    22 -2.624497044200047E-010
                    23 -1.711998595719538E-004
                    24  4.749154242146096E-004
                    25 -2.789068958804629E-010
                    26 -3.026321488188605E-006
                    27 -4.264635472096140E-005
                    28  1.574705688503619E-010
                    29 -2.420019841467676E-010
                    30  3.327714028814877E-005
                    31 -9.933967878672583E-005
                    32 -2.955058176020795E-004
                    33  2.360292263974037E-005
                    34  3.117311174195763E-004
                    35 -9.332362661955880E-005
                    36 -6.220693452060038E-005
                    37 -1.884212425454798E-003
                    38 -9.591176355331459E-011
                    39  3.460030880212478E-004
                    40  8.985458987066498E-005
                    41  2.418859088455204E-010
                    42 -2.020464684960215E-003
                    43  4.769066591187872E-003
                    44 -8.708489577469777E-011
                    45  1.292030760537113E-005
                    46 -9.499889984713646E-012
                    47 -2.815826387375066E-011
                    48 -9.720265700880317E-005
                    49  1.215550662199850E-005
                    50 -1.887629778005761E-004
                    51  4.482057849754587E-011
                    52 -3.130294897674786E-010
                    53 -2.365269899936636E-006
                    54  7.521397599037437E-004
                    55  7.621484469371802E-011
                    56 -3.978488150095328E-006
                    57 -7.963382957070940E-005
                    58 -1.716398045608372E-010
                    59 -2.880066636224322E-011
                    60  1.827600872739444E-005
                    61 -1.331944770594216E-004
                    62 -5.308107960196080E-004
                    63 -1.974459773117952E-003
                    64 -9.564225219881626E-005
                    65  2.193760313375207E-003
                    66 -3.170749474747631E-004
                    67 -3.791739790174086E-005
                    68 -5.668774451189411E-011
                    69  3.691989270703067E-004
                    70  8.727386785875400E-004
                    71  5.078011878203586E-011
                    72 -1.780677008171349E-003
                    73  6.362328493906261E-004
                    74  1.519104175763529E-011
                    75 -4.724182015548816E-005
                    76 -4.737956464889519E-012
                    77  1.554411913894674E-011
                    78 -4.821121568049884E-005
                    79 -2.408238900634495E-005
                    80 -1.342306522848428E-004
                    81  6.933364533767268E-011
                    82 -3.849279706918857E-011
                    83  2.072219419728760E-005
                    84 -1.991088168437667E-005
                    85  5.229966620634448E-011
                    86  9.147903516574684E-006
                    87 -4.572342846541737E-005
                    88 -7.526656591179573E-011
                    89 -1.412242409159884E-011
                    90 -3.040325178066066E-005
                    91 -1.562728872732822E-004
                    92 -1.751746697947566E-004
                    93 -5.189183433731287E-004
                    94  1.482244456870596E-004
                    95 -4.791480355476079E-005
                    96  6.238634874244567E-005
                    97 -1.218627261738900E-004
                    98 -5.046932006380075E-011
                    99  3.344981947005192E-004
                   100  3.687739310763570E-004
                   101  1.976253838611899E-011
                   102  6.175681535189114E-004
                   103 -1.672399031411147E-003
                   104 -4.983587822545722E-011
                   105 -1.466205558692877E-005
                   106 -1.143751990813514E-012
                   107  1.517942520975210E-011
                   108 -3.481484590178846E-005
                   109 -1.146924151346619E-005
                   110  7.494558830084202E-005
                   111 -4.104321012687815E-011
                   112 -5.399383046413958E-011
                   113 -1.527353382141475E-004
                   114  1.108864826713971E-004
                   115  5.473998130164946E-011
                   116 -1.754381875186632E-005
                   117 -2.157861891529673E-005
                   118 -7.291209008483380E-011
                   119  3.949332220717731E-012
                   120 -8.959179773031361E-006
                   121 -4.337445653944915E-005
                   122 -2.408066903664027E-004
                   123 -6.645000659059949E-004
                   124  1.718723284152382E-004
                   125  2.849883866429930E-004
                   126 -3.703560410847197E-005
                   127 -2.133260053816482E-004
                   128 -1.112861677430228E-011
                   129  2.349383862422049E-004
                   130  6.417744811740644E-004
                   131 -8.779654206938292E-012
                   132  4.241859525155548E-004
                   133  1.895833187590497E-003
                   134  6.452368611810060E-011
                   135  1.525211790309759E-005
                   136  9.809261574823149E-012
                   137  3.671148078372643E-010
                   138  4.906882503814314E-005
                   139 -4.384961455057550E-006
                   140  2.034648334359346E-004
                   141  2.234192510643679E-011
                   142 -2.144022742006485E-010
                   143  3.922996469477886E-004
                   144  2.072169615243930E-004
                   145 -1.566016346221481E-012
                   146 -1.223271862259765E-005
                   147 -6.337174492720456E-005
                   148  2.494246521037948E-011
                   149  1.177972141730065E-011
                   150 -1.074768210336407E-005
                   151 -5.575159932612385E-005
                   152 -1.327008116515191E-004
                   153 -4.189245497534534E-004
                   154  5.568875709422222E-005
                   155  1.985618880208808E-004
                   156  8.715109374127026E-006
                   157 -7.468970067837254E-007
                   158 -2.411628742278154E-011
                   159 -8.218015399768356E-006
                   160  4.711340291511794E-005
                   161  6.220418416073313E-012
                   162  7.277206490978857E-004
                   163 -3.473938263615481E-004
                   164  1.087873114814904E-010
                   165  2.081226341513226E-006
                   166 -1.074876432028111E-011
                   167  3.945192240939076E-010
                   168  5.101220527268722E-006
                   169  1.315966411067438E-005
                   170  1.073927677725382E-004
                   171 -3.039522810408912E-011
                   172 -2.650887569744600E-010
                   173  4.838517206280724E-005
                   174  3.918607801861213E-005
                   175  2.116963722876553E-012
                   176  4.380324680418245E-006
                   177 -1.419469450654978E-005
                   178  2.496378478903750E-011
                   179 -1.478155375176988E-011
                   180 -2.534165166268754E-005
                   181 -3.065934470084266E-005
                   182 -1.353716794475585E-004
                   183 -4.013189652207166E-004
                   184  3.081386291702008E-005
                   185  2.109514895946023E-004
                   186 -4.510559169158635E-005
                   187 -5.808873176146251E-005
                   188  3.404210615959172E-011
                   189  2.533660853030367E-004
                   190  1.173962334073108E-004
                   191 -1.970628040367743E-011
                   192  1.274941870750997E-003
                   193 -3.085246836100783E-004
                   194 -2.631298991529435E-011
                   195  7.635099223605318E-007
                   196  1.254767349373103E-013
                   197  3.284241001537310E-011
                   198 -2.373429316696188E-006
                   199  4.065486497406257E-006
                   200 -7.525393127050343E-006
                   201 -5.050493045774506E-012
                   202  8.655074681068926E-011
                   203 -6.577898934735893E-005
                   204 -1.939052789581457E-004
                   205 -4.705273503874826E-011
                   206 -9.261180019354849E-006
                   207 -3.785378504441820E-006
                   208 -3.234972368768874E-011
                   209  3.638321405863834E-012
                   210  7.710572839916260E-006
                   211 -3.763986118159513E-006
                   212 -2.029918670617361E-005
                   213  1.104300184917357E-004
                   214  1.725446381928372E-005
                   215  2.665838594032972E-005
                   216  2.817921399265681E-014
                   217 -1.231996117119753E-003
                   218 -4.109837312325569E-004
                   219 -2.033676292550649E-004
                   220  3.754525174697623E-005
                   221 -2.005659269037391E-011
                   222 -1.558826018058652E-004
                   223 -6.428456427411874E-004
                   224  2.326036308553998E-005
                   225 -5.863835006996649E-005
                   226  1.306531572871866E-011
                   227  8.946033291129911E-005
                   228 -6.338148516365491E-004
                   229 -4.413615556894886E-005
                   230 -1.563333597427291E-005
                   231  9.230069687805209E-012
                   232  4.905141668242563E-005
                   233 -4.558576762877815E-004
                   234  1.476566314243553E-005
                   235 -4.125358135763920E-006
                   236  1.137890371712236E-011
                   237  4.178140793652295E-005
                   238 -3.573692155028038E-004
                   239 -1.001955830697876E-005
                   240 -3.364332145528142E-006
                   241  1.665662269697563E-011
                   242 -7.107171338553798E-005
                   243  8.801063115950310E-005
                   244  1.995089468398222E-008
                   245  2.917667040999257E-005
                   246 -3.829518120731882E-011
 Sym= __2_A__
 Ene=  0.000000000000000E+000
 Spin= Alpha
 Occup=    2.00000000000000     
                     1  4.747291018526348E-005
                     2  3.298369596538476E-004
                     3 -2.920943128394957E-003
                     4 -1.189431689229204E-004
                     5 -1.332379037709155E-003
                     6  3.421849484560174E-004
                     7 -2.762538323576962E-003
                     8  4.314324186887833E-011
                     9  2.610611670096676E-005
                    10  1.083077560843308E-004
                    11 -2.691609778163967E-011
                    12  4.594591172297509E-005
                    13  2.967545764439729E-004
                    14  8.975446562609945E-011
                    15 -2.648788293999476E-005
                    16 -1.619076430134918E-012
                    17 -9.460160823176240E-012
                    18  4.374394412001224E-005
                    19 -1.966303382646816E-005
                    20  1.150040245285932E-004
                    21  3.605813746946234E-012
                    22  1.548803255061893E-010
                    23 -1.160067685296265E-004
                    24  1.512378863169074E-004
                    25  1.241737438026609E-010
                    26  1.807351988578094E-005
                    27 -9.410862792450161E-005
                    28 -1.203668320915195E-010
                    29  1.643534422599002E-010
                    30  6.568279025858768E-005
                    31 -1.466385448003279E-004
                    32  -1.00089383553717     
                    33 -9.049601094557314E-003
                    34 -2.761755061485203E-003
                    35  8.065749748944084E-003
                    36  1.912457747597710E-004
                    37  3.232327263986272E-003
                    38 -1.302802458606980E-010
                    39  1.228142908591440E-004
                    40 -2.066878871318702E-004
                    41  1.201485143257951E-011
                    42  1.649495618024180E-004
                    43 -4.001835665330660E-003
                    44  4.697175896085880E-010
                    45  5.263565233409025E-004
                    46 -4.140685129333334E-011
                    47  2.193247432465188E-011
                    48  1.949836096974660E-004
                    49 -3.162797359882794E-005
                    50 -5.524156801604336E-004
                    51 -5.403478267891312E-011
                    52  3.407523853230730E-010
                    53  6.593268180060589E-004
                    54  4.144238111202092E-004
                    55 -2.104136987412895E-011
                    56 -1.302582660617994E-005
                    57 -9.869958026956456E-005
                    58  7.610418978058220E-011
                    59  1.947851838985918E-011
                    60  2.323025890070342E-005
                    61 -3.797398535776041E-004
                    62 -1.251363164977271E-002
                    63  2.039047318975472E-003
                    64  2.360485605055170E-004
                    65 -2.699761465054523E-003
                    66 -2.731263806182224E-005
                    67 -1.263323408760815E-004
                    68  1.116930371200814E-010
                    69 -5.176326034721527E-004
                    70 -1.579496710230455E-004
                    71 -2.441707436170054E-010
                    72  2.093798854197076E-003
                    73 -2.668483459856545E-004
                    74 -5.051425141581500E-010
                    75 -3.451730827933560E-005
                    76  2.371321497517886E-011
                    77  7.368328288538111E-012
                    78  7.276786925254200E-006
                    79 -4.007112574808142E-006
                    80  4.284519846947435E-004
                    81 -2.528913792344597E-010
                    82 -1.626282219587983E-010
                    83  6.610339600089966E-004
                    84  2.633111366597227E-004
                    85 -3.564974108360727E-011
                    86 -2.908671003674089E-005
                    87  5.853230723873175E-005
                    88  3.458238811970418E-011
                    89 -2.551530639286972E-011
                    90 -4.534500229566598E-005
                    91 -1.478950544785578E-004
                    92 -1.534400668931382E-002
                    93  2.106174920644160E-003
                    94  3.001380246984606E-004
                    95 -3.175144751548949E-003
                    96 -1.980416688750362E-004
                    97 -2.063551059383057E-004
                    98  1.083079352216110E-010
                    99  9.295739951787706E-004
                   100 -9.221004923710899E-006
                   101 -2.748098874445986E-010
                   102 -1.693676439059368E-003
                   103  1.863974033725941E-005
                   104 -4.824540020373051E-010
                   105 -2.341050962763728E-005
                   106 -1.473967243488353E-011
                   107  1.504657230455168E-011
                   108  8.314669343800077E-006
                   109 -3.702339733687328E-006
                   110  4.195295591425231E-004
                   111  2.287102346221149E-010
                   112 -2.350682787351745E-010
                   113  3.931141242898110E-004
                   114 -2.422199360959069E-004
                   115 -3.675034783992937E-011
                   116  3.132379313957940E-005
                   117  7.315886569647182E-005
                   118  4.162793902015386E-011
                   119  3.803022035392285E-011
                   120  2.293454669212248E-006
                   121 -1.339044139654615E-004
                   122  7.547166574031755E-005
                   123  6.570080743458919E-004
                   124 -2.300246045015267E-004
                   125  1.350060732734818E-004
                   126 -2.843393994531291E-006
                   127  4.036834598000850E-004
                   128 -2.658591831705597E-010
                   129  7.864491633028583E-005
                   130 -6.225794799141131E-004
                   131  6.650503471412608E-010
                   132 -3.739402481912432E-004
                   133 -9.206753773737807E-004
                   134  8.969494119308731E-010
                   135 -1.851000338264675E-005
                   136 -6.388118368565112E-011
                   137  3.804180407578733E-011
                   138 -3.047451109710080E-006
                   139 -4.397736456121163E-005
                   140 -1.293769864358211E-004
                   141  8.190551238037329E-010
                   142 -1.085293091231398E-010
                   143 -2.572149011806826E-004
                   144  1.066747867756224E-004
                   145  1.356477475939898E-010
                   146 -9.060036089069551E-006
                   147  3.665245002423001E-005
                   148  1.029921540726127E-010
                   149  9.454877593036428E-011
                   150  4.319571821502550E-005
                   151 -3.726394253735502E-005
                   152 -1.185861062341499E-004
                   153  6.223541693654268E-004
                   154 -2.295029285256201E-004
                   155  5.054896065185120E-005
                   156  3.917392717002418E-005
                   157  4.429298660755796E-004
                   158 -2.524530429251967E-010
                   159 -1.324774070027118E-004
                   160 -5.505697749719900E-004