[Molden Format]
[Atoms] AU
  N     1    7    -0.0205367200   -4.2910568000    0.0000000200        
  C     2    6     0.0901128000   -1.7564437400    0.0000000000        
  C     3    6    -2.2465144000   -0.3866666000    0.0000000000        
  C     4    6     2.3809048100   -0.3087727200   -0.0000000200        
  C     5    6    -2.2560261400    2.1956889600   -0.0000000100        
  C     6    6     2.3213974900    2.2718125700    0.0000000000        
  C     7    6     0.0142369500    3.5541877800    0.0000000000        
  H     8    1    -3.8352523500   -7.0780085500    0.0000000100        
  H     9    1     1.7858907800   -5.0176621700    0.0000000200        
  H    10    1    -3.9716190900   -1.4461130500   -0.0000000100        
  H    11    1     4.1540031500   -1.2968462500   -0.0000000300        
  H    12    1    -4.0184873400    3.2016402500   -0.0000000200        
  H    13    1     4.0532286200    3.3296734400    0.0000000100        
  H    14    1    -0.0185707600    5.5818913000    0.0000000200        
[5D]
[7F]
[GTO]
  1  0
   s    12 1.00
  0.114200D+05  0.172695D-04
  0.171200D+04  0.134411D-03
  0.389300D+03  0.694561D-03
  0.110000D+03  0.278531D-02
  0.355700D+02  0.863457D-02
  0.125400D+02  0.199805D-01
  0.464400D+01  0.262908D-01
  0.129300D+01 -0.243845D-01
  0.511800D+00 -0.924934D-01
  0.178700D+00 -0.339683D+00
  0.246240D-01  0.345111D+00
  0.112530D-01  0.752750D+00
   s    10 1.00
  0.114200D+05  0.523000D-03
  0.171200D+04  0.404500D-02
  0.389300D+03  0.207750D-01
  0.110000D+03  0.807269D-01
  0.355700D+02  0.233074D+00
  0.125400D+02  0.433501D+00
  0.464400D+01  0.347472D+00
  0.129300D+01  0.412620D-01
  0.511800D+00 -0.850799D-02
  0.178700D+00  0.238400D-02
   s    10 1.00
  0.114200D+05 -0.115000D-03
  0.171200D+04 -0.895000D-03
  0.389300D+03 -0.462400D-02
  0.110000D+03 -0.185280D-01
  0.355700D+02 -0.573390D-01
  0.125400D+02 -0.132076D+00
  0.464400D+01 -0.172510D+00
  0.129300D+01  0.151814D+00
  0.511800D+00  0.599944D+00
  0.178700D+00  0.387462D+00
   s     1 1.00
  0.129300D+01  0.100000D+01
   s     1 1.00
  0.178700D+00  0.100000D+01
   p     5 1.00
  0.266300D+02  0.146700D-01
  0.594800D+01  0.917640D-01
  0.174200D+01  0.298683D+00
  0.555000D+00  0.498487D+00
  0.172500D+00  0.337023D+00
   p     1 1.00
  0.174200D+01  0.100000D+01
   p     1 1.00
  0.555000D+00  0.100000D+01
   d     1 1.00
  0.165400D+01  0.100000D+01
   d     1 1.00
  0.469000D+00  0.100000D+01
   f     1 1.00
  0.109300D+01  0.100000D+01
  
  2  0
   s    10 1.00
  0.823600D+04  0.531000D-03
  0.123500D+04  0.410800D-02
  0.280800D+03  0.210870D-01
  0.792700D+02  0.818530D-01
  0.255900D+02  0.234817D+00
  0.899700D+01  0.434401D+00
  0.331900D+01  0.346129D+00
  0.905900D+00  0.393780D-01
  0.364300D+00 -0.898300D-02
  0.128500D+00  0.238500D-02
   s    10 1.00
  0.823600D+04 -0.113000D-03
  0.123500D+04 -0.878000D-03
  0.280800D+03 -0.454000D-02
  0.792700D+02 -0.181330D-01
  0.255900D+02 -0.557600D-01
  0.899700D+01 -0.126895D+00
  0.331900D+01 -0.170352D+00
  0.905900D+00  0.140382D+00
  0.364300D+00  0.598684D+00
  0.128500D+00  0.395389D+00
   s     1 1.00
  0.905900D+00  0.100000D+01
   s     1 1.00
  0.364300D+00  0.100000D+01
   p     5 1.00
  0.187100D+02  0.140310D-01
  0.413300D+01  0.868660D-01
  0.120000D+01  0.290216D+00
  0.382700D+00  0.501008D+00
  0.120900D+00  0.343406D+00
   p     1 1.00
  0.382700D+00  0.100000D+01
   p     1 1.00
  0.120900D+00  0.100000D+01
   d     1 1.00
  0.109700D+01  0.100000D+01
   d     1 1.00
  0.318000D+00  0.100000D+01
   f     1 1.00
  0.761000D+00  0.100000D+01
  
  3  0
   s    10 1.00
  0.823600D+04  0.531000D-03
  0.123500D+04  0.410800D-02
  0.280800D+03  0.210870D-01
  0.792700D+02  0.818530D-01
  0.255900D+02  0.234817D+00
  0.899700D+01  0.434401D+00
  0.331900D+01  0.346129D+00
  0.905900D+00  0.393780D-01
  0.364300D+00 -0.898300D-02
  0.128500D+00  0.238500D-02
   s    10 1.00
  0.823600D+04 -0.113000D-03
  0.123500D+04 -0.878000D-03
  0.280800D+03 -0.454000D-02
  0.792700D+02 -0.181330D-01
  0.255900D+02 -0.557600D-01
  0.899700D+01 -0.126895D+00
  0.331900D+01 -0.170352D+00
  0.905900D+00  0.140382D+00
  0.364300D+00  0.598684D+00
  0.128500D+00  0.395389D+00
   s     1 1.00
  0.905900D+00  0.100000D+01
   s     1 1.00
  0.364300D+00  0.100000D+01
   p     5 1.00
  0.187100D+02  0.140310D-01
  0.413300D+01  0.868660D-01
  0.120000D+01  0.290216D+00
  0.382700D+00  0.501008D+00
  0.120900D+00  0.343406D+00
   p     1 1.00
  0.382700D+00  0.100000D+01
   p     1 1.00
  0.120900D+00  0.100000D+01
   d     1 1.00
  0.109700D+01  0.100000D+01
   d     1 1.00
  0.318000D+00  0.100000D+01
   f     1 1.00
  0.761000D+00  0.100000D+01
  
  4  0
   s    10 1.00
  0.823600D+04  0.531000D-03
  0.123500D+04  0.410800D-02
  0.280800D+03  0.210870D-01
  0.792700D+02  0.818530D-01
  0.255900D+02  0.234817D+00
  0.899700D+01  0.434401D+00
  0.331900D+01  0.346129D+00
  0.905900D+00  0.393780D-01
  0.364300D+00 -0.898300D-02
  0.128500D+00  0.238500D-02
   s    10 1.00
  0.823600D+04 -0.113000D-03
  0.123500D+04 -0.878000D-03
  0.280800D+03 -0.454000D-02
  0.792700D+02 -0.181330D-01
  0.255900D+02 -0.557600D-01
  0.899700D+01 -0.126895D+00
  0.331900D+01 -0.170352D+00
  0.905900D+00  0.140382D+00
  0.364300D+00  0.598684D+00
  0.128500D+00  0.395389D+00
   s     1 1.00
  0.905900D+00  0.100000D+01
   s     1 1.00
  0.364300D+00  0.100000D+01
   p     5 1.00
  0.187100D+02  0.140310D-01
  0.413300D+01  0.868660D-01
  0.120000D+01  0.290216D+00
  0.382700D+00  0.501008D+00
  0.120900D+00  0.343406D+00
   p     1 1.00
  0.382700D+00  0.100000D+01
   p     1 1.00
  0.120900D+00  0.100000D+01
   d     1 1.00
  0.109700D+01  0.100000D+01
   d     1 1.00
  0.318000D+00  0.100000D+01
   f     1 1.00
  0.761000D+00  0.100000D+01
  
  5  0
   s    10 1.00
  0.823600D+04  0.531000D-03
  0.123500D+04  0.410800D-02
  0.280800D+03  0.210870D-01
  0.792700D+02  0.818530D-01
  0.255900D+02  0.234817D+00
  0.899700D+01  0.434401D+00
  0.331900D+01  0.346129D+00
  0.905900D+00  0.393780D-01
  0.364300D+00 -0.898300D-02
  0.128500D+00  0.238500D-02
   s    10 1.00
  0.823600D+04 -0.113000D-03
  0.123500D+04 -0.878000D-03
  0.280800D+03 -0.454000D-02
  0.792700D+02 -0.181330D-01
  0.255900D+02 -0.557600D-01
  0.899700D+01 -0.126895D+00
  0.331900D+01 -0.170352D+00
  0.905900D+00  0.140382D+00
  0.364300D+00  0.598684D+00
  0.128500D+00  0.395389D+00
   s     1 1.00
  0.905900D+00  0.100000D+01
   s     1 1.00
  0.364300D+00  0.100000D+01
   p     5 1.00
  0.187100D+02  0.140310D-01
  0.413300D+01  0.868660D-01
  0.120000D+01  0.290216D+00
  0.382700D+00  0.501008D+00
  0.120900D+00  0.343406D+00
   p     1 1.00
  0.382700D+00  0.100000D+01
   p     1 1.00
  0.120900D+00  0.100000D+01
   d     1 1.00
  0.109700D+01  0.100000D+01
   d     1 1.00
  0.318000D+00  0.100000D+01
   f     1 1.00
  0.761000D+00  0.100000D+01
  
  6  0
   s    10 1.00
  0.823600D+04  0.531000D-03
  0.123500D+04  0.410800D-02
  0.280800D+03  0.210870D-01
  0.792700D+02  0.818530D-01
  0.255900D+02  0.234817D+00
  0.899700D+01  0.434401D+00
  0.331900D+01  0.346129D+00
  0.905900D+00  0.393780D-01
  0.364300D+00 -0.898300D-02
  0.128500D+00  0.238500D-02
   s    10 1.00
  0.823600D+04 -0.113000D-03
  0.123500D+04 -0.878000D-03
  0.280800D+03 -0.454000D-02
  0.792700D+02 -0.181330D-01
  0.255900D+02 -0.557600D-01
  0.899700D+01 -0.126895D+00
  0.331900D+01 -0.170352D+00
  0.905900D+00  0.140382D+00
  0.364300D+00  0.598684D+00
  0.128500D+00  0.395389D+00
   s     1 1.00
  0.905900D+00  0.100000D+01
   s     1 1.00
  0.364300D+00  0.100000D+01
   p     5 1.00
  0.187100D+02  0.140310D-01
  0.413300D+01  0.868660D-01
  0.120000D+01  0.290216D+00
  0.382700D+00  0.501008D+00
  0.120900D+00  0.343406D+00
   p     1 1.00
  0.382700D+00  0.100000D+01
   p     1 1.00
  0.120900D+00  0.100000D+01
   d     1 1.00
  0.109700D+01  0.100000D+01
   d     1 1.00
  0.318000D+00  0.100000D+01
   f     1 1.00
  0.761000D+00  0.100000D+01
  
  7  0
   s    10 1.00
  0.823600D+04  0.531000D-03
  0.123500D+04  0.410800D-02
  0.280800D+03  0.210870D-01
  0.792700D+02  0.818530D-01
  0.255900D+02  0.234817D+00
  0.899700D+01  0.434401D+00
  0.331900D+01  0.346129D+00
  0.905900D+00  0.393780D-01
  0.364300D+00 -0.898300D-02
  0.128500D+00  0.238500D-02
   s    10 1.00
  0.823600D+04 -0.113000D-03
  0.123500D+04 -0.878000D-03
  0.280800D+03 -0.454000D-02
  0.792700D+02 -0.181330D-01
  0.255900D+02 -0.557600D-01
  0.899700D+01 -0.126895D+00
  0.331900D+01 -0.170352D+00
  0.905900D+00  0.140382D+00
  0.364300D+00  0.598684D+00
  0.128500D+00  0.395389D+00
   s     1 1.00
  0.905900D+00  0.100000D+01
   s     1 1.00
  0.364300D+00  0.100000D+01
   p     5 1.00
  0.187100D+02  0.140310D-01
  0.413300D+01  0.868660D-01
  0.120000D+01  0.290216D+00
  0.382700D+00  0.501008D+00
  0.120900D+00  0.343406D+00
   p     1 1.00
  0.382700D+00  0.100000D+01
   p     1 1.00
  0.120900D+00  0.100000D+01
   d     1 1.00
  0.109700D+01  0.100000D+01
   d     1 1.00
  0.318000D+00  0.100000D+01
   f     1 1.00
  0.761000D+00  0.100000D+01
  
  8  0
   s     4 1.00
  0.130100D+02  0.196850D-01
  0.196200D+01  0.137977D+00
  0.444600D+00  0.478148D+00
  0.122000D+00  0.501240D+00
   s     1 1.00
  0.122000D+00  0.100000D+01
   p     1 1.00
  0.727000D+00  0.100000D+01
  
  9  0
   s     4 1.00
  0.130100D+02  0.196850D-01
  0.196200D+01  0.137977D+00
  0.444600D+00  0.478148D+00
  0.122000D+00  0.501240D+00
   s     1 1.00
  0.122000D+00  0.100000D+01
   p     1 1.00
  0.727000D+00  0.100000D+01
  
 10  0
   s     4 1.00
  0.130100D+02  0.196850D-01
  0.196200D+01  0.137977D+00
  0.444600D+00  0.478148D+00
  0.122000D+00  0.501240D+00
   s     1 1.00
  0.122000D+00  0.100000D+01
   p     1 1.00
  0.727000D+00  0.100000D+01
  
 11  0
   s     4 1.00
  0.130100D+02  0.196850D-01
  0.196200D+01  0.137977D+00
  0.444600D+00  0.478148D+00
  0.122000D+00  0.501240D+00
   s     1 1.00
  0.122000D+00  0.100000D+01
   p     1 1.00
  0.727000D+00  0.100000D+01
  
 12  0
   s     4 1.00
  0.130100D+02  0.196850D-01
  0.196200D+01  0.137977D+00
  0.444600D+00  0.478148D+00
  0.122000D+00  0.501240D+00
   s     1 1.00
  0.122000D+00  0.100000D+01
   p     1 1.00
  0.727000D+00  0.100000D+01
  
 13  0
   s     4 1.00
  0.130100D+02  0.196850D-01
  0.196200D+01  0.137977D+00
  0.444600D+00  0.478148D+00
  0.122000D+00  0.501240D+00
   s     1 1.00
  0.122000D+00  0.100000D+01
   p     1 1.00
  0.727000D+00  0.100000D+01
  
 14  0
   s     4 1.00
  0.130100D+02  0.196850D-01
  0.196200D+01  0.137977D+00
  0.444600D+00  0.478148D+00
  0.122000D+00  0.501240D+00
   s     1 1.00
  0.122000D+00  0.100000D+01
   p     1 1.00
  0.727000D+00  0.100000D+01
  
[MO]
 Sym= __1_A__
 Ene=   1.00000000000000     
 Spin= Alpha
 Occup=    1.00000000000000     
                     1  9.215917282359026E-005
                     2  0.998378846775983     
                     3 -4.019283065250199E-003
                     4  1.848139567018304E-003
                     5  6.520059773966324E-003
                     6  2.718809549701146E-003
                     7  5.571388955159092E-003
                     8 -1.054587405731662E-010
                     9 -7.203223316232081E-004
                    10 -7.272683851890734E-004
                    11  1.867339606981320E-010
                    12 -2.445992898683266E-003
                    13 -1.971760717357208E-003
                    14 -2.322734477437800E-010
                    15 -2.538339149687634E-005
                    16  5.297248407239602E-011
                    17  7.628203118832105E-012
                    18 -1.473647251063051E-004
                    19 -6.106202180224533E-005
                    20  1.088998181458526E-004
                    21 -5.704217071214872E-011
                    22 -2.624497044172055E-010
                    23 -1.711998595727306E-004
                    24  4.749154242164742E-004
                    25 -2.789068958786230E-010
                    26 -3.026321488307891E-006
                    27 -4.264635472112428E-005
                    28  1.574705688470227E-010
                    29 -2.420019841471334E-010
                    30  3.327714028843489E-005
                    31 -9.933967878680209E-005
                    32 -2.955058176087061E-004
                    33  2.360292267871216E-005
                    34  3.117311174193058E-004
                    35 -9.332362662180405E-005
                    36 -6.220693446355683E-005
                    37 -1.884212425449543E-003
                    38 -9.591176355194208E-011
                    39  3.460030880190711E-004
                    40  8.985458987209172E-005
                    41  2.418859088421778E-010
                    42 -2.020464684976618E-003
                    43  4.769066591189810E-003
                    44 -8.708489577418267E-011
                    45  1.292030760479377E-005
                    46 -9.499889984704279E-012
                    47 -2.815826387338760E-011
                    48 -9.720265700853184E-005
                    49  1.215550662353919E-005
                    50 -1.887629778018547E-004
                    51  4.482057849733002E-011
                    52 -3.130294897647282E-010
                    53 -2.365269899165430E-006
                    54  7.521397599068171E-004
                    55  7.621484469243998E-011
                    56 -3.978488150617045E-006
                    57 -7.963382957082171E-005
                    58 -1.716398045592696E-010
                    59 -2.880066636280757E-011
                    60  1.827600872751971E-005
                    61 -1.331944770587909E-004
                    62 -5.308107960220861E-004
                    63 -1.974459773125829E-003
                    64 -9.564225219848145E-005
                    65  2.193760313376806E-003
                    66 -3.170749474978162E-004
                    67 -3.791739789279055E-005
                    68 -5.668774451198396E-011
                    69  3.691989270724127E-004
                    70  8.727386785889634E-004
                    71  5.078011878161156E-011
                    72 -1.780677008174874E-003
                    73  6.362328493916710E-004
                    74  1.519104175695958E-011
                    75 -4.724182015542546E-005
                    76 -4.737956464887337E-012
                    77  1.554411913898650E-011
                    78 -4.821121568045218E-005
                    79 -2.408238900549637E-005
                    80 -1.342306522847069E-004
                    81  6.933364533722989E-011
                    82 -3.849279706924621E-011
                    83  2.072219419725156E-005
                    84 -1.991088168396157E-005
                    85  5.229966620633789E-011
                    86  9.147903516735794E-006
                    87 -4.572342846558603E-005
                    88 -7.526656591180501E-011
                    89 -1.412242409159541E-011
                    90 -3.040325178085855E-005
                    91 -1.562728872732040E-004
                    92 -1.751746697953470E-004
                    93 -5.189183433444333E-004
                    94  1.482244456867830E-004
                    95 -4.791480355673374E-005
                    96  6.238634869999345E-005
                    97 -1.218627262079857E-004
                    98 -5.046932006353262E-011
                    99  3.344981947038779E-004
                   100  3.687739310798148E-004
                   101  1.976253838564940E-011
                   102  6.175681535270741E-004
                   103 -1.672399031404139E-003
                   104 -4.983587822649323E-011
                   105 -1.466205558740921E-005
                   106 -1.143751990883648E-012
                   107  1.517942520981946E-011
                   108 -3.481484590117872E-005
                   109 -1.146924151184127E-005
                   110  7.494558829991469E-005
                   111 -4.104321012691174E-011
                   112 -5.399383046561147E-011
                   113 -1.527353382146750E-004
                   114  1.108864826727362E-004
                   115  5.473998130170834E-011
                   116 -1.754381875151764E-005
                   117 -2.157861891499733E-005
                   118 -7.291209008449399E-011
                   119  3.949332220853937E-012
                   120 -8.959179773267700E-006
                   121 -4.337445653994229E-005
                   122 -2.408066903667659E-004
                   123 -6.645000659055252E-004
                   124  1.718723284154653E-004
                   125  2.849883866434220E-004
                   126 -3.703560410730046E-005
                   127 -2.133260053853185E-004
                   128 -1.112861677430128E-011
                   129  2.349383862423934E-004
                   130  6.417744811751949E-004
                   131 -8.779654206918776E-012
                   132  4.241859525185434E-004
                   133  1.895833187595815E-003
                   134  6.452368611849043E-011
                   135  1.525211790308550E-005
                   136  9.809261574820103E-012
                   137  3.671148078372666E-010
                   138  4.906882503797588E-005
                   139 -4.384961454680601E-006
                   140  2.034648334359600E-004
                   141  2.234192510654557E-011
                   142 -2.144022742007243E-010
                   143  3.922996469485142E-004
                   144  2.072169615247787E-004
                   145 -1.566016346221998E-012
                   146 -1.223271862259116E-005
                   147 -6.337174492722998E-005
                   148  2.494246521036282E-011
                   149  1.177972141731434E-011
                   150 -1.074768210346732E-005
                   151 -5.575159932609475E-005
                   152 -1.327008116521965E-004
                   153 -4.189245497639094E-004
                   154  5.568875709471076E-005
                   155  1.985618880210304E-004
                   156  8.715109379332660E-006
                   157 -7.468969937433961E-007
                   158 -2.411628742274958E-011
                   159 -8.218015400500509E-006
                   160  4.711340291491748E-005
                   161  6.220418416776380E-012
                   162  7.277206490997860E-004
                   163 -3.473938263621279E-004
                   164  1.087873114823675E-010
                   165  2.081226341692913E-006
                   166 -1.074876432029737E-011
                   167  3.945192240939157E-010
                   168  5.101220527653888E-006
                   169  1.315966411145673E-005
                   170  1.073927677728677E-004
                   171 -3.039522810398889E-011
                   172 -2.650887569754982E-010
                   173  4.838517206302692E-005
                   174  3.918607801924702E-005
                   175  2.116963722994363E-012
                   176  4.380324680407489E-006
                   177 -1.419469450666504E-005
                   178  2.496378478884152E-011
                   179 -1.478155375178902E-011
                   180 -2.534165166293145E-005
                   181 -3.065934470102071E-005
                   182 -1.353716794479799E-004
                   183 -4.013189652253523E-004
                   184  3.081386291718758E-005
                   185  2.109514895954937E-004
                   186 -4.510559169538246E-005
                   187 -5.808873176020140E-005
                   188  3.404210615958790E-011
                   189  2.533660853032795E-004
                   190  1.173962334074564E-004
                   191 -1.970628040355741E-011
                   192  1.274941870753258E-003
                   193 -3.085246836107739E-004
                   194 -2.631298991555300E-011
                   195  7.635099224189567E-007
                   196  1.254767349334412E-013
                   197  3.284241001533725E-011
                   198 -2.373429316623006E-006
                   199  4.065486497567714E-006
                   200 -7.525393127168892E-006
                   201 -5.050493045601193E-012
                   202  8.655074681084586E-011
                   203 -6.577898934758487E-005
                   204 -1.939052789581116E-004
                   205 -4.705273503873835E-011
                   206 -9.261180019350902E-006
                   207 -3.785378504458213E-006
                   208 -3.234972368767364E-011
                   209  3.638321405881933E-012
                   210  7.710572839938267E-006
                   211 -3.763986118163383E-006
                   212 -2.029918670597021E-005
                   213  1.104300184927352E-004
                   214  1.725446381935363E-005
                   215  2.665838594041165E-005
                   216  2.817921398770747E-014
                   217 -1.231996117114390E-003
                   218 -4.109837312370375E-004
                   219 -2.033676292556524E-004
                   220  3.754525174755605E-005
                   221 -2.005659269003404E-011
                   222 -1.558826017904107E-004
                   223 -6.428456427470699E-004
                   224  2.326036308600126E-005
                   225 -5.863835006932341E-005
                   226  1.306531572867954E-011
                   227  8.946033290029853E-005
                   228 -6.338148516378273E-004
                   229 -4.413615556906413E-005
                   230 -1.563333597496101E-005
                   231  9.230069687653589E-012
                   232  4.905141667779975E-005
                   233 -4.558576762886908E-004
                   234  1.476566314223196E-005
                   235 -4.125358135749452E-006
                   236  1.137890371714522E-011
                   237  4.178140794773920E-005
                   238 -3.573692155058428E-004
                   239 -1.001955830741268E-005
                   240 -3.364332145542151E-006
                   241  1.665662269701383E-011
                   242 -7.107171338656411E-005
                   243  8.801063115899338E-005
                   244  1.995089466009384E-008
                   245  2.917667041012487E-005
                   246 -3.829518120736232E-011
 Sym= __2_A__
 Ene=   2.00000000000000     
 Spin= Alpha
 Occup=    1.00000000000000     
                     1  4.747291018442487E-005
                     2  3.298369596508450E-004
                     3 -2.920943128409361E-003
                     4 -1.189431689227125E-004
                     5 -1.332379037710688E-003
                     6  3.421849484353267E-004
                     7 -2.762538323590891E-003
                     8  4.314324184995274E-011
                     9  2.610611670115936E-005
                    10  1.083077560842026E-004
                    11 -2.691609777046573E-011
                    12  4.594591172205671E-005
                    13  2.967545764433819E-004
                    14  8.975446561910506E-011
                    15 -2.648788293972297E-005
                    16 -1.619076429510649E-012
                    17 -9.460160821336199E-012
                    18  4.374394412020506E-005
                    19 -1.966303382709256E-005
                    20  1.150040245303752E-004
                    21  3.605813743459760E-012
                    22  1.548803254851386E-010
                    23 -1.160067685286740E-004
                    24  1.512378863122564E-004
                    25  1.241737437794932E-010
                    26  1.807351988612880E-005
                    27 -9.410862792393614E-005
                    28 -1.203668320779436E-010
                    29  1.643534422405021E-010
                    30  6.568279025779988E-005
                    31 -1.466385448003641E-004
                    32  -1.00089383553726     
                    33 -9.049601094647770E-003
                    34 -2.761755061487494E-003
                    35  8.065749748967921E-003
                    36  1.912457746535018E-004
                    37  3.232327263980055E-003
                    38 -1.302802458697899E-010
                    39  1.228142908695039E-004
                    40 -2.066878871315934E-004
                    41  1.201485145553367E-011
                    42  1.649495618280381E-004
                    43 -4.001835665341355E-003
                    44  4.697175896057213E-010
                    45  5.263565233422877E-004
                    46 -4.140685129434522E-011
                    47  2.193247432071895E-011
                    48  1.949836096963559E-004
                    49 -3.162797360105987E-005
                    50 -5.524156801605165E-004
                    51 -5.403478267158500E-011
                    52  3.407523853018496E-010
                    53  6.593268180096316E-004
                    54  4.144238111128962E-004
                    55 -2.104136986450765E-011
                    56 -1.302582660473630E-005
                    57 -9.869958026925548E-005
                    58  7.610418976845122E-011
                    59  1.947851838699667E-011
                    60  2.323025890056398E-005
                    61 -3.797398535796741E-004
                    62 -1.251363165039445E-002
                    63  2.039047318980896E-003
                    64  2.360485605043049E-004
                    65 -2.699761465054315E-003
                    66 -2.731263801759232E-005
                    67 -1.263323408829114E-004
                    68  1.116930371186479E-010
                    69 -5.176326034783420E-004
                    70 -1.579496710246640E-004
                    71 -2.441707436120678E-010
                    72  2.093798854202683E-003
                    73 -2.668483459880368E-004
                    74 -5.051425141501915E-010
                    75 -3.451730827906763E-005
                    76  2.371321497423793E-011
                    77  7.368328288592807E-012
                    78  7.276786924775634E-006
                    79 -4.007112576399628E-006
                    80  4.284519846945834E-004
                    81 -2.528913792293546E-010
                    82 -1.626282219581769E-010
                    83  6.610339600096342E-004
                    84  2.633111366605361E-004
                    85 -3.564974108384398E-011
                    86 -2.908671003701827E-005
                    87  5.853230723887598E-005
                    88  3.458238811813148E-011
                    89 -2.551530639328483E-011
                    90 -4.534500229525383E-005
                    91 -1.478950544787545E-004
                    92 -1.534400668294037E-002
                    93  2.106174920650963E-003
                    94  3.001380247185591E-004
                    95 -3.175144751600642E-003
                    96 -1.980416688119306E-004
                    97 -2.063551058376299E-004
                    98  1.083079352223775E-010
                    99  9.295739951788028E-004
                   100 -9.221004931923548E-006
                   101 -2.748098874433709E-010
                   102 -1.693676439078808E-003
                   103  1.863974031989080E-005
                   104 -4.824540020311710E-010
                   105 -2.341050962950105E-005
                   106 -1.473967243480728E-011
                   107  1.504657230346122E-011
                   108  8.314669340662667E-006
                   109 -3.702339736105635E-006
                   110  4.195295591472108E-004
                   111  2.287102346206869E-010
                   112 -2.350682787259940E-010
                   113  3.931141242943480E-004
                   114 -2.422199361066269E-004
                   115 -3.675034784020624E-011
                   116  3.132379313832971E-005
                   117  7.315886569565183E-005
                   118  4.162793901907458E-011
                   119  3.803022035349251E-011
                   120  2.293454669699122E-006
                   121 -1.339044139664533E-004
                   122  7.547166571573190E-005
                   123  6.570080743425272E-004
                   124 -2.300246045018715E-004
                   125  1.350060732762306E-004
                   126 -2.843393997346017E-006
                   127  4.036834597990297E-004
                   128 -2.658591831689899E-010
                   129  7.864491632910938E-005
                   130 -6.225794799153588E-004
                   131  6.650503471371734E-010
                   132 -3.739402481993670E-004
                   133 -9.206753773831896E-004
                   134  8.969494119231820E-010
                   135 -1.851000338269914E-005
                   136 -6.388118368525696E-011
                   137  3.804180407570627E-011
                   138 -3.047451109679228E-006
                   139 -4.397736456190535E-005
                   140 -1.293769864358567E-004
                   141  8.190551237983939E-010
                   142 -1.085293091219644E-010
                   143 -2.572149011828146E-004
                   144  1.066747867746112E-004
                   145  1.356477475931783E-010
                   146 -9.060036088994004E-006
                   147  3.665245002436350E-005
                   148  1.029921540724250E-010
                   149  9.454877592960378E-011
                   150  4.319571821522025E-005
                   151 -3.726394253717911E-005
                   152 -1.185861060452963E-004
                   153  6.223541693962319E-004
                   154 -2.295029285287421E-004
                   155  5.054896066922215E-005
                   156  3.917392716317278E-005
                   157  4.429298660144669E-004
                   158 -2.524530429232520E-010
                   159 -1.324774070028206E-004
                   160 -5.505697749722620E-004