[Molden Format]
[Atoms] AU
  N     1    7     0.0000000000   -4.2907334100    0.0000000000        
  C     2    6     0.0000000000   -1.7772236300    0.0000000000        
  C     3    6    -2.3389203600   -0.4111016300    0.0000000000        
  C     4    6     2.3389203600   -0.4111016300    0.0000000000        
  C     5    6    -2.2998668500    2.1639215300    0.0000000000        
  C     6    6     2.2998668500    2.1639215300    0.0000000000        
  C     7    6     0.0000000000    3.4755251800    0.0000000000        
  H     8    1    -2.5732809600   -5.8782318000    0.0000000000        
  H     9    1     2.0907907800   -5.5805758500    0.0000000000        
  H    10    1    -4.0745407300   -1.4447408500    0.0000000000        
  H    11    1     4.0745407300   -1.4447408500    0.0000000000        
  H    12    1    -4.0420632100    3.1963889500    0.0000000000        
  H    13    1     4.0420632100    3.1963889500    0.0000000000        
  H    14    1     0.0000000000    5.5020335600    0.0000000000        
[5D]
[7F]
[GTO]
  1  0
   s    12 1.00
  0.114200D+05  0.172695D-04
  0.171200D+04  0.134411D-03
  0.389300D+03  0.694561D-03
  0.110000D+03  0.278531D-02
  0.355700D+02  0.863457D-02
  0.125400D+02  0.199805D-01
  0.464400D+01  0.262908D-01
  0.129300D+01 -0.243845D-01
  0.511800D+00 -0.924934D-01
  0.178700D+00 -0.339683D+00
  0.246240D-01  0.345111D+00
  0.112530D-01  0.752750D+00
   s    10 1.00
  0.114200D+05  0.523000D-03
  0.171200D+04  0.404500D-02
  0.389300D+03  0.207750D-01
  0.110000D+03  0.807269D-01
  0.355700D+02  0.233074D+00
  0.125400D+02  0.433501D+00
  0.464400D+01  0.347472D+00
  0.129300D+01  0.412620D-01
  0.511800D+00 -0.850799D-02
  0.178700D+00  0.238400D-02
   s    10 1.00
  0.114200D+05 -0.115000D-03
  0.171200D+04 -0.895000D-03
  0.389300D+03 -0.462400D-02
  0.110000D+03 -0.185280D-01
  0.355700D+02 -0.573390D-01
  0.125400D+02 -0.132076D+00
  0.464400D+01 -0.172510D+00
  0.129300D+01  0.151814D+00
  0.511800D+00  0.599944D+00
  0.178700D+00  0.387462D+00
   s     1 1.00
  0.129300D+01  0.100000D+01
   s     1 1.00
  0.178700D+00  0.100000D+01
   p     5 1.00
  0.266300D+02  0.146700D-01
  0.594800D+01  0.917640D-01
  0.174200D+01  0.298683D+00
  0.555000D+00  0.498487D+00
  0.172500D+00  0.337023D+00
   p     1 1.00
  0.174200D+01  0.100000D+01
   p     1 1.00
  0.555000D+00  0.100000D+01
   d     1 1.00
  0.165400D+01  0.100000D+01
   d     1 1.00
  0.469000D+00  0.100000D+01
   f     1 1.00
  0.109300D+01  0.100000D+01
  
  2  0
   s    10 1.00
  0.823600D+04  0.531000D-03
  0.123500D+04  0.410800D-02
  0.280800D+03  0.210870D-01
  0.792700D+02  0.818530D-01
  0.255900D+02  0.234817D+00
  0.899700D+01  0.434401D+00
  0.331900D+01  0.346129D+00
  0.905900D+00  0.393780D-01
  0.364300D+00 -0.898300D-02
  0.128500D+00  0.238500D-02
   s    10 1.00
  0.823600D+04 -0.113000D-03
  0.123500D+04 -0.878000D-03
  0.280800D+03 -0.454000D-02
  0.792700D+02 -0.181330D-01
  0.255900D+02 -0.557600D-01
  0.899700D+01 -0.126895D+00
  0.331900D+01 -0.170352D+00
  0.905900D+00  0.140382D+00
  0.364300D+00  0.598684D+00
  0.128500D+00  0.395389D+00
   s     1 1.00
  0.905900D+00  0.100000D+01
   s     1 1.00
  0.364300D+00  0.100000D+01
   p     5 1.00
  0.187100D+02  0.140310D-01
  0.413300D+01  0.868660D-01
  0.120000D+01  0.290216D+00
  0.382700D+00  0.501008D+00
  0.120900D+00  0.343406D+00
   p     1 1.00
  0.382700D+00  0.100000D+01
   p     1 1.00
  0.120900D+00  0.100000D+01
   d     1 1.00
  0.109700D+01  0.100000D+01
   d     1 1.00
  0.318000D+00  0.100000D+01
   f     1 1.00
  0.761000D+00  0.100000D+01
  
  3  0
   s    10 1.00
  0.823600D+04  0.531000D-03
  0.123500D+04  0.410800D-02
  0.280800D+03  0.210870D-01
  0.792700D+02  0.818530D-01
  0.255900D+02  0.234817D+00
  0.899700D+01  0.434401D+00
  0.331900D+01  0.346129D+00
  0.905900D+00  0.393780D-01
  0.364300D+00 -0.898300D-02
  0.128500D+00  0.238500D-02
   s    10 1.00
  0.823600D+04 -0.113000D-03
  0.123500D+04 -0.878000D-03
  0.280800D+03 -0.454000D-02
  0.792700D+02 -0.181330D-01
  0.255900D+02 -0.557600D-01
  0.899700D+01 -0.126895D+00
  0.331900D+01 -0.170352D+00
  0.905900D+00  0.140382D+00
  0.364300D+00  0.598684D+00
  0.128500D+00  0.395389D+00
   s     1 1.00
  0.905900D+00  0.100000D+01
   s     1 1.00
  0.364300D+00  0.100000D+01
   p     5 1.00
  0.187100D+02  0.140310D-01
  0.413300D+01  0.868660D-01
  0.120000D+01  0.290216D+00
  0.382700D+00  0.501008D+00
  0.120900D+00  0.343406D+00
   p     1 1.00
  0.382700D+00  0.100000D+01
   p     1 1.00
  0.120900D+00  0.100000D+01
   d     1 1.00
  0.109700D+01  0.100000D+01
   d     1 1.00
  0.318000D+00  0.100000D+01
   f     1 1.00
  0.761000D+00  0.100000D+01
  
  4  0
   s    10 1.00
  0.823600D+04  0.531000D-03
  0.123500D+04  0.410800D-02
  0.280800D+03  0.210870D-01
  0.792700D+02  0.818530D-01
  0.255900D+02  0.234817D+00
  0.899700D+01  0.434401D+00
  0.331900D+01  0.346129D+00
  0.905900D+00  0.393780D-01
  0.364300D+00 -0.898300D-02
  0.128500D+00  0.238500D-02
   s    10 1.00
  0.823600D+04 -0.113000D-03
  0.123500D+04 -0.878000D-03
  0.280800D+03 -0.454000D-02
  0.792700D+02 -0.181330D-01
  0.255900D+02 -0.557600D-01
  0.899700D+01 -0.126895D+00
  0.331900D+01 -0.170352D+00
  0.905900D+00  0.140382D+00
  0.364300D+00  0.598684D+00
  0.128500D+00  0.395389D+00
   s     1 1.00
  0.905900D+00  0.100000D+01
   s     1 1.00
  0.364300D+00  0.100000D+01
   p     5 1.00
  0.187100D+02  0.140310D-01
  0.413300D+01  0.868660D-01
  0.120000D+01  0.290216D+00
  0.382700D+00  0.501008D+00
  0.120900D+00  0.343406D+00
   p     1 1.00
  0.382700D+00  0.100000D+01
   p     1 1.00
  0.120900D+00  0.100000D+01
   d     1 1.00
  0.109700D+01  0.100000D+01
   d     1 1.00
  0.318000D+00  0.100000D+01
   f     1 1.00
  0.761000D+00  0.100000D+01
  
  5  0
   s    10 1.00
  0.823600D+04  0.531000D-03
  0.123500D+04  0.410800D-02
  0.280800D+03  0.210870D-01
  0.792700D+02  0.818530D-01
  0.255900D+02  0.234817D+00
  0.899700D+01  0.434401D+00
  0.331900D+01  0.346129D+00
  0.905900D+00  0.393780D-01
  0.364300D+00 -0.898300D-02
  0.128500D+00  0.238500D-02
   s    10 1.00
  0.823600D+04 -0.113000D-03
  0.123500D+04 -0.878000D-03
  0.280800D+03 -0.454000D-02
  0.792700D+02 -0.181330D-01
  0.255900D+02 -0.557600D-01
  0.899700D+01 -0.126895D+00
  0.331900D+01 -0.170352D+00
  0.905900D+00  0.140382D+00
  0.364300D+00  0.598684D+00
  0.128500D+00  0.395389D+00
   s     1 1.00
  0.905900D+00  0.100000D+01
   s     1 1.00
  0.364300D+00  0.100000D+01
   p     5 1.00
  0.187100D+02  0.140310D-01
  0.413300D+01  0.868660D-01
  0.120000D+01  0.290216D+00
  0.382700D+00  0.501008D+00
  0.120900D+00  0.343406D+00
   p     1 1.00
  0.382700D+00  0.100000D+01
   p     1 1.00
  0.120900D+00  0.100000D+01
   d     1 1.00
  0.109700D+01  0.100000D+01
   d     1 1.00
  0.318000D+00  0.100000D+01
   f     1 1.00
  0.761000D+00  0.100000D+01
  
  6  0
   s    10 1.00
  0.823600D+04  0.531000D-03
  0.123500D+04  0.410800D-02
  0.280800D+03  0.210870D-01
  0.792700D+02  0.818530D-01
  0.255900D+02  0.234817D+00
  0.899700D+01  0.434401D+00
  0.331900D+01  0.346129D+00
  0.905900D+00  0.393780D-01
  0.364300D+00 -0.898300D-02
  0.128500D+00  0.238500D-02
   s    10 1.00
  0.823600D+04 -0.113000D-03
  0.123500D+04 -0.878000D-03
  0.280800D+03 -0.454000D-02
  0.792700D+02 -0.181330D-01
  0.255900D+02 -0.557600D-01
  0.899700D+01 -0.126895D+00
  0.331900D+01 -0.170352D+00
  0.905900D+00  0.140382D+00
  0.364300D+00  0.598684D+00
  0.128500D+00  0.395389D+00
   s     1 1.00
  0.905900D+00  0.100000D+01
   s     1 1.00
  0.364300D+00  0.100000D+01
   p     5 1.00
  0.187100D+02  0.140310D-01
  0.413300D+01  0.868660D-01
  0.120000D+01  0.290216D+00
  0.382700D+00  0.501008D+00
  0.120900D+00  0.343406D+00
   p     1 1.00
  0.382700D+00  0.100000D+01
   p     1 1.00
  0.120900D+00  0.100000D+01
   d     1 1.00
  0.109700D+01  0.100000D+01
   d     1 1.00
  0.318000D+00  0.100000D+01
   f     1 1.00
  0.761000D+00  0.100000D+01
  
  7  0
   s    10 1.00
  0.823600D+04  0.531000D-03
  0.123500D+04  0.410800D-02
  0.280800D+03  0.210870D-01
  0.792700D+02  0.818530D-01
  0.255900D+02  0.234817D+00
  0.899700D+01  0.434401D+00
  0.331900D+01  0.346129D+00
  0.905900D+00  0.393780D-01
  0.364300D+00 -0.898300D-02
  0.128500D+00  0.238500D-02
   s    10 1.00
  0.823600D+04 -0.113000D-03
  0.123500D+04 -0.878000D-03
  0.280800D+03 -0.454000D-02
  0.792700D+02 -0.181330D-01
  0.255900D+02 -0.557600D-01
  0.899700D+01 -0.126895D+00
  0.331900D+01 -0.170352D+00
  0.905900D+00  0.140382D+00
  0.364300D+00  0.598684D+00
  0.128500D+00  0.395389D+00
   s     1 1.00
  0.905900D+00  0.100000D+01
   s     1 1.00
  0.364300D+00  0.100000D+01
   p     5 1.00
  0.187100D+02  0.140310D-01
  0.413300D+01  0.868660D-01
  0.120000D+01  0.290216D+00
  0.382700D+00  0.501008D+00
  0.120900D+00  0.343406D+00
   p     1 1.00
  0.382700D+00  0.100000D+01
   p     1 1.00
  0.120900D+00  0.100000D+01
   d     1 1.00
  0.109700D+01  0.100000D+01
   d     1 1.00
  0.318000D+00  0.100000D+01
   f     1 1.00
  0.761000D+00  0.100000D+01
  
  8  0
   s     4 1.00
  0.130100D+02  0.196850D-01
  0.196200D+01  0.137977D+00
  0.444600D+00  0.478148D+00
  0.122000D+00  0.501240D+00
   s     1 1.00
  0.122000D+00  0.100000D+01
   p     1 1.00
  0.727000D+00  0.100000D+01
  
  9  0
   s     4 1.00
  0.130100D+02  0.196850D-01
  0.196200D+01  0.137977D+00
  0.444600D+00  0.478148D+00
  0.122000D+00  0.501240D+00
   s     1 1.00
  0.122000D+00  0.100000D+01
   p     1 1.00
  0.727000D+00  0.100000D+01
  
 10  0
   s     4 1.00
  0.130100D+02  0.196850D-01
  0.196200D+01  0.137977D+00
  0.444600D+00  0.478148D+00
  0.122000D+00  0.501240D+00
   s     1 1.00
  0.122000D+00  0.100000D+01
   p     1 1.00
  0.727000D+00  0.100000D+01
  
 11  0
   s     4 1.00
  0.130100D+02  0.196850D-01
  0.196200D+01  0.137977D+00
  0.444600D+00  0.478148D+00
  0.122000D+00  0.501240D+00
   s     1 1.00
  0.122000D+00  0.100000D+01
   p     1 1.00
  0.727000D+00  0.100000D+01
  
 12  0
   s     4 1.00
  0.130100D+02  0.196850D-01
  0.196200D+01  0.137977D+00
  0.444600D+00  0.478148D+00
  0.122000D+00  0.501240D+00
   s     1 1.00
  0.122000D+00  0.100000D+01
   p     1 1.00
  0.727000D+00  0.100000D+01
  
 13  0
   s     4 1.00
  0.130100D+02  0.196850D-01
  0.196200D+01  0.137977D+00
  0.444600D+00  0.478148D+00
  0.122000D+00  0.501240D+00
   s     1 1.00
  0.122000D+00  0.100000D+01
   p     1 1.00
  0.727000D+00  0.100000D+01
  
 14  0
   s     4 1.00
  0.130100D+02  0.196850D-01
  0.196200D+01  0.137977D+00
  0.444600D+00  0.478148D+00
  0.122000D+00  0.501240D+00
   s     1 1.00
  0.122000D+00  0.100000D+01
   p     1 1.00
  0.727000D+00  0.100000D+01
  
[MO]
 Sym= __1_A'_
 Ene=   1.00000000000000     
 Spin= Alpha
 Occup=    1.00000000000000     
                     1  4.039179669051873E-005
                     2  0.998699504257309     
                     3  1.408892486119080E-003
                     4  1.342950840739473E-003
                     5  4.688558585763118E-003
                     6  3.290334007268307E-003
                     7  6.210080917556727E-003
                     8  0.000000000000000E+000
                     9 -7.745470561553936E-004
                    10 -4.986946946338685E-004
                    11  0.000000000000000E+000
                    12 -2.246791272734717E-003
                    13 -1.883456417883805E-003
                    14  0.000000000000000E+000
                    15 -6.098984875040633E-005
                    16  0.000000000000000E+000
                    17  0.000000000000000E+000
                    18 -2.415399417459992E-004
                    19 -2.080973515297941E-005
                    20  1.808550942522536E-004
                    21  0.000000000000000E+000
                    22  0.000000000000000E+000
                    23 -2.055539842781810E-004
                    24  4.238250704978525E-004
                    25  0.000000000000000E+000
                    26 -1.050917000312250E-006
                    27 -4.927659638843767E-005
                    28  0.000000000000000E+000
                    29  0.000000000000000E+000
                    30  2.508833977444620E-005
                    31 -1.040220511281473E-004
                    32 -2.876320052013529E-004
                    33  1.267277974642302E-003
                    34  2.401257555362892E-004
                    35 -2.577314128172730E-004
                    36 -1.632995174812391E-004
                    37 -4.276056224569272E-003
                    38  0.000000000000000E+000
                    39  5.435835862105679E-004
                    40  4.441588896756768E-005
                    41  0.000000000000000E+000
                    42 -2.305789640385514E-003
                    43  5.308652247654117E-003
                    44  0.000000000000000E+000
                    45 -2.503580947040004E-005
                    46  0.000000000000000E+000
                    47  0.000000000000000E+000
                    48 -2.262041633106398E-004
                    49 -5.896607057336772E-006
                    50 -2.679271866783814E-004
                    51  0.000000000000000E+000
                    52  0.000000000000000E+000
                    53 -7.685012527794923E-005
                    54  7.169257845167519E-004
                    55  0.000000000000000E+000
                    56 -1.564545833669127E-005
                    57 -3.937386545269072E-005
                    58  0.000000000000000E+000
                    59  0.000000000000000E+000
                    60 -5.337175412101275E-006
                    61 -1.084115917670352E-004
                    62 -5.107450747412796E-004
                    63 -2.233859925217143E-003
                    64 -9.448272829967539E-005
                    65  2.132727568507623E-003
                    66 -6.254415414964359E-004
                    67  4.140252776131541E-004
                    68  0.000000000000000E+000
                    69  4.464743883047452E-004
                    70  7.458900259480895E-004
                    71  0.000000000000000E+000
                    72 -1.745038042838204E-003
                    73  7.393031263115647E-004
                    74  0.000000000000000E+000
                    75 -4.201897833768224E-005
                    76  0.000000000000000E+000
                    77  0.000000000000000E+000
                    78 -7.684770786345307E-005
                    79 -2.917592685354625E-005
                    80 -1.550140257584391E-004
                    81  0.000000000000000E+000
                    82  0.000000000000000E+000
                    83  5.950719642829918E-005
                    84  3.754051009014616E-005
                    85  0.000000000000000E+000
                    86  5.617978600192724E-006
                    87 -4.410384098590118E-005
                    88  0.000000000000000E+000
                    89  0.000000000000000E+000
                    90 -1.347003763457422E-005
                    91 -1.534803330034546E-004
                    92 -1.194929777342453E-004
                    93 -8.723463599576664E-004
                    94  1.989591409598061E-004
                    95 -2.814174877804014E-004
                    96  4.840636250656723E-004
                    97  5.445799527459632E-004
                    98  0.000000000000000E+000
                    99  3.927179114992849E-004
                   100  2.468411690242653E-004
                   101  0.000000000000000E+000
                   102  5.284668903310061E-004
                   103 -1.422368847160392E-003
                   104  0.000000000000000E+000
                   105 -7.167635978697782E-006
                   106  0.000000000000000E+000
                   107  0.000000000000000E+000
                   108 -5.557266763428430E-005
                   109 -1.716279764528231E-005
                   110  1.445797865790892E-004
                   111  0.000000000000000E+000
                   112  0.000000000000000E+000
                   113 -1.298859229444844E-004
                   114 -1.479495218661642E-005
                   115  0.000000000000000E+000
                   116 -2.568696618588426E-005
                   117 -3.269358575011146E-005
                   118  0.000000000000000E+000
                   119  0.000000000000000E+000
                   120  1.695829849074894E-005
                   121 -2.658606222936823E-005
                   122 -2.789400152150112E-004
                   123 -6.161407712359738E-004
                   124  1.695610320625737E-004
                   125  4.247120332802069E-004
                   126 -1.893267990334126E-005
                   127 -4.884166647152869E-004
                   128  0.000000000000000E+000
                   129  2.238569950221178E-004
                   130  5.958815282083746E-004
                   131  0.000000000000000E+000
                   132  3.397774921866420E-004
                   133  2.010865968409792E-003
                   134  0.000000000000000E+000
                   135  9.752672529556097E-006
                   136  0.000000000000000E+000
                   137  0.000000000000000E+000
                   138  4.397974488803288E-005
                   139 -5.989576521339141E-007
                   140  2.073041305024747E-004
                   141  0.000000000000000E+000
                   142  0.000000000000000E+000
                   143  3.495531153201936E-004
                   144  2.393895923137750E-004
                   145  0.000000000000000E+000
                   146 -9.015969738792733E-006
                   147 -5.984248717778693E-005
                   148  0.000000000000000E+000
                   149  0.000000000000000E+000
                   150 -1.877635561549238E-005
                   151 -4.719296736272710E-005
                   152 -1.859344401249795E-004
                   153 -3.410518926828816E-004
                   154  3.350547613532139E-005
                   155  4.279534826335680E-004
                   156 -2.511823914308320E-005
                   157 -4.031713837386855E-004
                   158  0.000000000000000E+000
                   159  6.964217113192435E-006
                   160  2.990003822827633E-005
                   161  0.000000000000000E+000
                   162  6.975393870322560E-004
                   163 -2.940754113246277E-004
                   164  0.000000000000000E+000
                   165 -3.266317730770658E-006
                   166  0.000000000000000E+000
                   167  0.000000000000000E+000
                   168 -6.183510088040958E-006
                   169  6.563002043584208E-006
                   170  5.404554355814554E-005
                   171  0.000000000000000E+000
                   172  0.000000000000000E+000
                   173  1.211943994299409E-006
                   174 -1.899719951801575E-005
                   175  0.000000000000000E+000
                   176  5.102792657183663E-006
                   177 -7.341476349209318E-006
                   178  0.000000000000000E+000
                   179  0.000000000000000E+000
                   180 -2.517486328680134E-005
                   181 -6.996288026046704E-006
                   182 -1.704646452427917E-004
                   183 -4.887310877367600E-004
                   184  5.337448078884487E-005
                   185  2.506280383786567E-004
                   186 -3.840562894763679E-005
                   187 -5.272650212280996E-005
                   188  0.000000000000000E+000
                   189  2.014904381836380E-004
                   190  6.259792061061764E-005
                   191  0.000000000000000E+000
                   192  1.292568361924774E-003
                   193 -1.525943684284835E-004
                   194  0.000000000000000E+000
                   195 -1.676034906093502E-006
                   196  0.000000000000000E+000
                   197  0.000000000000000E+000
                   198 -1.355004572297645E-005
                   199  6.922840378174655E-006
                   200  2.852073638879601E-005
                   201  0.000000000000000E+000
                   202  0.000000000000000E+000
                   203 -8.272122973049892E-005
                   204 -1.829371424756606E-004
                   205  0.000000000000000E+000
                   206 -5.896353301249365E-006
                   207 -6.636126247807199E-006
                   208  0.000000000000000E+000
                   209  0.000000000000000E+000
                   210  1.093225058832530E-005
                   211 -1.353929427492308E-006
                   212  2.606607124036094E-005
                   213  6.261273647964383E-005
                   214  1.350949023095096E-004
                   215  1.329870200348869E-004
                   216  0.000000000000000E+000
                   217 -2.318955806333174E-004
                   218 -5.298932587676263E-004
                   219 -2.909029307680861E-004
                   220  1.473540199343264E-004
                   221  0.000000000000000E+000
                   222 -3.819107025329013E-004
                   223 -6.550855077339495E-004
                   224  4.059828484698936E-006
                   225 -6.683832798769316E-005
                   226  0.000000000000000E+000
                   227 -1.842074232761201E-004
                   228 -5.220500097020822E-004
                   229 -5.576066127335681E-006
                   230 -1.482231395981493E-005
                   231  0.000000000000000E+000
                   232 -4.523609368206968E-005
                   233 -5.728425229279342E-004
                   234  7.520986391003974E-006
                   235 -5.747440005825741E-006
                   236  0.000000000000000E+000
                   237 -1.410097028134753E-004
                   238 -3.760126471468940E-004
                   239  7.362008508981193E-006
                   240  2.910724616284566E-006
                   241  0.000000000000000E+000
                   242  1.427168668040516E-005
                   243 -3.932560169618733E-005
                   244  1.272186095581355E-007
                   245  2.055409950323433E-005
                   246  0.000000000000000E+000
 Sym= __2_A'_
 Ene=   2.00000000000000     
 Spin= Alpha
 Occup=    1.00000000000000     
                     1 -5.461630051118821E-005
                     2 -3.519833119290445E-004
                     3  2.978438760844400E-003
                     4  1.674623578958651E-004
                     5  1.329242420003254E-003
                     6 -1.487221163195329E-004
                     7  2.907632874134961E-003
                     8  0.000000000000000E+000
                     9 -3.135360344675413E-005
                    10 -1.228588166366852E-004
                    11  0.000000000000000E+000
                    12  3.464097740709503E-005
                    13 -3.886175192313637E-004
                    14  0.000000000000000E+000
                    15  3.357785195700659E-005
                    16  0.000000000000000E+000
                    17  0.000000000000000E+000
                    18 -4.951776424354562E-005
                    19  1.009979968564499E-005
                    20 -1.152365645068767E-004
                    21  0.000000000000000E+000
                    22  0.000000000000000E+000
                    23  1.235575230684835E-004
                    24 -4.484191351463579E-006
                    25  0.000000000000000E+000
                    26 -8.514848109666231E-006
                    27  8.849855634488461E-005
                    28  0.000000000000000E+000
                    29  0.000000000000000E+000
                    30 -5.838003255300071E-006
                    31  1.517154513252816E-004
                    32   1.00101464739494     
                    33  9.290526936824471E-003
                    34  2.740612714832670E-003
                    35 -8.127312934715454E-003
                    36 -1.063858445624672E-004
                    37 -3.647798350254694E-003
                    38  0.000000000000000E+000
                    39  1.420781096151631E-004
                    40  5.318847748479456E-004
                    41  0.000000000000000E+000
                    42  3.041762916654707E-005
                    43  4.234288600877056E-003
                    44  0.000000000000000E+000
                    45 -5.712032303782934E-004
                    46  0.000000000000000E+000
                    47  0.000000000000000E+000
                    48 -2.008480201689584E-004
                    49  4.862853133432277E-007
                    50  5.502699617750738E-004
                    51  0.000000000000000E+000
                    52  0.000000000000000E+000
                    53 -8.691187069141000E-004
                    54  4.441237943565132E-005
                    55  0.000000000000000E+000
                    56 -5.634255494731556E-006
                    57  9.239682759110459E-005
                    58  0.000000000000000E+000
                    59  0.000000000000000E+000
                    60  5.091122663820326E-006
                    61  3.989977273750238E-004
                    62  9.181312588237506E-003
                    63 -2.090133818506403E-003
                    64 -2.955629069560086E-004
                    65  3.068528339122700E-003
                    66 -2.193250335630246E-005
                    67  1.099882811681809E-004
                    68  0.000000000000000E+000
                    69  7.271147093783727E-004
                    70  3.569574747253798E-006
                    71  0.000000000000000E+000
                    72 -2.047900624027569E-003
                    73  7.698182372932947E-005
                    74  0.000000000000000E+000
                    75  2.702852645363140E-005
                    76  0.000000000000000E+000
                    77  0.000000000000000E+000
                    78 -2.509293904129756E-006
                    79  2.715030296250296E-006
                    80 -4.129327327184099E-004
                    81  0.000000000000000E+000
                    82  0.000000000000000E+000
                    83 -5.861524237825548E-004
                    84 -3.749535491760447E-004
                    85  0.000000000000000E+000
                    86  3.229895254800860E-005
                    87 -5.860297090095775E-005
                    88  0.000000000000000E+000
                    89  0.000000000000000E+000
                    90  5.104582985644400E-005
                    91  1.399671441304566E-004
                    92  9.609901678078315E-003
                    93 -2.060794635413683E-003
                    94 -2.767926118573138E-004
                    95  2.999457410885021E-003
                    96  2.542008365522818E-007
                    97  7.796360324564129E-005
                    98  0.000000000000000E+000
                    99 -6.530782608432159E-004
                   100  6.228079036527601E-005
                   101  0.000000000000000E+000
                   102  2.041353088992289E-003
                   103  6.997809191904406E-005
                   104  0.000000000000000E+000
                   105  3.117079632190660E-005
                   106  0.000000000000000E+000
                   107  0.000000000000000E+000
                   108 -5.384071704011620E-006
                   109 -7.472978840177011E-006
                   110 -4.085247048526601E-004
                   111  0.000000000000000E+000
                   112  0.000000000000000E+000
                   113 -6.117675316159516E-004
                   114  3.557620440210275E-004
                   115  0.000000000000000E+000
                   116 -3.297024852663379E-005
                   117 -5.978698594916534E-005
                   118  0.000000000000000E+000
                   119  0.000000000000000E+000
                   120 -4.988065293792633E-005
                   121  1.380090550148830E-004
                   122 -1.584252214786972E-004
                   123 -6.761903926290440E-004
                   124  2.265627054670531E-004
                   125 -1.120172792597065E-004
                   126 -1.383706140923029E-006
                   127 -3.389370233725956E-004
                   128  0.000000000000000E+000
                   129 -6.161830027608808E-005
                   130  5.394556448887628E-004
                   131  0.000000000000000E+000
                   132  3.220465550656073E-004
                   133  7.547436284097592E-004
                   134  0.000000000000000E+000
                   135  1.912311814620922E-005
                   136  0.000000000000000E+000
                   137  0.000000000000000E+000
                   138  3.720352965971238E-006
                   139  5.300179595553521E-005
                   140  1.364751510225561E-004
                   141  0.000000000000000E+000
                   142  0.000000000000000E+000
                   143  2.435041887165492E-004
                   144 -1.845901145768208E-004
                   145  0.000000000000000E+000
                   146  7.092148117678131E-006
                   147 -3.344221811590085E-005
                   148  0.000000000000000E+000
                   149  0.000000000000000E+000
                   150 -4.726904634561703E-005
                   151  2.819333629411580E-005
                   152 -1.476547180816248E-004
                   153 -6.822775332997014E-004
                   154  2.297470856132109E-004
                   155 -1.345716497323614E-004
                   156  2.121578447587699E-006
                   157 -3.321324008449971E-004
                   158  0.000000000000000E+000
                   159  5.078511977108808E-005
                   160  5.625069885051960E-004