[Molden Format]
[Atoms] AU
  N     1    7     0.0000000000    0.0000000000   -4.2907334100        
  C     2    6     0.0000000000    0.0000000000   -1.7772236300        
  C     3    6     0.0000000000   -2.3389203600   -0.4111016300        
  C     4    6     0.0000000000    2.3389203600   -0.4111016300        
  C     5    6     0.0000000000   -2.2998668500    2.1639215300        
  C     6    6     0.0000000000    2.2998668500    2.1639215300        
  C     7    6     0.0000000000    0.0000000000    3.4755251800        
  H     8    1     0.0000000000   -2.0907907800   -5.5805758500        
  H     9    1     0.0000000000    1.6528040300   -5.3103747800        
  H    10    1     0.0000000000   -4.0745407300   -1.4447408500        
  H    11    1     0.0000000000    4.0745407300   -1.4447408500        
  H    12    1     0.0000000000   -4.0420632100    3.1963889500        
  H    13    1     0.0000000000    4.0420632100    3.1963889500        
  H    14    1     0.0000000000    0.0000000000    5.5020335600        
[5D]
[7F]
[GTO]
  1  0
   s    12 1.00
  0.114200D+05  0.172695D-04
  0.171200D+04  0.134411D-03
  0.389300D+03  0.694561D-03
  0.110000D+03  0.278531D-02
  0.355700D+02  0.863457D-02
  0.125400D+02  0.199805D-01
  0.464400D+01  0.262908D-01
  0.129300D+01 -0.243845D-01
  0.511800D+00 -0.924934D-01
  0.178700D+00 -0.339683D+00
  0.246240D-01  0.345111D+00
  0.112530D-01  0.752750D+00
   s    10 1.00
  0.114200D+05  0.523000D-03
  0.171200D+04  0.404500D-02
  0.389300D+03  0.207750D-01
  0.110000D+03  0.807269D-01
  0.355700D+02  0.233074D+00
  0.125400D+02  0.433501D+00
  0.464400D+01  0.347472D+00
  0.129300D+01  0.412620D-01
  0.511800D+00 -0.850799D-02
  0.178700D+00  0.238400D-02
   s    10 1.00
  0.114200D+05 -0.115000D-03
  0.171200D+04 -0.895000D-03
  0.389300D+03 -0.462400D-02
  0.110000D+03 -0.185280D-01
  0.355700D+02 -0.573390D-01
  0.125400D+02 -0.132076D+00
  0.464400D+01 -0.172510D+00
  0.129300D+01  0.151814D+00
  0.511800D+00  0.599944D+00
  0.178700D+00  0.387462D+00
   s     1 1.00
  0.129300D+01  0.100000D+01
   s     1 1.00
  0.178700D+00  0.100000D+01
   p     5 1.00
  0.266300D+02  0.146700D-01
  0.594800D+01  0.917640D-01
  0.174200D+01  0.298683D+00
  0.555000D+00  0.498487D+00
  0.172500D+00  0.337023D+00
   p     1 1.00
  0.174200D+01  0.100000D+01
   p     1 1.00
  0.555000D+00  0.100000D+01
   d     1 1.00
  0.165400D+01  0.100000D+01
   d     1 1.00
  0.469000D+00  0.100000D+01
   f     1 1.00
  0.109300D+01  0.100000D+01
  
  2  0
   s    10 1.00
  0.823600D+04  0.531000D-03
  0.123500D+04  0.410800D-02
  0.280800D+03  0.210870D-01
  0.792700D+02  0.818530D-01
  0.255900D+02  0.234817D+00
  0.899700D+01  0.434401D+00
  0.331900D+01  0.346129D+00
  0.905900D+00  0.393780D-01
  0.364300D+00 -0.898300D-02
  0.128500D+00  0.238500D-02
   s    10 1.00
  0.823600D+04 -0.113000D-03
  0.123500D+04 -0.878000D-03
  0.280800D+03 -0.454000D-02
  0.792700D+02 -0.181330D-01
  0.255900D+02 -0.557600D-01
  0.899700D+01 -0.126895D+00
  0.331900D+01 -0.170352D+00
  0.905900D+00  0.140382D+00
  0.364300D+00  0.598684D+00
  0.128500D+00  0.395389D+00
   s     1 1.00
  0.905900D+00  0.100000D+01
   s     1 1.00
  0.364300D+00  0.100000D+01
   p     5 1.00
  0.187100D+02  0.140310D-01
  0.413300D+01  0.868660D-01
  0.120000D+01  0.290216D+00
  0.382700D+00  0.501008D+00
  0.120900D+00  0.343406D+00
   p     1 1.00
  0.382700D+00  0.100000D+01
   p     1 1.00
  0.120900D+00  0.100000D+01
   d     1 1.00
  0.109700D+01  0.100000D+01
   d     1 1.00
  0.318000D+00  0.100000D+01
   f     1 1.00
  0.761000D+00  0.100000D+01
  
  3  0
   s    10 1.00
  0.823600D+04  0.531000D-03
  0.123500D+04  0.410800D-02
  0.280800D+03  0.210870D-01
  0.792700D+02  0.818530D-01
  0.255900D+02  0.234817D+00
  0.899700D+01  0.434401D+00
  0.331900D+01  0.346129D+00
  0.905900D+00  0.393780D-01
  0.364300D+00 -0.898300D-02
  0.128500D+00  0.238500D-02
   s    10 1.00
  0.823600D+04 -0.113000D-03
  0.123500D+04 -0.878000D-03
  0.280800D+03 -0.454000D-02
  0.792700D+02 -0.181330D-01
  0.255900D+02 -0.557600D-01
  0.899700D+01 -0.126895D+00
  0.331900D+01 -0.170352D+00
  0.905900D+00  0.140382D+00
  0.364300D+00  0.598684D+00
  0.128500D+00  0.395389D+00
   s     1 1.00
  0.905900D+00  0.100000D+01
   s     1 1.00
  0.364300D+00  0.100000D+01
   p     5 1.00
  0.187100D+02  0.140310D-01
  0.413300D+01  0.868660D-01
  0.120000D+01  0.290216D+00
  0.382700D+00  0.501008D+00
  0.120900D+00  0.343406D+00
   p     1 1.00
  0.382700D+00  0.100000D+01
   p     1 1.00
  0.120900D+00  0.100000D+01
   d     1 1.00
  0.109700D+01  0.100000D+01
   d     1 1.00
  0.318000D+00  0.100000D+01
   f     1 1.00
  0.761000D+00  0.100000D+01
  
  4  0
   s    10 1.00
  0.823600D+04  0.531000D-03
  0.123500D+04  0.410800D-02
  0.280800D+03  0.210870D-01
  0.792700D+02  0.818530D-01
  0.255900D+02  0.234817D+00
  0.899700D+01  0.434401D+00
  0.331900D+01  0.346129D+00
  0.905900D+00  0.393780D-01
  0.364300D+00 -0.898300D-02
  0.128500D+00  0.238500D-02
   s    10 1.00
  0.823600D+04 -0.113000D-03
  0.123500D+04 -0.878000D-03
  0.280800D+03 -0.454000D-02
  0.792700D+02 -0.181330D-01
  0.255900D+02 -0.557600D-01
  0.899700D+01 -0.126895D+00
  0.331900D+01 -0.170352D+00
  0.905900D+00  0.140382D+00
  0.364300D+00  0.598684D+00
  0.128500D+00  0.395389D+00
   s     1 1.00
  0.905900D+00  0.100000D+01
   s     1 1.00
  0.364300D+00  0.100000D+01
   p     5 1.00
  0.187100D+02  0.140310D-01
  0.413300D+01  0.868660D-01
  0.120000D+01  0.290216D+00
  0.382700D+00  0.501008D+00
  0.120900D+00  0.343406D+00
   p     1 1.00
  0.382700D+00  0.100000D+01
   p     1 1.00
  0.120900D+00  0.100000D+01
   d     1 1.00
  0.109700D+01  0.100000D+01
   d     1 1.00
  0.318000D+00  0.100000D+01
   f     1 1.00
  0.761000D+00  0.100000D+01
  
  5  0
   s    10 1.00
  0.823600D+04  0.531000D-03
  0.123500D+04  0.410800D-02
  0.280800D+03  0.210870D-01
  0.792700D+02  0.818530D-01
  0.255900D+02  0.234817D+00
  0.899700D+01  0.434401D+00
  0.331900D+01  0.346129D+00
  0.905900D+00  0.393780D-01
  0.364300D+00 -0.898300D-02
  0.128500D+00  0.238500D-02
   s    10 1.00
  0.823600D+04 -0.113000D-03
  0.123500D+04 -0.878000D-03
  0.280800D+03 -0.454000D-02
  0.792700D+02 -0.181330D-01
  0.255900D+02 -0.557600D-01
  0.899700D+01 -0.126895D+00
  0.331900D+01 -0.170352D+00
  0.905900D+00  0.140382D+00
  0.364300D+00  0.598684D+00
  0.128500D+00  0.395389D+00
   s     1 1.00
  0.905900D+00  0.100000D+01
   s     1 1.00
  0.364300D+00  0.100000D+01
   p     5 1.00
  0.187100D+02  0.140310D-01
  0.413300D+01  0.868660D-01
  0.120000D+01  0.290216D+00
  0.382700D+00  0.501008D+00
  0.120900D+00  0.343406D+00
   p     1 1.00
  0.382700D+00  0.100000D+01
   p     1 1.00
  0.120900D+00  0.100000D+01
   d     1 1.00
  0.109700D+01  0.100000D+01
   d     1 1.00
  0.318000D+00  0.100000D+01
   f     1 1.00
  0.761000D+00  0.100000D+01
  
  6  0
   s    10 1.00
  0.823600D+04  0.531000D-03
  0.123500D+04  0.410800D-02
  0.280800D+03  0.210870D-01
  0.792700D+02  0.818530D-01
  0.255900D+02  0.234817D+00
  0.899700D+01  0.434401D+00
  0.331900D+01  0.346129D+00
  0.905900D+00  0.393780D-01
  0.364300D+00 -0.898300D-02
  0.128500D+00  0.238500D-02
   s    10 1.00
  0.823600D+04 -0.113000D-03
  0.123500D+04 -0.878000D-03
  0.280800D+03 -0.454000D-02
  0.792700D+02 -0.181330D-01
  0.255900D+02 -0.557600D-01
  0.899700D+01 -0.126895D+00
  0.331900D+01 -0.170352D+00
  0.905900D+00  0.140382D+00
  0.364300D+00  0.598684D+00
  0.128500D+00  0.395389D+00
   s     1 1.00
  0.905900D+00  0.100000D+01
   s     1 1.00
  0.364300D+00  0.100000D+01
   p     5 1.00
  0.187100D+02  0.140310D-01
  0.413300D+01  0.868660D-01
  0.120000D+01  0.290216D+00
  0.382700D+00  0.501008D+00
  0.120900D+00  0.343406D+00
   p     1 1.00
  0.382700D+00  0.100000D+01
   p     1 1.00
  0.120900D+00  0.100000D+01
   d     1 1.00
  0.109700D+01  0.100000D+01
   d     1 1.00
  0.318000D+00  0.100000D+01
   f     1 1.00
  0.761000D+00  0.100000D+01
  
  7  0
   s    10 1.00
  0.823600D+04  0.531000D-03
  0.123500D+04  0.410800D-02
  0.280800D+03  0.210870D-01
  0.792700D+02  0.818530D-01
  0.255900D+02  0.234817D+00
  0.899700D+01  0.434401D+00
  0.331900D+01  0.346129D+00
  0.905900D+00  0.393780D-01
  0.364300D+00 -0.898300D-02
  0.128500D+00  0.238500D-02
   s    10 1.00
  0.823600D+04 -0.113000D-03
  0.123500D+04 -0.878000D-03
  0.280800D+03 -0.454000D-02
  0.792700D+02 -0.181330D-01
  0.255900D+02 -0.557600D-01
  0.899700D+01 -0.126895D+00
  0.331900D+01 -0.170352D+00
  0.905900D+00  0.140382D+00
  0.364300D+00  0.598684D+00
  0.128500D+00  0.395389D+00
   s     1 1.00
  0.905900D+00  0.100000D+01
   s     1 1.00
  0.364300D+00  0.100000D+01
   p     5 1.00
  0.187100D+02  0.140310D-01
  0.413300D+01  0.868660D-01
  0.120000D+01  0.290216D+00
  0.382700D+00  0.501008D+00
  0.120900D+00  0.343406D+00
   p     1 1.00
  0.382700D+00  0.100000D+01
   p     1 1.00
  0.120900D+00  0.100000D+01
   d     1 1.00
  0.109700D+01  0.100000D+01
   d     1 1.00
  0.318000D+00  0.100000D+01
   f     1 1.00
  0.761000D+00  0.100000D+01
  
  8  0
   s     4 1.00
  0.130100D+02  0.196850D-01
  0.196200D+01  0.137977D+00
  0.444600D+00  0.478148D+00
  0.122000D+00  0.501240D+00
   s     1 1.00
  0.122000D+00  0.100000D+01
   p     1 1.00
  0.727000D+00  0.100000D+01
  
  9  0
   s     4 1.00
  0.130100D+02  0.196850D-01
  0.196200D+01  0.137977D+00
  0.444600D+00  0.478148D+00
  0.122000D+00  0.501240D+00
   s     1 1.00
  0.122000D+00  0.100000D+01
   p     1 1.00
  0.727000D+00  0.100000D+01
  
 10  0
   s     4 1.00
  0.130100D+02  0.196850D-01
  0.196200D+01  0.137977D+00
  0.444600D+00  0.478148D+00
  0.122000D+00  0.501240D+00
   s     1 1.00
  0.122000D+00  0.100000D+01
   p     1 1.00
  0.727000D+00  0.100000D+01
  
 11  0
   s     4 1.00
  0.130100D+02  0.196850D-01
  0.196200D+01  0.137977D+00
  0.444600D+00  0.478148D+00
  0.122000D+00  0.501240D+00
   s     1 1.00
  0.122000D+00  0.100000D+01
   p     1 1.00
  0.727000D+00  0.100000D+01
  
 12  0
   s     4 1.00
  0.130100D+02  0.196850D-01
  0.196200D+01  0.137977D+00
  0.444600D+00  0.478148D+00
  0.122000D+00  0.501240D+00
   s     1 1.00
  0.122000D+00  0.100000D+01
   p     1 1.00
  0.727000D+00  0.100000D+01
  
 13  0
   s     4 1.00
  0.130100D+02  0.196850D-01
  0.196200D+01  0.137977D+00
  0.444600D+00  0.478148D+00
  0.122000D+00  0.501240D+00
   s     1 1.00
  0.122000D+00  0.100000D+01
   p     1 1.00
  0.727000D+00  0.100000D+01
  
 14  0
   s     4 1.00
  0.130100D+02  0.196850D-01
  0.196200D+01  0.137977D+00
  0.444600D+00  0.478148D+00
  0.122000D+00  0.501240D+00
   s     1 1.00
  0.122000D+00  0.100000D+01
   p     1 1.00
  0.727000D+00  0.100000D+01
  
[MO]
 Sym= __1_a__
 Ene=  0.000000000000000E+000
 Spin= Alpha
 Occup=    2.00000000000000     
                     1  1.704359346666890E-006
                     2  0.998392584662297     
                     3  5.471597709689050E-003
                     4  1.766085047438740E-003
                     5  2.804465626763890E-003
                     6  7.561002865801159E-012
                     7  1.148474889094530E-003
                     8  5.116804820721970E-003
                     9 -6.360339922472820E-012
                    10 -1.147164487647870E-005
                    11 -1.938312407745950E-004
                    12 -6.038430335118520E-012
                    13 -5.881138844331180E-004
                    14 -7.021116604036580E-004
                    15  2.560964567416895E-004
                    16 -6.212827270539930E-013
                    17 -8.239444595387650E-005
                    18 -2.756110467982240E-005
                    19 -1.511329806998110E-012
                    20  9.545928840857447E-005
                    21 -1.526343379696990E-012
                    22  1.641231658051570E-004
                    23  4.599713450308160E-004
                    24  1.695817580636690E-012
                    25 -1.402832032898478E-004
                    26  1.154748620290985E-012
                    27  8.485108070229065E-006
                    28  4.353607963037380E-005
                    29 -4.323169094041620E-013
                    30  1.210221146040643E-012
                    31 -1.618635312274393E-005
                    32 -3.249764935620190E-004
                    33  2.166270482749990E-003
                    34  1.595659138954830E-004
                    35 -2.114510293424480E-004
                    36 -1.520688890711550E-011
                    37 -9.685615885025780E-005
                    38 -5.898522472801740E-003
                    39  7.887390394040219E-012
                    40  1.055266197420430E-004
                    41  1.924879592510520E-004
                    42 -5.078436587474030E-012
                    43 -4.971665035452390E-004
                    44  4.728972505469690E-003
                    45  2.925905184381810E-004
                    46 -1.230986406531160E-012
                    47 -2.125790598661490E-005
                    48  1.194386656688686E-004
                    49 -1.654736242904340E-012
                    50  1.305334618052091E-004
                    51  3.854275290401260E-012
                    52  1.956295086544840E-004
                    53 -3.486131712241820E-004
                    54 -1.107037164419080E-012
                    55 -1.042799639867214E-004
                    56 -1.226286466004727E-012
                    57  1.117420279866756E-005
                    58  5.811178875176400E-005
                    59 -4.099133551778590E-012
                    60  2.486963854065254E-012
                    61 -1.845852970501493E-006
                    62 -2.605672334300630E-004
                    63 -1.560196650327910E-003
                    64  1.253396226288610E-005
                    65  9.149399599033090E-004
                    66  1.242067141241580E-011
                    67 -7.009770612459390E-004
                    68  6.836429187956300E-004
                    69 -7.617503617889691E-012
                    70  1.002988238366490E-004
                    71  6.179618176107440E-004
                    72 -2.077944861574050E-012
                    73 -9.987212823809419E-004
                    74  8.225496368936500E-005
                    75  8.198882134801845E-005
                    76  1.159731200962970E-012
                    77 -1.303165894139460E-005
                    78  2.306801947481840E-005
                    79 -3.041214010519770E-012
                    80 -9.008898633742525E-006
                    81  1.463707828806740E-012
                    82  1.342365895471120E-004
                    83 -4.654939321372400E-005
                    84 -2.169790161434590E-012
                    85 -1.060805379050189E-004
                    86  5.868501665388537E-013
                    87 -3.147279973633006E-005
                    88  2.693367301772640E-005
                    89  1.542769962865460E-012
                    90 -7.435268840325531E-013
                    91  9.978943236592312E-006
                    92 -2.173397816247980E-004
                    93 -1.564436955756750E-003
                    94  9.387778031165440E-005
                    95  4.204637176066370E-004
                    96  9.569630992123390E-012
                    97  7.465397090356030E-004
                    98  8.623885045253520E-004
                    99 -1.292759541719470E-012
                   100  1.260300944582640E-004
                   101  5.331373382644131E-004
                   102  2.966571185277920E-012
                   103  5.696621209986600E-004
                   104 -5.451993341309580E-004
                   105  8.124812022623385E-005
                   106 -2.623495771512470E-012
                   107 -6.869346920461170E-007
                   108  3.708347465324220E-005
                   109  4.372272271408870E-013
                   110  2.649081482195100E-005
                   111  4.773665921914640E-012
                   112 -1.161949427451130E-004
                   113  2.270992589011720E-005
                   114  3.095475180161720E-012
                   115 -8.109191285152384E-005
                   116  1.760205272425679E-012
                   117  2.134272045758743E-005
                   118  1.627635647329670E-005
                   119 -3.280444496684030E-013
                   120  5.883010380993478E-013
                   121 -1.399112867746384E-005
                   122 -1.777597391165640E-004
                   123 -2.055939373071710E-004
                   124  1.189856396779280E-004
                   125  2.154487144545940E-004
                   126 -8.966178746693611E-012
                   127  2.096132518062440E-005
                   128 -6.225391627000780E-004
                   129  4.603641948803040E-012
                   130  8.152929732405380E-005
                   131  3.963187039090650E-004
                   132  5.267797983277450E-012
                   133  2.083645790597170E-007
                   134  1.048631316195480E-003
                   135 -2.431348533852896E-005
                   136 -2.346123209794170E-012
                   137 -8.013869647845150E-007
                   138 -2.506380755221620E-006
                   139 -7.308501436700340E-013
                   140 -2.393172865104117E-004
                   141  2.055367852668880E-012
                   142  1.729711499573310E-004
                   143  6.285756968279640E-006
                   144  4.037940432994590E-012
                   145 -4.652492406958363E-005
                   146 -2.739301276106197E-013
                   147  6.896807573372389E-007
                   148 -1.223769158941340E-005
                   149  2.267155502957970E-012
                   150 -6.384074702706705E-013
                   151 -6.222073191917718E-006
                   152 -1.624792333843030E-004
                   153 -1.115759508161480E-004
                   154  9.554977144373930E-005
                   155  2.080403456410160E-004
                   156 -1.161895454681230E-011
                   157 -2.820971160467160E-005
                   158 -6.660165226182940E-004
                   159  7.198508809803300E-012
                   160 -4.385526784694410E-005
                   161  2.834469271236760E-004
                   162  4.208084155558650E-013
                   163  3.649301858863180E-004
                   164  4.663258742614320E-004
                   165 -1.294628371345567E-005
                   166 -7.086184271904520E-013
                   167 -3.790937165092020E-007
                   168 -1.179898041726312E-006
                   169  4.067233027991060E-012
                   170 -1.625041507581309E-004
                   171  7.102792511797580E-012
                   172 -1.248268216970020E-004
                   173  3.006173348585480E-005
                   174 -1.066638820851590E-011
                   175 -3.442990921537251E-005
                   176  2.161490395843738E-012
                   177 -6.668425654749614E-006
                   178 -7.225107796006940E-006
                   179 -1.688157350639130E-012
                   180  4.110502406228336E-012
                   181  2.840533186019267E-006
                   182 -1.302587107945360E-004
                   183 -3.534558077897970E-004
                   184  3.974658737934930E-005
                   185  1.644144528424210E-004
                   186  2.715179786669580E-012
                   187 -1.054161232419260E-005
                   188 -4.806797440056130E-005
                   189 -7.892673539868421E-012
                   190  5.016053436568760E-005
                   191  3.614484301913060E-005
                   192 -4.204373849216430E-012
                   193  3.424352007745670E-004
                   194 -2.808490556167310E-005
                   195  1.657580287006801E-005
                   196 -1.249481164630990E-012
                   197  5.116654218954890E-007
                   198  7.484195662559240E-006
                   199  1.178606198253170E-012
                   200  5.518814871006512E-005
                   201  6.989957357154960E-012
                   202 -4.062726154926970E-005
                   203  5.699794525726580E-005
                   204 -6.828868349068110E-012
                   205 -8.664411941527815E-006
                   206  1.897462714356103E-012
                   207  2.188535732961461E-006
                   208 -4.322690316327080E-007
                   209  1.127502517422400E-012
                   210 -1.692151956806155E-012
                   211 -9.740111060170863E-007
                   212  7.251542928846340E-004
                   213 -6.163973579127770E-004
                   214  1.666102182200200E-012
                   215  2.967308292935350E-004
                   216  2.432532296481500E-004
                   217  2.855755596175540E-003
                   218 -1.909998255568280E-003
                   219 -6.574944088613750E-013
                   220 -4.040833224911330E-004
                   221  3.129198528302890E-004
                   222 -4.720786743748360E-004
                   223 -4.042083017840370E-004
                   224 -2.928375454410920E-012
                   225 -6.924456709154020E-006
                   226 -4.472479768160990E-005
                   227 -5.094086645789600E-004
                   228 -2.335474009537630E-004
                   229 -1.294895837193520E-012
                   230  8.363279087542171E-006
                   231 -3.513113438873990E-005
                   232 -1.606492598013970E-004
                   233 -4.327625817114250E-004
                   234  1.830815726393720E-012
                   235 -1.998177499446410E-006
                   236  3.229106279135870E-006
                   237 -1.899576382087190E-004
                   238 -4.361720898856670E-004
                   239 -2.346378336332840E-012
                   240  2.560640965021120E-006
                   241  9.956714660533409E-007
                   242  4.670286372363590E-005
                   243 -9.381675329509230E-005
                   244 -2.937505705534300E-012
                   245 -6.651172361913380E-007
                   246  1.593155136116580E-005
 Sym= __2_a__
 Ene=  0.000000000000000E+000
 Spin= Alpha
 Occup=    2.00000000000000     
                     1 -5.347937633732980E-005
                     2 -2.718081512163130E-004
                     3  2.626302296317930E-003
                     4  1.277899809491180E-004
                     5  1.282930075168430E-003
                     6 -2.585216160727990E-012
                     7 -1.758143782283980E-004
                     8  3.119414408957840E-003
                     9 -1.004079509140470E-012
                    10 -3.595576618116880E-005
                    11 -7.809611306017500E-005
                    12  5.127732859615860E-012
                    13  8.813925304364300E-005
                    14 -4.880678927208010E-004
                    15  4.047682576731102E-005
                    16 -4.713300363251090E-013
                    17 -6.875673313993520E-006
                    18  6.400104033742960E-005
                    19 -1.187979720654080E-013
                    20 -1.798080962826435E-004
                    21 -1.256299122267870E-013
                    22  3.425270330512110E-005
                    23 -2.634201138976380E-004
                    24 -4.529051590680540E-013
                    25  1.778301205785691E-004
                    26  1.504606154411449E-012
                    27 -1.356517740174963E-005
                    28 -8.751780813366561E-006
                    29 -6.190772196303250E-013
                    30 -3.366401910296789E-012
                    31 -1.232858625924915E-005
                    32   1.00104394196913     
                    33  9.370316704865910E-003
                    34  2.671340316535120E-003
                    35 -7.902784032014779E-003
                    36  6.270576833980160E-012
                    37 -3.342458615297590E-005
                    38 -4.137813684611520E-003
                    39 -1.446606951411500E-011
                    40  3.913760420017210E-006
                    41  8.894336245578630E-004
                    42  7.914299865393031E-012
                    43  6.281071603388501E-005
                    44  4.425986318691630E-003
                    45  4.755377776247018E-004
                    46  4.170315968493510E-013
                    47 -8.694625673520870E-006
                    48 -4.179664004346660E-004
                    49 -2.734156650414740E-012
                    50  5.410248051148128E-004
                    51  9.499582779745509E-013
                    52  6.655178795680340E-005
                    53  9.235627828812920E-004
                    54  1.781965419621080E-011
                    55  3.833604696564720E-004
                    56 -6.416211411023547E-013
                    57 -6.031432441257688E-006
                    58 -1.954777992303214E-004
                    59  4.107369621506890E-013
                    60 -4.402079213952238E-012
                    61  3.289406723074754E-007
                    62  7.663085811746130E-003
                    63 -2.073496359727710E-003
                    64 -2.764869308222730E-004
                    65  3.043817645387010E-003
                    66 -8.640072134667970E-012
                    67  5.101614912712350E-005
                    68  3.823949067398540E-005
                    69  1.260660677572890E-011
                    70  6.477768939694910E-004
                    71  1.764013271014890E-005
                    72  1.659240266034500E-012
                    73 -2.071256485159760E-003
                    74  7.354837833607240E-005
                    75 -1.117250696829966E-005
                    76  1.236172577969280E-012
                    77  8.827976033742871E-006
                    78  2.931610965110340E-005
                    79 -9.436292358016110E-013
                    80  7.298391372246084E-004
                    81 -1.107477444157810E-011
                    82 -3.933506333977530E-004
                    83 -3.051481653674380E-005
                    84  5.265549141075110E-012
                    85  7.420078758481770E-005
                    86 -3.373604837618267E-013
                    87  4.516983668798992E-005
                    88 -1.300253879027154E-004
                    89 -4.278262090067080E-012
                    90  2.029767153708363E-012
                    91  5.029130404488435E-005
                    92  7.876657114193480E-003
                    93 -2.103460720119400E-003
                    94 -2.772640464464700E-004
                    95  3.026227829113810E-003
                    96  1.509801682929090E-011
                    97 -3.336925335447180E-005
                    98  4.714366501717690E-005
                    99 -1.004238060265500E-011
                   100 -6.071055286269390E-004
                   101  3.601690729934460E-005
                   102 -9.687441870682920E-012
                   103  2.105875803260490E-003
                   104  1.183197544999730E-004
                   105 -1.368204766344163E-005
                   106 -8.822660920107870E-013
                   107 -1.304410055398420E-005
                   108  3.010291679472660E-005
                   109 -9.960919699024469E-013
                   110  7.706449805997817E-004
                   111  1.627679426332720E-011
                   112  4.048917330285100E-004
                   113 -1.886146201693466E-005
                   114  1.131466059408410E-011
                   115  7.365808355559969E-005
                   116  8.796494621008217E-013
                   117 -4.499607381265565E-005
                   118 -1.280835801914858E-004
                   119 -6.801656353325020E-013
                   120 -1.065669093127189E-012
                   121 -4.684312123127072E-005
                   122 -2.216186169243640E-004
                   123 -7.247132111484530E-004
                   124  2.240376000211940E-004
                   125 -9.945189950685230E-005
                   126 -1.497389484510630E-011
                   127 -1.112718887848490E-005
                   128 -2.936965216283270E-004
                   129  1.327223648319690E-011
                   130 -3.643297571744590E-005
                   131  5.276362993158250E-004
                   132  9.883618962490349E-013
                   133  3.100392455446750E-004
                   134  7.366833056004680E-004
                   135 -1.311727695798660E-005
                   136 -2.306685007904300E-012
                   137  5.236170442374300E-005
                   138  1.443665854578784E-005
                   139  2.590808353858270E-012
                   140 -2.831238901704275E-004
                   141 -4.239416112314730E-012
                   142 -2.024705783376010E-004
                   143 -8.964906153242279E-006
                   144 -2.713723061747730E-012
                   145  1.240565692364277E-006
                   146  2.938777732311195E-012
                   147 -4.419017280232365E-005
                   148 -4.100450533472120E-005
                   149  2.563592776214830E-012
                   150 -8.174523242727479E-013
                   151 -5.286264486232918E-006
                   152 -2.075348350782740E-004
                   153 -7.280022363890870E-004
                   154  2.278255579773450E-004
                   155 -1.237731382980180E-004
                   156 -2.838878628845710E-012
                   157  1.161401358953190E-005
                   158 -2.949494994174990E-004
                   159 -8.583980765529159E-012
                   160  1.744057880933120E-005