[Molden Format]
[Atoms] AU
  N     1    7    -4.5075874400   -0.0631177000   -0.4023032300        
  C     2    6    -1.7511542200   -0.0662327400   -0.1754505900        
  C     3    6    -0.3519674000    0.2167263000   -2.3770519200        
  C     4    6    -0.4799261500   -0.2882505100    2.1224334700        
  C     5    6     2.2652879000    0.2639792400   -2.2879544800        
  C     6    6     2.1314495700   -0.2310422300    2.2027163300        
  C     7    6     3.5102819000    0.0435689700   -0.0039950600        
  H     8    1    -5.0796959400   -1.8072366600    0.3165187000        
  H     9    1    -5.1087672200    1.0769386400    1.0529590100        
  H    10    1    -1.3306061300    0.4045222600   -4.1393726600        
  H    11    1    -1.5403805100   -0.5088631200    3.8376710000        
  H    12    1     3.3270858500    0.4829612700   -4.0022539800        
  H    13    1     3.0891042300   -0.4047856600    3.9833230600        
  H    14    1     5.5377453200    0.0858714000    0.0616705500        
[5D]
[7F]
[GTO]
  1  0
   s    12 1.00
  0.114200D+05  0.172695D-04
  0.171200D+04  0.134411D-03
  0.389300D+03  0.694561D-03
  0.110000D+03  0.278531D-02
  0.355700D+02  0.863457D-02
  0.125400D+02  0.199805D-01
  0.464400D+01  0.262908D-01
  0.129300D+01 -0.243845D-01
  0.511800D+00 -0.924934D-01
  0.178700D+00 -0.339683D+00
  0.246240D-01  0.345111D+00
  0.112530D-01  0.752750D+00
   s    10 1.00
  0.114200D+05  0.523000D-03
  0.171200D+04  0.404500D-02
  0.389300D+03  0.207750D-01
  0.110000D+03  0.807269D-01
  0.355700D+02  0.233074D+00
  0.125400D+02  0.433501D+00
  0.464400D+01  0.347472D+00
  0.129300D+01  0.412620D-01
  0.511800D+00 -0.850799D-02
  0.178700D+00  0.238400D-02
   s    10 1.00
  0.114200D+05 -0.115000D-03
  0.171200D+04 -0.895000D-03
  0.389300D+03 -0.462400D-02
  0.110000D+03 -0.185280D-01
  0.355700D+02 -0.573390D-01
  0.125400D+02 -0.132076D+00
  0.464400D+01 -0.172510D+00
  0.129300D+01  0.151814D+00
  0.511800D+00  0.599944D+00
  0.178700D+00  0.387462D+00
   s     1 1.00
  0.129300D+01  0.100000D+01
   s     1 1.00
  0.178700D+00  0.100000D+01
   p     5 1.00
  0.266300D+02  0.146700D-01
  0.594800D+01  0.917640D-01
  0.174200D+01  0.298683D+00
  0.555000D+00  0.498487D+00
  0.172500D+00  0.337023D+00
   p     1 1.00
  0.174200D+01  0.100000D+01
   p     1 1.00
  0.555000D+00  0.100000D+01
   d     1 1.00
  0.165400D+01  0.100000D+01
   d     1 1.00
  0.469000D+00  0.100000D+01
   f     1 1.00
  0.109300D+01  0.100000D+01
  
  2  0
   s    10 1.00
  0.823600D+04  0.531000D-03
  0.123500D+04  0.410800D-02
  0.280800D+03  0.210870D-01
  0.792700D+02  0.818530D-01
  0.255900D+02  0.234817D+00
  0.899700D+01  0.434401D+00
  0.331900D+01  0.346129D+00
  0.905900D+00  0.393780D-01
  0.364300D+00 -0.898300D-02
  0.128500D+00  0.238500D-02
   s    10 1.00
  0.823600D+04 -0.113000D-03
  0.123500D+04 -0.878000D-03
  0.280800D+03 -0.454000D-02
  0.792700D+02 -0.181330D-01
  0.255900D+02 -0.557600D-01
  0.899700D+01 -0.126895D+00
  0.331900D+01 -0.170352D+00
  0.905900D+00  0.140382D+00
  0.364300D+00  0.598684D+00
  0.128500D+00  0.395389D+00
   s     1 1.00
  0.905900D+00  0.100000D+01
   s     1 1.00
  0.364300D+00  0.100000D+01
   p     5 1.00
  0.187100D+02  0.140310D-01
  0.413300D+01  0.868660D-01
  0.120000D+01  0.290216D+00
  0.382700D+00  0.501008D+00
  0.120900D+00  0.343406D+00
   p     1 1.00
  0.382700D+00  0.100000D+01
   p     1 1.00
  0.120900D+00  0.100000D+01
   d     1 1.00
  0.109700D+01  0.100000D+01
   d     1 1.00
  0.318000D+00  0.100000D+01
   f     1 1.00
  0.761000D+00  0.100000D+01
  
  3  0
   s    10 1.00
  0.823600D+04  0.531000D-03
  0.123500D+04  0.410800D-02
  0.280800D+03  0.210870D-01
  0.792700D+02  0.818530D-01
  0.255900D+02  0.234817D+00
  0.899700D+01  0.434401D+00
  0.331900D+01  0.346129D+00
  0.905900D+00  0.393780D-01
  0.364300D+00 -0.898300D-02
  0.128500D+00  0.238500D-02
   s    10 1.00
  0.823600D+04 -0.113000D-03
  0.123500D+04 -0.878000D-03
  0.280800D+03 -0.454000D-02
  0.792700D+02 -0.181330D-01
  0.255900D+02 -0.557600D-01
  0.899700D+01 -0.126895D+00
  0.331900D+01 -0.170352D+00
  0.905900D+00  0.140382D+00
  0.364300D+00  0.598684D+00
  0.128500D+00  0.395389D+00
   s     1 1.00
  0.905900D+00  0.100000D+01
   s     1 1.00
  0.364300D+00  0.100000D+01
   p     5 1.00
  0.187100D+02  0.140310D-01
  0.413300D+01  0.868660D-01
  0.120000D+01  0.290216D+00
  0.382700D+00  0.501008D+00
  0.120900D+00  0.343406D+00
   p     1 1.00
  0.382700D+00  0.100000D+01
   p     1 1.00
  0.120900D+00  0.100000D+01
   d     1 1.00
  0.109700D+01  0.100000D+01
   d     1 1.00
  0.318000D+00  0.100000D+01
   f     1 1.00
  0.761000D+00  0.100000D+01
  
  4  0
   s    10 1.00
  0.823600D+04  0.531000D-03
  0.123500D+04  0.410800D-02
  0.280800D+03  0.210870D-01
  0.792700D+02  0.818530D-01
  0.255900D+02  0.234817D+00
  0.899700D+01  0.434401D+00
  0.331900D+01  0.346129D+00
  0.905900D+00  0.393780D-01
  0.364300D+00 -0.898300D-02
  0.128500D+00  0.238500D-02
   s    10 1.00
  0.823600D+04 -0.113000D-03
  0.123500D+04 -0.878000D-03
  0.280800D+03 -0.454000D-02
  0.792700D+02 -0.181330D-01
  0.255900D+02 -0.557600D-01
  0.899700D+01 -0.126895D+00
  0.331900D+01 -0.170352D+00
  0.905900D+00  0.140382D+00
  0.364300D+00  0.598684D+00
  0.128500D+00  0.395389D+00
   s     1 1.00
  0.905900D+00  0.100000D+01
   s     1 1.00
  0.364300D+00  0.100000D+01
   p     5 1.00
  0.187100D+02  0.140310D-01
  0.413300D+01  0.868660D-01
  0.120000D+01  0.290216D+00
  0.382700D+00  0.501008D+00
  0.120900D+00  0.343406D+00
   p     1 1.00
  0.382700D+00  0.100000D+01
   p     1 1.00
  0.120900D+00  0.100000D+01
   d     1 1.00
  0.109700D+01  0.100000D+01
   d     1 1.00
  0.318000D+00  0.100000D+01
   f     1 1.00
  0.761000D+00  0.100000D+01
  
  5  0
   s    10 1.00
  0.823600D+04  0.531000D-03
  0.123500D+04  0.410800D-02
  0.280800D+03  0.210870D-01
  0.792700D+02  0.818530D-01
  0.255900D+02  0.234817D+00
  0.899700D+01  0.434401D+00
  0.331900D+01  0.346129D+00
  0.905900D+00  0.393780D-01
  0.364300D+00 -0.898300D-02
  0.128500D+00  0.238500D-02
   s    10 1.00
  0.823600D+04 -0.113000D-03
  0.123500D+04 -0.878000D-03
  0.280800D+03 -0.454000D-02
  0.792700D+02 -0.181330D-01
  0.255900D+02 -0.557600D-01
  0.899700D+01 -0.126895D+00
  0.331900D+01 -0.170352D+00
  0.905900D+00  0.140382D+00
  0.364300D+00  0.598684D+00
  0.128500D+00  0.395389D+00
   s     1 1.00
  0.905900D+00  0.100000D+01
   s     1 1.00
  0.364300D+00  0.100000D+01
   p     5 1.00
  0.187100D+02  0.140310D-01
  0.413300D+01  0.868660D-01
  0.120000D+01  0.290216D+00
  0.382700D+00  0.501008D+00
  0.120900D+00  0.343406D+00
   p     1 1.00
  0.382700D+00  0.100000D+01
   p     1 1.00
  0.120900D+00  0.100000D+01
   d     1 1.00
  0.109700D+01  0.100000D+01
   d     1 1.00
  0.318000D+00  0.100000D+01
   f     1 1.00
  0.761000D+00  0.100000D+01
  
  6  0
   s    10 1.00
  0.823600D+04  0.531000D-03
  0.123500D+04  0.410800D-02
  0.280800D+03  0.210870D-01
  0.792700D+02  0.818530D-01
  0.255900D+02  0.234817D+00
  0.899700D+01  0.434401D+00
  0.331900D+01  0.346129D+00
  0.905900D+00  0.393780D-01
  0.364300D+00 -0.898300D-02
  0.128500D+00  0.238500D-02
   s    10 1.00
  0.823600D+04 -0.113000D-03
  0.123500D+04 -0.878000D-03
  0.280800D+03 -0.454000D-02
  0.792700D+02 -0.181330D-01
  0.255900D+02 -0.557600D-01
  0.899700D+01 -0.126895D+00
  0.331900D+01 -0.170352D+00
  0.905900D+00  0.140382D+00
  0.364300D+00  0.598684D+00
  0.128500D+00  0.395389D+00
   s     1 1.00
  0.905900D+00  0.100000D+01
   s     1 1.00
  0.364300D+00  0.100000D+01
   p     5 1.00
  0.187100D+02  0.140310D-01
  0.413300D+01  0.868660D-01
  0.120000D+01  0.290216D+00
  0.382700D+00  0.501008D+00
  0.120900D+00  0.343406D+00
   p     1 1.00
  0.382700D+00  0.100000D+01
   p     1 1.00
  0.120900D+00  0.100000D+01
   d     1 1.00
  0.109700D+01  0.100000D+01
   d     1 1.00
  0.318000D+00  0.100000D+01
   f     1 1.00
  0.761000D+00  0.100000D+01
  
  7  0
   s    10 1.00
  0.823600D+04  0.531000D-03
  0.123500D+04  0.410800D-02
  0.280800D+03  0.210870D-01
  0.792700D+02  0.818530D-01
  0.255900D+02  0.234817D+00
  0.899700D+01  0.434401D+00
  0.331900D+01  0.346129D+00
  0.905900D+00  0.393780D-01
  0.364300D+00 -0.898300D-02
  0.128500D+00  0.238500D-02
   s    10 1.00
  0.823600D+04 -0.113000D-03
  0.123500D+04 -0.878000D-03
  0.280800D+03 -0.454000D-02
  0.792700D+02 -0.181330D-01
  0.255900D+02 -0.557600D-01
  0.899700D+01 -0.126895D+00
  0.331900D+01 -0.170352D+00
  0.905900D+00  0.140382D+00
  0.364300D+00  0.598684D+00
  0.128500D+00  0.395389D+00
   s     1 1.00
  0.905900D+00  0.100000D+01
   s     1 1.00
  0.364300D+00  0.100000D+01
   p     5 1.00
  0.187100D+02  0.140310D-01
  0.413300D+01  0.868660D-01
  0.120000D+01  0.290216D+00
  0.382700D+00  0.501008D+00
  0.120900D+00  0.343406D+00
   p     1 1.00
  0.382700D+00  0.100000D+01
   p     1 1.00
  0.120900D+00  0.100000D+01
   d     1 1.00
  0.109700D+01  0.100000D+01
   d     1 1.00
  0.318000D+00  0.100000D+01
   f     1 1.00
  0.761000D+00  0.100000D+01
  
  8  0
   s     4 1.00
  0.130100D+02  0.196850D-01
  0.196200D+01  0.137977D+00
  0.444600D+00  0.478148D+00
  0.122000D+00  0.501240D+00
   s     1 1.00
  0.122000D+00  0.100000D+01
   p     1 1.00
  0.727000D+00  0.100000D+01
  
  9  0
   s     4 1.00
  0.130100D+02  0.196850D-01
  0.196200D+01  0.137977D+00
  0.444600D+00  0.478148D+00
  0.122000D+00  0.501240D+00
   s     1 1.00
  0.122000D+00  0.100000D+01
   p     1 1.00
  0.727000D+00  0.100000D+01
  
 10  0
   s     4 1.00
  0.130100D+02  0.196850D-01
  0.196200D+01  0.137977D+00
  0.444600D+00  0.478148D+00
  0.122000D+00  0.501240D+00
   s     1 1.00
  0.122000D+00  0.100000D+01
   p     1 1.00
  0.727000D+00  0.100000D+01
  
 11  0
   s     4 1.00
  0.130100D+02  0.196850D-01
  0.196200D+01  0.137977D+00
  0.444600D+00  0.478148D+00
  0.122000D+00  0.501240D+00
   s     1 1.00
  0.122000D+00  0.100000D+01
   p     1 1.00
  0.727000D+00  0.100000D+01
  
 12  0
   s     4 1.00
  0.130100D+02  0.196850D-01
  0.196200D+01  0.137977D+00
  0.444600D+00  0.478148D+00
  0.122000D+00  0.501240D+00
   s     1 1.00
  0.122000D+00  0.100000D+01
   p     1 1.00
  0.727000D+00  0.100000D+01
  
 13  0
   s     4 1.00
  0.130100D+02  0.196850D-01
  0.196200D+01  0.137977D+00
  0.444600D+00  0.478148D+00
  0.122000D+00  0.501240D+00
   s     1 1.00
  0.122000D+00  0.100000D+01
   p     1 1.00
  0.727000D+00  0.100000D+01
  
 14  0
   s     4 1.00
  0.130100D+02  0.196850D-01
  0.196200D+01  0.137977D+00
  0.444600D+00  0.478148D+00
  0.122000D+00  0.501240D+00
   s     1 1.00
  0.122000D+00  0.100000D+01
   p     1 1.00
  0.727000D+00  0.100000D+01
  
[MO]
 Sym= __1_A__
 Ene=   1.00000000000000     
 Spin= Alpha
 Occup=    1.00000000000000     
                     1 -3.842156453363578E-004
                     2  0.997963339042853     
                     3 -2.595158364008650E-002
                     4  2.073256509830979E-003
                     5  5.827404791129822E-003
                     6  1.155692094787465E-002
                     7 -3.962998464349526E-003
                     8  2.100246996232827E-002
                     9 -1.269648573787840E-003
                    10  3.418624307759821E-004
                    11 -1.663584517520842E-003
                    12 -3.315261602253871E-003
                    13  1.144448645471803E-003
                    14 -5.211771035037080E-003
                    15  1.447231871993861E-004
                    16  2.941114881932658E-005
                    17 -3.800574807810774E-005
                    18  4.593136120088910E-005
                    19 -3.181594481336142E-005
                    20  5.074573658219644E-004
                    21  6.774816959335731E-004
                    22 -2.191743147360951E-004
                    23  1.343748187915724E-004
                    24 -1.839273661411010E-004
                    25  3.118831406586607E-005
                    26 -6.899570278274942E-005
                    27  1.780503527553110E-005
                    28  2.146335713128990E-005
                    29  1.986430393220240E-005
                    30  1.127969748961560E-005
                    31 -1.633222549631600E-005
                    32 -3.870383579616822E-004
                    33  2.380002422965226E-004
                    34  2.388531902853305E-004
                    35  1.221496167382638E-004
                    36  2.667656015174292E-005
                    37 -1.184130801491238E-003
                    38 -8.911576100528473E-004
                    39 -4.482608418998627E-004
                    40 -5.759822404356719E-005
                    41  4.534192494731650E-004
                    42  3.495102509137787E-003
                    43  1.936014126044210E-004
                    44 -1.598224075870113E-003
                    45 -1.088898464662748E-005
                    46 -2.493429785759227E-004
                    47  3.307613380592060E-006
                    48  2.791672378706698E-006
                    49  3.901411093506132E-005
                    50  1.026784085178800E-004
                    51  5.939576402584846E-005
                    52 -5.757462158162703E-006
                    53 -2.034590708495328E-005
                    54 -3.414612039445830E-005
                    55  9.953569183299165E-005
                    56 -7.693363359793730E-006
                    57 -1.342547056166241E-006
                    58  1.026940190592553E-004
                    59 -6.883787058488208E-006
                    60 -3.770948851761064E-005
                    61 -2.276037079545772E-005
                    62 -7.797405269714760E-004
                    63 -5.484866097978253E-004
                    64 -1.161857269966233E-004
                    65  2.798559025453823E-003
                    66 -2.488501624328259E-003
                    67 -6.677191562110003E-004
                    68  4.754414260408954E-004
                    69  6.548279469153932E-004
                    70 -4.453525253196817E-005
                    71  5.222994550067418E-004
                    72  1.067414051849859E-003
                    73  3.722695424673263E-004
                    74 -2.066283159920785E-003
                    75  6.751627593059541E-005
                    76 -5.994191541360772E-005
                    77 -3.901711406054999E-005
                    78  2.814005385500318E-005
                    79  2.054049743579532E-005
                    80  1.662113762803617E-004
                    81 -1.489030883521159E-004
                    82 -5.273701366313363E-005
                    83 -3.498306299532304E-005
                    84  3.587381124384901E-005
                    85 -2.319880731179893E-005
                    86 -1.472637909350365E-004
                    87 -1.399082646861535E-005
                    88 -4.968405778206168E-006
                    89  2.397645180740347E-005
                    90 -7.357986656492771E-005
                    91 -1.439784502721501E-006
                    92  4.034716550226040E-005
                    93 -8.384947591543676E-004
                    94  2.879200157119713E-004
                    95 -1.086130454362477E-003
                    96  2.229990213971969E-004
                    97 -5.228739550827997E-004
                    98  8.015252501519087E-004
                    99  2.029638528541587E-005
                   100 -2.242551863815104E-005
                   101  2.243379614572525E-004
                   102 -1.489644608557297E-003
                   103  1.025350865732724E-004
                   104 -2.964478350247734E-004
                   105 -5.702009156750266E-005
                   106 -3.192135476875441E-006
                   107  2.392943630661225E-005
                   108  4.851354309983920E-005
                   109  1.370807584663746E-005
                   110  2.680560647394892E-005
                   111  1.712757301157168E-004
                   112  3.623069672021170E-005
                   113 -1.691689351021111E-004
                   114 -2.151806834115369E-005
                   115 -3.440712894389228E-005
                   116  2.129969203038304E-005
                   117 -7.628101072186926E-006
                   118 -1.397815019828543E-005
                   119 -8.566958129776445E-006
                   120  8.974677457006753E-006
                   121 -4.564961131012342E-006
                   122 -2.905069675208589E-004
                   123 -1.613678554021525E-003
                   124  1.380276920227841E-004
                   125  6.456513479552470E-004
                   126  1.140390457915083E-003
                   127  2.765080757617191E-005
                   128 -1.323213593339477E-004
                   129  4.549560672197358E-004
                   130 -2.210310943803586E-005
                   131  2.972285598818021E-004
                   132  1.135663280164273E-003
                   133 -3.831372498866423E-005
                   134  7.416036736741638E-004
                   135  5.880482501187605E-005
                   136 -1.674886908550184E-005
                   137 -3.717317163554294E-006
                   138 -4.969315260720574E-005
                   139  1.021343585151614E-005
                   140  2.138145901772429E-004
                   141  1.605933587443809E-004
                   142  2.458857166327354E-006
                   143 -3.076743903300886E-004
                   144 -9.620725470639780E-006
                   145 -1.511740458369224E-005
                   146 -3.257629687550924E-005
                   147 -4.750740560168443E-006
                   148  9.389863637979238E-006
                   149 -1.508647686423497E-006
                   150 -8.155418788195838E-005
                   151  1.685302369771586E-006
                   152 -1.214915971577849E-004
                   153 -1.500350889653187E-004
                   154 -7.696136189221538E-005
                   155  7.479125290728601E-004
                   156  6.080251654916938E-005
                   157  5.020629321726713E-005
                   158  7.585196483064537E-005
                   159 -3.379654768534884E-004
                   160 -8.174395180154422E-006
                   161  4.030343091235756E-005
                   162 -2.028586745976863E-004
                   163 -8.740764252166966E-005
                   164  9.510948172345308E-004
                   165 -9.933989314649760E-006
                   166 -5.910273284777822E-006
                   167 -3.309493129163435E-006
                   168  2.456140332902272E-005
                   169  1.080350916602007E-005
                   170 -7.868853729431738E-005
                   171  1.519358043795966E-005
                   172  1.814611875462065E-005
                   173 -4.771809897557358E-005
                   174  5.124116217622609E-006
                   175 -8.180575143206365E-007
                   176 -1.055532662805552E-005
                   177  2.036160747253705E-007
                   178 -7.680465233122636E-007
                   179 -1.081313389262654E-006
                   180  9.920700207903337E-007
                   181  3.284161198373311E-007
                   182 -1.238925314827759E-004
                   183 -2.484962718946321E-004
                   184  3.001924360741833E-005
                   185  2.185563815558842E-004
                   186 -1.688984960590137E-004
                   187  2.214669614372832E-004
                   188 -9.207708503943778E-005
                   189  1.191755112177242E-004
                   190 -3.640598476199412E-005
                   191  3.719461693144607E-004
                   192 -4.472834435839941E-004
                   193 -7.450250877808913E-005
                   194  9.235282056119738E-004
                   195  1.686663508986225E-005
                   196 -8.265528347521049E-006
                   197 -1.501278538000141E-006
                   198 -8.447994304390673E-006
                   199  4.384558071826366E-007
                   200 -6.084739678280836E-005
                   201 -2.257383324730354E-004
                   202  9.354066459610798E-006
                   203  1.186342377330024E-005
                   204  2.172994856021794E-005
                   205 -1.247796136901777E-006
                   206  6.253565254170755E-006
                   207 -1.052159381436736E-006
                   208  1.322133561871032E-005
                   209 -1.941124553383316E-006
                   210 -4.509480253366222E-006
                   211 -9.140199236369733E-007
                   212 -2.936527469553211E-003
                   213  1.414510306955125E-003
                   214  1.195020474988159E-004
                   215 -1.305957074288092E-004
                   216  2.396725598507688E-004
                   217 -1.228722953751718E-003
                   218  8.995240697669013E-004
                   219  1.447944246327576E-004
                   220 -1.131642701055661E-005
                   221  2.087285390161813E-004
                   222  1.033020916536605E-003
                   223 -1.464997351009274E-003
                   224 -2.922299368409526E-005
                   225 -2.245734190002204E-005
                   226  1.047244987104348E-004
                   227  7.699394451636159E-005
                   228  7.390220271094056E-005
                   229 -4.629292037759389E-005
                   230  1.667074505334147E-006
                   231 -8.460305814616883E-005
                   232  5.873056997431287E-004
                   233 -8.296800028499917E-005
                   234  2.568239991887769E-006
                   235 -2.492938040277584E-006
                   236  3.307612819349312E-005
                   237  5.337653101982128E-005
                   238 -5.947855406998032E-004
                   239 -2.158684928016071E-005
                   240  3.036890076176376E-006
                   241 -5.084320892431523E-006
                   242 -2.313653460837143E-004
                   243  2.072416240424888E-004
                   244  3.083670385878237E-005
                   245  6.381256083147470E-006
                   246 -1.835812221628867E-006
 Sym= __2_A__
 Ene=   2.00000000000000     
 Spin= Alpha
 Occup=    1.00000000000000     
                     1 -3.613254333508749E-005
                     2  2.484680610703740E-005
                     3 -7.880707449553283E-004
                     4 -1.168807725313129E-005
                     5  1.082996379552517E-003
                     6  1.414251696462822E-003
                     7 -2.541668635760400E-004
                     8  9.983696583033917E-004
                     9 -1.587541723583815E-004
                    10  5.681559795394390E-005
                    11 -1.326610211603667E-004
                    12  1.683603200898657E-004
                    13  7.493238855959090E-005
                    14 -1.430938799183469E-004
                    15 -4.401408911116435E-005
                    16  2.923448290882993E-005
                    17  1.053051123903527E-006
                    18  4.913091023632000E-005
                    19 -2.678581327801962E-006
                    20  7.095628015532957E-005
                    21 -6.170487095594756E-005
                    22 -1.946881189181264E-005
                    23  9.600787407442336E-005
                    24 -1.173837255906586E-005
                    25 -3.499401430633052E-005
                    26  1.267838604994691E-004
                    27  1.314509748713889E-005
                    28 -5.984922057760464E-005
                    29 -1.094695693186622E-005
                    30  1.177233162790419E-004
                    31  9.505461271777207E-006
                    32   1.00083633086706     
                    33  8.412588813241507E-003
                    34  2.860561260011982E-003
                    35 -8.434468981290142E-003
                    36 -1.161971966044771E-003
                    37 -5.729944772507668E-005
                    38  1.261408745357694E-004
                    39  8.229650390642307E-004
                    40  3.477572006598296E-005
                    41 -4.597811717226670E-004
                    42  2.402800661330484E-003
                    43 -3.688164429702253E-005
                    44  3.970599172758857E-004
                    45  3.251993207363507E-004
                    46 -1.647251454298344E-005
                    47 -9.359372038806882E-005
                    48  3.048800063151398E-004
                    49  1.454305279985272E-005
                    50 -1.001727842067059E-003
                    51 -3.975506051985767E-004
                    52  2.026409622073472E-004
                    53 -1.356524935657507E-004
                    54  4.116605259433798E-005
                    55 -2.151094182760672E-005
                    56  2.528909183755658E-004
                    57  1.981278972584628E-006
                    58 -3.192999003762130E-005
                    59 -3.721887672801687E-005
                    60  6.461718376370844E-005
                    61  2.034675699443707E-006
                    62  1.623222106947694E-002
                    63 -1.332610367747255E-003
                    64 -2.879070217806966E-004
                    65  2.731141947385977E-003
                    66 -4.417441374833506E-004
                    67 -9.200026239208431E-005
                    68  4.830670554839319E-004
                    69  3.383465868811790E-005
                    70 -3.286967658615821E-005
                    71  2.674663135656387E-004
                    72  1.714731026751636E-004
                    73  2.255843165344704E-004
                    74 -1.756193485369048E-003
                    75  1.708533725228245E-005
                    76  2.572963445110535E-005
                    77  9.136333585683266E-007
                    78 -5.094210010438892E-005
                    79 -3.969025909325593E-006
                    80 -5.592946827292931E-004
                    81 -3.843064411698237E-004
                    82  1.263488688208454E-005
                    83  8.128644901357682E-004
                    84  7.906739584602072E-005
                    85  3.397427868811901E-005
                    86  1.056941430357601E-004
                    87  1.799790659892669E-005
                    88 -3.064771106268230E-005
                    89 -2.463109736030194E-005
                    90 -2.623692106970226E-005
                    91  6.152608932784272E-006
                    92  1.887957065553847E-002
                    93 -1.705657328650740E-003
                    94 -3.436937123399608E-004
                    95  3.404887126447736E-003
                    96 -2.880988904118434E-004
                    97  8.814591781872148E-006
                    98 -3.482379847246281E-004
                    99 -1.306969311938891E-004
                   100  8.599786789533844E-005
                   101 -8.124549579726968E-004
                   102  4.053401959581110E-004
                   103 -1.385232322823179E-004
                   104  1.496960959977752E-003
                   105  1.136900519708372E-005
                   106 -1.666775379379254E-006
                   107  1.845539161499639E-006
                   108 -2.282102480785366E-005
                   109  2.511289310055472E-008
                   110 -1.464127800655744E-004
                   111  5.301604041451660E-004
                   112 -3.099994621758262E-005
                   113  6.110709669129552E-004
                   114 -3.373203401250059E-005
                   115 -4.457501459501804E-005
                   116  8.133483533443273E-005
                   117 -1.257145941282377E-005
                   118  1.712142061821894E-005
                   119 -1.585381579326971E-005
                   120 -2.826084241892479E-005
                   121 -6.491522915926429E-007
                   122 -4.920161230443253E-005
                   123 -7.664475833785268E-004
                   124  2.457565179513534E-004
                   125 -4.319413936216364E-004
                   126 -5.240172849448932E-006
                   127  8.401091710109629E-006
                   128 -5.937895786830776E-005
                   129  6.231314365903902E-004
                   130  7.687155828497119E-006
                   131  5.850616889604149E-005
                   132  2.299220385767385E-004
                   133 -4.532432728956070E-005
                   134  4.118800537452098E-004
                   135  2.826294996407060E-006
                   136  3.454311743718199E-005
                   137  5.124265203157752E-006
                   138 -4.138149820249868E-005
                   139 -5.467167304428002E-006
                   140  1.858319501099397E-004
                   141 -3.044673344509767E-004
                   142 -1.865938475531545E-005
                   143 -2.188213466696820E-004
                   144  2.613707219529736E-005
                   145 -6.642618194920508E-006
                   146  1.085194513893325E-005
                   147 -1.590754379504800E-006
                   148  3.005436152218296E-007
                   149 -4.218875309806079E-006
                   150 -1.906909993218367E-005
                   151  1.375887988060465E-006
                   152  4.193073679911587E-005
                   153 -7.858566390521133E-004
                   154  2.277679047398184E-004
                   155 -1.241601005588145E-004
                   156 -6.400902461747036E-005
                   157 -3.429949764713400E-006
                   158  4.609073334685534E-005
                   159  4.719333243118235E-004
                   160  1.612978915560375E-005