[Molden Format]
[Atoms] AU
  N     1    7    -0.1693929000   -4.4470327000    0.1637005600        
  C     2    6    -0.0494917400   -1.7320701200    0.0380938800        
  C     3    6    -2.2959178200   -0.3925560000    0.1541607000        
  C     4    6     2.2250758200   -0.4490001500   -0.0994787400        
  C     5    6    -2.2552395400    2.2131369100    0.1115029900        
  C     6    6     2.2511603500    2.1703151800   -0.1065256600        
  C     7    6     0.0180778600    3.5006031600   -0.0154386700        
  H     8    1    -0.8155111000   -5.4167692300   -2.6262937800        
  H     9    1     1.6588631600   -5.1549384300    0.1308776400        
  H    10    1    -4.0471617500   -1.4018023400    0.2965413200        
  H    11    1     3.9679057100   -1.4816850300   -0.2125448400        
  H    12    1    -3.9978557300    3.2492694200    0.2033742800        
  H    13    1     4.0218005000    3.1580454800   -0.1973420100        
  H    14    1     0.0373664400    5.5300432300   -0.0380355800        
[5D]
[7F]
[GTO]
  1  0
   s    12 1.00
  0.114200D+05  0.172695D-04
  0.171200D+04  0.134411D-03
  0.389300D+03  0.694561D-03
  0.110000D+03  0.278531D-02
  0.355700D+02  0.863457D-02
  0.125400D+02  0.199805D-01
  0.464400D+01  0.262908D-01
  0.129300D+01 -0.243845D-01
  0.511800D+00 -0.924934D-01
  0.178700D+00 -0.339683D+00
  0.246240D-01  0.345111D+00
  0.112530D-01  0.752750D+00
   s    10 1.00
  0.114200D+05  0.523000D-03
  0.171200D+04  0.404500D-02
  0.389300D+03  0.207750D-01
  0.110000D+03  0.807269D-01
  0.355700D+02  0.233074D+00
  0.125400D+02  0.433501D+00
  0.464400D+01  0.347472D+00
  0.129300D+01  0.412620D-01
  0.511800D+00 -0.850799D-02
  0.178700D+00  0.238400D-02
   s    10 1.00
  0.114200D+05 -0.115000D-03
  0.171200D+04 -0.895000D-03
  0.389300D+03 -0.462400D-02
  0.110000D+03 -0.185280D-01
  0.355700D+02 -0.573390D-01
  0.125400D+02 -0.132076D+00
  0.464400D+01 -0.172510D+00
  0.129300D+01  0.151814D+00
  0.511800D+00  0.599944D+00
  0.178700D+00  0.387462D+00
   s     1 1.00
  0.129300D+01  0.100000D+01
   s     1 1.00
  0.178700D+00  0.100000D+01
   p     5 1.00
  0.266300D+02  0.146700D-01
  0.594800D+01  0.917640D-01
  0.174200D+01  0.298683D+00
  0.555000D+00  0.498487D+00
  0.172500D+00  0.337023D+00
   p     1 1.00
  0.174200D+01  0.100000D+01
   p     1 1.00
  0.555000D+00  0.100000D+01
   d     1 1.00
  0.165400D+01  0.100000D+01
   d     1 1.00
  0.469000D+00  0.100000D+01
   f     1 1.00
  0.109300D+01  0.100000D+01
  
  2  0
   s    10 1.00
  0.823600D+04  0.531000D-03
  0.123500D+04  0.410800D-02
  0.280800D+03  0.210870D-01
  0.792700D+02  0.818530D-01
  0.255900D+02  0.234817D+00
  0.899700D+01  0.434401D+00
  0.331900D+01  0.346129D+00
  0.905900D+00  0.393780D-01
  0.364300D+00 -0.898300D-02
  0.128500D+00  0.238500D-02
   s    10 1.00
  0.823600D+04 -0.113000D-03
  0.123500D+04 -0.878000D-03
  0.280800D+03 -0.454000D-02
  0.792700D+02 -0.181330D-01
  0.255900D+02 -0.557600D-01
  0.899700D+01 -0.126895D+00
  0.331900D+01 -0.170352D+00
  0.905900D+00  0.140382D+00
  0.364300D+00  0.598684D+00
  0.128500D+00  0.395389D+00
   s     1 1.00
  0.905900D+00  0.100000D+01
   s     1 1.00
  0.364300D+00  0.100000D+01
   p     5 1.00
  0.187100D+02  0.140310D-01
  0.413300D+01  0.868660D-01
  0.120000D+01  0.290216D+00
  0.382700D+00  0.501008D+00
  0.120900D+00  0.343406D+00
   p     1 1.00
  0.382700D+00  0.100000D+01
   p     1 1.00
  0.120900D+00  0.100000D+01
   d     1 1.00
  0.109700D+01  0.100000D+01
   d     1 1.00
  0.318000D+00  0.100000D+01
   f     1 1.00
  0.761000D+00  0.100000D+01
  
  3  0
   s    10 1.00
  0.823600D+04  0.531000D-03
  0.123500D+04  0.410800D-02
  0.280800D+03  0.210870D-01
  0.792700D+02  0.818530D-01
  0.255900D+02  0.234817D+00
  0.899700D+01  0.434401D+00
  0.331900D+01  0.346129D+00
  0.905900D+00  0.393780D-01
  0.364300D+00 -0.898300D-02
  0.128500D+00  0.238500D-02
   s    10 1.00
  0.823600D+04 -0.113000D-03
  0.123500D+04 -0.878000D-03
  0.280800D+03 -0.454000D-02
  0.792700D+02 -0.181330D-01
  0.255900D+02 -0.557600D-01
  0.899700D+01 -0.126895D+00
  0.331900D+01 -0.170352D+00
  0.905900D+00  0.140382D+00
  0.364300D+00  0.598684D+00
  0.128500D+00  0.395389D+00
   s     1 1.00
  0.905900D+00  0.100000D+01
   s     1 1.00
  0.364300D+00  0.100000D+01
   p     5 1.00
  0.187100D+02  0.140310D-01
  0.413300D+01  0.868660D-01
  0.120000D+01  0.290216D+00
  0.382700D+00  0.501008D+00
  0.120900D+00  0.343406D+00
   p     1 1.00
  0.382700D+00  0.100000D+01
   p     1 1.00
  0.120900D+00  0.100000D+01
   d     1 1.00
  0.109700D+01  0.100000D+01
   d     1 1.00
  0.318000D+00  0.100000D+01
   f     1 1.00
  0.761000D+00  0.100000D+01
  
  4  0
   s    10 1.00
  0.823600D+04  0.531000D-03
  0.123500D+04  0.410800D-02
  0.280800D+03  0.210870D-01
  0.792700D+02  0.818530D-01
  0.255900D+02  0.234817D+00
  0.899700D+01  0.434401D+00
  0.331900D+01  0.346129D+00
  0.905900D+00  0.393780D-01
  0.364300D+00 -0.898300D-02
  0.128500D+00  0.238500D-02
   s    10 1.00
  0.823600D+04 -0.113000D-03
  0.123500D+04 -0.878000D-03
  0.280800D+03 -0.454000D-02
  0.792700D+02 -0.181330D-01
  0.255900D+02 -0.557600D-01
  0.899700D+01 -0.126895D+00
  0.331900D+01 -0.170352D+00
  0.905900D+00  0.140382D+00
  0.364300D+00  0.598684D+00
  0.128500D+00  0.395389D+00
   s     1 1.00
  0.905900D+00  0.100000D+01
   s     1 1.00
  0.364300D+00  0.100000D+01
   p     5 1.00
  0.187100D+02  0.140310D-01
  0.413300D+01  0.868660D-01
  0.120000D+01  0.290216D+00
  0.382700D+00  0.501008D+00
  0.120900D+00  0.343406D+00
   p     1 1.00
  0.382700D+00  0.100000D+01
   p     1 1.00
  0.120900D+00  0.100000D+01
   d     1 1.00
  0.109700D+01  0.100000D+01
   d     1 1.00
  0.318000D+00  0.100000D+01
   f     1 1.00
  0.761000D+00  0.100000D+01
  
  5  0
   s    10 1.00
  0.823600D+04  0.531000D-03
  0.123500D+04  0.410800D-02
  0.280800D+03  0.210870D-01
  0.792700D+02  0.818530D-01
  0.255900D+02  0.234817D+00
  0.899700D+01  0.434401D+00
  0.331900D+01  0.346129D+00
  0.905900D+00  0.393780D-01
  0.364300D+00 -0.898300D-02
  0.128500D+00  0.238500D-02
   s    10 1.00
  0.823600D+04 -0.113000D-03
  0.123500D+04 -0.878000D-03
  0.280800D+03 -0.454000D-02
  0.792700D+02 -0.181330D-01
  0.255900D+02 -0.557600D-01
  0.899700D+01 -0.126895D+00
  0.331900D+01 -0.170352D+00
  0.905900D+00  0.140382D+00
  0.364300D+00  0.598684D+00
  0.128500D+00  0.395389D+00
   s     1 1.00
  0.905900D+00  0.100000D+01
   s     1 1.00
  0.364300D+00  0.100000D+01
   p     5 1.00
  0.187100D+02  0.140310D-01
  0.413300D+01  0.868660D-01
  0.120000D+01  0.290216D+00
  0.382700D+00  0.501008D+00
  0.120900D+00  0.343406D+00
   p     1 1.00
  0.382700D+00  0.100000D+01
   p     1 1.00
  0.120900D+00  0.100000D+01
   d     1 1.00
  0.109700D+01  0.100000D+01
   d     1 1.00
  0.318000D+00  0.100000D+01
   f     1 1.00
  0.761000D+00  0.100000D+01
  
  6  0
   s    10 1.00
  0.823600D+04  0.531000D-03
  0.123500D+04  0.410800D-02
  0.280800D+03  0.210870D-01
  0.792700D+02  0.818530D-01
  0.255900D+02  0.234817D+00
  0.899700D+01  0.434401D+00
  0.331900D+01  0.346129D+00
  0.905900D+00  0.393780D-01
  0.364300D+00 -0.898300D-02
  0.128500D+00  0.238500D-02
   s    10 1.00
  0.823600D+04 -0.113000D-03
  0.123500D+04 -0.878000D-03
  0.280800D+03 -0.454000D-02
  0.792700D+02 -0.181330D-01
  0.255900D+02 -0.557600D-01
  0.899700D+01 -0.126895D+00
  0.331900D+01 -0.170352D+00
  0.905900D+00  0.140382D+00
  0.364300D+00  0.598684D+00
  0.128500D+00  0.395389D+00
   s     1 1.00
  0.905900D+00  0.100000D+01
   s     1 1.00
  0.364300D+00  0.100000D+01
   p     5 1.00
  0.187100D+02  0.140310D-01
  0.413300D+01  0.868660D-01
  0.120000D+01  0.290216D+00
  0.382700D+00  0.501008D+00
  0.120900D+00  0.343406D+00
   p     1 1.00
  0.382700D+00  0.100000D+01
   p     1 1.00
  0.120900D+00  0.100000D+01
   d     1 1.00
  0.109700D+01  0.100000D+01
   d     1 1.00
  0.318000D+00  0.100000D+01
   f     1 1.00
  0.761000D+00  0.100000D+01
  
  7  0
   s    10 1.00
  0.823600D+04  0.531000D-03
  0.123500D+04  0.410800D-02
  0.280800D+03  0.210870D-01
  0.792700D+02  0.818530D-01
  0.255900D+02  0.234817D+00
  0.899700D+01  0.434401D+00
  0.331900D+01  0.346129D+00
  0.905900D+00  0.393780D-01
  0.364300D+00 -0.898300D-02
  0.128500D+00  0.238500D-02
   s    10 1.00
  0.823600D+04 -0.113000D-03
  0.123500D+04 -0.878000D-03
  0.280800D+03 -0.454000D-02
  0.792700D+02 -0.181330D-01
  0.255900D+02 -0.557600D-01
  0.899700D+01 -0.126895D+00
  0.331900D+01 -0.170352D+00
  0.905900D+00  0.140382D+00
  0.364300D+00  0.598684D+00
  0.128500D+00  0.395389D+00
   s     1 1.00
  0.905900D+00  0.100000D+01
   s     1 1.00
  0.364300D+00  0.100000D+01
   p     5 1.00
  0.187100D+02  0.140310D-01
  0.413300D+01  0.868660D-01
  0.120000D+01  0.290216D+00
  0.382700D+00  0.501008D+00
  0.120900D+00  0.343406D+00
   p     1 1.00
  0.382700D+00  0.100000D+01
   p     1 1.00
  0.120900D+00  0.100000D+01
   d     1 1.00
  0.109700D+01  0.100000D+01
   d     1 1.00
  0.318000D+00  0.100000D+01
   f     1 1.00
  0.761000D+00  0.100000D+01
  
  8  0
   s     4 1.00
  0.130100D+02  0.196850D-01
  0.196200D+01  0.137977D+00
  0.444600D+00  0.478148D+00
  0.122000D+00  0.501240D+00
   s     1 1.00
  0.122000D+00  0.100000D+01
   p     1 1.00
  0.727000D+00  0.100000D+01
  
  9  0
   s     4 1.00
  0.130100D+02  0.196850D-01
  0.196200D+01  0.137977D+00
  0.444600D+00  0.478148D+00
  0.122000D+00  0.501240D+00
   s     1 1.00
  0.122000D+00  0.100000D+01
   p     1 1.00
  0.727000D+00  0.100000D+01
  
 10  0
   s     4 1.00
  0.130100D+02  0.196850D-01
  0.196200D+01  0.137977D+00
  0.444600D+00  0.478148D+00
  0.122000D+00  0.501240D+00
   s     1 1.00
  0.122000D+00  0.100000D+01
   p     1 1.00
  0.727000D+00  0.100000D+01
  
 11  0
   s     4 1.00
  0.130100D+02  0.196850D-01
  0.196200D+01  0.137977D+00
  0.444600D+00  0.478148D+00
  0.122000D+00  0.501240D+00
   s     1 1.00
  0.122000D+00  0.100000D+01
   p     1 1.00
  0.727000D+00  0.100000D+01
  
 12  0
   s     4 1.00
  0.130100D+02  0.196850D-01
  0.196200D+01  0.137977D+00
  0.444600D+00  0.478148D+00
  0.122000D+00  0.501240D+00
   s     1 1.00
  0.122000D+00  0.100000D+01
   p     1 1.00
  0.727000D+00  0.100000D+01
  
 13  0
   s     4 1.00
  0.130100D+02  0.196850D-01
  0.196200D+01  0.137977D+00
  0.444600D+00  0.478148D+00
  0.122000D+00  0.501240D+00
   s     1 1.00
  0.122000D+00  0.100000D+01
   p     1 1.00
  0.727000D+00  0.100000D+01
  
 14  0
   s     4 1.00
  0.130100D+02  0.196850D-01
  0.196200D+01  0.137977D+00
  0.444600D+00  0.478148D+00
  0.122000D+00  0.501240D+00
   s     1 1.00
  0.122000D+00  0.100000D+01
   p     1 1.00
  0.727000D+00  0.100000D+01
  
[MO]
 Sym= __1_A__
 Ene=  0.000000000000000E+000
 Spin= Alpha
 Occup=    2.00000000000000     
                     1  2.382988961796653E-004
                     2  0.998269494264440     
                     3 -7.267547121998868E-004
                     4  1.667619280849596E-003
                     5  7.837432843137610E-003
                     6  5.014452325156194E-003
                     7  6.799130159623472E-003
                     8 -2.397090572306178E-003
                     9 -8.655522929724006E-004
                    10 -1.139773989785991E-003
                    11  3.021543977732971E-004
                    12 -3.517560861107986E-003
                    13 -2.598849605478674E-003
                    14  1.545201500712894E-003
                    15 -7.546272079083402E-005
                    16 -3.931933515749459E-005
                    17 -1.211261214301773E-005
                    18 -3.987961006648650E-005
                    19 -7.904344244322160E-005
                    20  6.425020407268261E-006
                    21 -8.149958105466269E-005
                    22 -1.845231096856652E-004
                    23 -2.397026502450462E-004
                    24  6.069590394646800E-004
                    25 -1.477388081944113E-005
                    26 -4.232521360104743E-005
                    27 -4.669680242215245E-005
                    28  1.895364675999654E-005
                    29 -4.431025476513764E-006
                    30  1.833568280608882E-005
                    31 -1.064088136740317E-004
                    32 -4.789283401560844E-004
                    33 -2.265016587447022E-004
                    34  2.367057093706470E-004
                    35  3.477518804929571E-004
                    36 -2.278644005666013E-004
                    37 -2.899390242688831E-003
                    38 -9.015617361117338E-005
                    39  9.822617759184308E-004
                    40  1.971054265559620E-004
                    41 -8.492779045987814E-005
                    42 -3.302917296673175E-003
                    43  5.779850893872312E-003
                    44  4.421552320632955E-004
                    45 -5.316136357721349E-005
                    46  1.051700910572176E-005
                    47  1.285557540755969E-005
                    48 -2.284826402988408E-004
                    49  2.725839423427231E-005
                    50 -1.783170716237495E-004
                    51 -9.331201799046665E-005
                    52 -2.153802750798914E-004
                    53  4.936444376631620E-004
                    54  9.824605653355411E-004
                    55  8.309198354411556E-006
                    56 -1.615871682815102E-005
                    57 -2.462437669707538E-005
                    58 -7.057828208274022E-006
                    59  2.026242180084913E-006
                    60  4.195237397664008E-005
                    61 -3.504739627685372E-005
                    62 -7.802917107646396E-004
                    63 -2.997653215165907E-003
                    64 -8.361188762235280E-005
                    65  2.900568137992151E-003
                    66 -5.484559871726001E-004
                    67  2.118229889854045E-004
                    68 -1.311831124046072E-004
                    69  7.163621327899875E-004
                    70  1.007391178659331E-003
                    71 -5.128937790955765E-005
                    72 -1.689097669907003E-003
                    73  1.245357121260118E-003
                    74 -1.861899796824407E-005
                    75 -4.288962027225452E-005
                    76  7.026022084931058E-006
                    77 -9.896008348604816E-007
                    78 -9.483026443735862E-005
                    79 -3.641480991751688E-005
                    80 -2.002118182268804E-004
                    81 -6.390969123228936E-005
                    82 -3.309140872330600E-006
                    83  3.604366459735240E-004
                    84  1.576459199826961E-004
                    85 -2.591969003567293E-006
                    86 -1.901448902293943E-005
                    87 -4.459022058054229E-005
                    88  1.281199578450401E-005
                    89  1.364472462397429E-005
                    90 -1.756534417367437E-005
                    91 -1.639285578801170E-004
                    92 -1.179666223635484E-004
                    93 -6.707335678020248E-004
                    94  3.058507185869112E-004
                    95 -8.415107559312859E-004
                    96  2.587283749274130E-004
                    97  3.314228358087927E-004
                    98 -1.834052452566976E-004
                    99  5.810433401485713E-004
                   100  4.028077337136445E-004
                   101  1.420273890892169E-005
                   102  3.998166092035163E-004
                   103 -2.511241351702289E-003
                   104 -1.265712248168851E-004
                   105  3.639811586508127E-006
                   106 -4.370771784199051E-007
                   107 -5.087073852274748E-006
                   108 -7.008346459360144E-005
                   109 -2.145637587811402E-005
                   110  2.377921889822532E-004
                   111  2.858615510953303E-005
                   112  3.352531546651602E-005
                   113 -8.841600458509562E-005
                   114 -1.612305968763198E-004
                   115 -1.170893412304183E-006
                   116 -2.361471966036481E-005
                   117 -2.841335126490070E-005
                   118  7.404796595298546E-006
                   119 -8.204486643111545E-006
                   120 -7.567423140598878E-006
                   121  2.997587565286821E-005
                   122 -3.211761560475753E-004
                   123 -8.165283282917715E-004
                   124  1.413459407488199E-004
                   125  8.325611901190671E-004
                   126 -4.383538802141428E-005
                   127 -4.529194373200026E-004
                   128 -1.056948611278262E-004
                   129  2.990995990234902E-004
                   130  6.841194603600901E-004
                   131 -2.007879421496814E-005
                   132  3.123017303234103E-004
                   133  2.906598900345896E-003
                   134 -7.856801565213046E-006
                   135  2.238961106923320E-006
                   136 -4.146191104807025E-006
                   137  4.446305871782494E-006
                   138  4.425662618163146E-005
                   139 -6.964021908000359E-007
                   140  2.456221416017935E-004
                   141 -7.954210266726606E-006
                   142 -1.210397428081418E-005
                   143  4.599519915248288E-004
                   144  3.998418585307425E-004
                   145 -4.958484754641892E-006
                   146 -1.257436187581318E-005
                   147 -8.325455569952287E-005
                   148 -1.513070880641818E-006
                   149 -4.118664348288737E-006
                   150 -3.894852730665215E-005
                   151 -5.295730491363984E-005
                   152 -1.530865120060773E-004
                   153 -3.280206122549224E-004
                   154 -2.023818226051709E-005
                   155  4.826690971565791E-004
                   156 -4.229431797308428E-005
                   157 -2.926929730850551E-004
                   158 -9.719772819105189E-005
                   159  1.652068868333892E-004
                   160 -7.866273919057207E-005
                   161 -1.948645399784853E-005
                   162  9.901545623354740E-004
                   163 -9.004118620098602E-004
                   164  4.989340535737532E-006
                   165 -6.223162682026451E-006
                   166  2.472570345884300E-006
                   167  3.495165315775629E-006
                   168 -2.219845577346714E-005
                   169  1.044352196164470E-005
                   170  3.170919725312681E-005
                   171  8.860103155613183E-006
                   172  8.938264840730204E-006
                   173 -2.811820720180700E-005
                   174 -3.785066555599374E-005
                   175 -2.313986930412586E-006
                   176  2.682557565774645E-006
                   177 -5.894912213899030E-006
                   178  1.964958481369305E-006
                   179  2.358136804546278E-007
                   180 -1.855931983549390E-005
                   181 -7.521879603634837E-006
                   182 -1.537888313517309E-004
                   183 -4.766608143677675E-004
                   184  5.207356005615128E-005
                   185  1.318570634157540E-004
                   186 -8.042293068053243E-005
                   187 -2.841706207991608E-005
                   188 -8.676524235972512E-005
                   189  3.707679354461079E-004
                   190  1.406485321193298E-004
                   191 -1.246678501096172E-005
                   192  2.088648645298214E-003
                   193 -4.898308148223793E-004
                   194 -1.074093979585506E-004
                   195  3.716635251223219E-006
                   196  1.166236802608298E-006
                   197  1.362305298626111E-006
                   198 -8.200728872934618E-006
                   199  7.013249826090226E-006
                   200  2.003604006496338E-005
                   201  1.150921506890350E-005
                   202  1.970401048260450E-005
                   203 -1.599978801942364E-004
                   204 -3.090522497680216E-004
                   205 -3.236926232708507E-006
                   206 -1.528425229601379E-005
                   207 -6.477680398747690E-006
                   208  3.275458765318112E-007
                   209 -1.708064182003528E-006
                   210  1.683816540245494E-005
                   211  7.355354228783119E-006
                   212 -1.350357821657782E-004
                   213 -4.453356343703274E-005
                   214 -6.025933156335343E-005
                   215  1.858693242236547E-005
                   216  5.740143866253772E-005
                   217  8.501021548257456E-004
                   218 -1.653326604746142E-003
                   219 -4.151005719945638E-004
                   220  1.078985914765463E-004
                   221  7.454684031725606E-005
                   222 -4.711423345549255E-004
                   223 -3.459447375420480E-004
                   224  5.247587657568635E-005
                   225 -9.484841807693247E-005
                   226 -1.436955214446282E-006
                   227 -1.740894232876512E-004
                   228 -6.164475856402611E-004
                   229 -6.255403998998880E-005
                   230 -1.349414961673073E-005
                   231  8.655742833269964E-006
                   232  3.206591421950665E-005
                   233 -8.118688719961666E-004
                   234  9.920551352769682E-006
                   235 -4.102206567986174E-006
                   236 -2.615211251827528E-006
                   237 -1.057829185087799E-004
                   238 -3.377886659534686E-004
                   239  1.506860974881399E-005
                   240  1.686365252410053E-005
                   241 -3.998372900170127E-006
                   242 -2.241965479192992E-005
                   243  1.490274871487820E-004
                   244  9.736384795248331E-007
                   245  3.302710107830948E-005
                   246 -1.094907064239506E-006
 Sym= __2_A__
 Ene=  0.000000000000000E+000
 Spin= Alpha
 Occup=    2.00000000000000     
                     1 -1.056370328368664E-005
                     2 -1.401884655162394E-004
                     3  1.849852872977893E-003
                     4  7.783983381734900E-006
                     5  1.109277283671463E-003
                     6 -2.646907900509625E-004
                     7  1.955094908406769E-003
                     8 -3.568895737416553E-004
                     9 -3.860361244311464E-005
                    10 -1.104421621881300E-004
                    11  8.935069781421868E-005
                    12  3.406680170697055E-005
                    13  2.143248829821051E-005
                    14  9.972960295292317E-005
                    15 -3.044367176476034E-006
                    16 -1.064409480679522E-006
                    17 -9.212252943778408E-006
                    18 -7.825244437414006E-005
                    19  2.033471188993099E-005
                    20 -1.528749641354104E-004
                    21 -9.841961184682105E-006
                    22 -1.393526781792071E-005
                    23  2.748563874681466E-005
                    24 -6.387954850471602E-005
                    25  1.059845450832725E-005
                    26 -1.965080670794354E-005
                    27  7.223699638650103E-005
                    28 -1.761678450191615E-005
                    29 -4.330063699764814E-006
                    30 -5.757092782144812E-005
                    31  1.511629405697517E-004
                    32   1.00078019989059     
                    33  8.970094152664417E-003
                    34  2.902934097042645E-003
                    35 -8.529200705744542E-003
                    36  7.183941143953942E-005
                    37 -2.035238606769922E-003
                    38  1.793009787581492E-004
                    39 -1.870862887977373E-004
                    40  5.206457214772017E-004
                    41 -1.574359781377742E-004
                    42 -9.824093671416109E-005
                    43  3.037387002466292E-003
                    44 -1.398248117283062E-004
                    45 -4.938930305009282E-004
                    46 -4.623140568413072E-005
                    47 -1.455620985527627E-005
                    48  8.763546078374257E-005
                    49  2.019835814140045E-005
                    50  6.548752582846561E-004
                    51  1.357064463854335E-004
                    52  1.807498590348556E-005
                    53 -1.036212311056908E-003
                    54 -2.174000709309943E-004
                    55 -4.712685434625741E-006
                    56  9.450482763305937E-006
                    57  1.599999315567442E-005
                    58 -1.609507372201384E-005
                    59 -1.579072073581303E-005
                    60 -2.009339443385024E-005
                    61  3.123423224291773E-004
                    62  1.702337488752069E-002
                    63 -1.872836745767782E-003
                    64 -2.970588359450726E-004
                    65  3.085945197503650E-003
                    66  2.283094638656204E-004
                    67 -4.114969471302201E-005
                    68 -6.469982109343929E-005
                    69  4.427180340269390E-004
                    70 -8.156870024211825E-005
                    71 -1.747255116083704E-005
                    72 -1.841698810570235E-003
                    73  2.814313409459309E-004
                    74  1.278918491690773E-004
                    75  3.536764435215750E-005
                    76  1.315454068148832E-006
                    77  6.746718113073921E-007
                    78  8.468484074524510E-006
                    79  2.490686802639128E-005
                    80 -4.530438232708130E-004
                    81  2.386024779800897E-005
                    82 -9.847049429858329E-006
                    83 -8.344316857574812E-004
                    84 -4.583735523555400E-004
                    85  6.694928533936982E-006
                    86  4.544418599602321E-005
                    87 -5.116675339358338E-005
                    88  8.080472275560248E-006
                    89 -1.573716448727930E-005
                    90  3.236131014683151E-005
                    91  1.067727028888717E-004
                    92  2.011005226889970E-002
                    93 -1.787190029306085E-003
                    94 -3.420617695420110E-004
                    95  3.425733385860019E-003
                    96 -2.355500241231670E-004
                    97 -1.184332369175791E-004
                    98 -3.390586397909023E-005
                    99 -7.420001396001887E-004
                   100 -1.372512317567704E-004
                   101  5.355838805937535E-005
                   102  1.732420192261210E-003
                   103  5.407382635883608E-005
                   104 -8.057485805081449E-005
                   105  2.317059531032607E-005
                   106  2.550399365258849E-006
                   107  1.747817743359854E-007
                   108  1.090838457323065E-005
                   109 -1.099220124891378E-005
                   110 -4.457116894644758E-004
                   111 -2.308265555701213E-005
                   112 -4.272917075950979E-005
                   113 -6.435428673984314E-004
                   114  5.097825361352541E-004
                   115 -5.008830696625770E-006
                   116 -4.832067396699886E-005
                   117 -5.692456907615913E-005
                   118 -5.695687611893832E-006
                   119 -6.703008760946650E-006
                   120 -3.348684499092241E-005
                   121  9.107333808089749E-005
                   122  8.116424373815600E-005
                   123 -6.916216430898216E-004
                   124  2.332973462275686E-004
                   125 -2.797789781797967E-004
                   126 -5.249082496885269E-005
                   127 -2.414255281857043E-004
                   128 -1.618688246336176E-005
                   129  7.833190480987517E-005
                   130  6.069334957147527E-004
                   131 -1.191943904649291E-005
                   132  3.813094592708759E-004
                   133  6.536464353244709E-004
                   134 -2.719343340709621E-005
                   135  2.772727672845141E-005
                   136  1.309913136744410E-006
                   137 -9.062980814420296E-007
                   138  1.438251334287138E-005
                   139  4.474438068364462E-005
                   140  1.126939286995043E-004
                   141 -5.005643537953092E-006
                   142  2.009189981445005E-005
                   143  2.864662844684522E-004
                   144 -2.591228354749560E-004
                   145 -1.303575831338991E-006
                   146 -2.760295095682525E-006
                   147 -2.275433626639559E-005
                   148 -1.952732415878033E-006
                   149 -2.472140944508037E-006
                   150 -2.032465838819830E-005
                   151  1.287427301913684E-005
                   152  1.803628154397053E-004
                   153 -6.834900620668453E-004
                   154  2.411995924812655E-004
                   155 -2.652477118587223E-004
                   156  3.033867358339267E-005
                   157 -2.146452905276812E-004
                   158 -2.261758683853799E-005
                   159 -1.405507536826626E-007
                   160  5.520714913022863E-004