[Molden Format]
[Atoms] AU
  N     1    7    -0.1693929000   -4.4470327000    0.1637005600        
  C     2    6    -0.0494917400   -1.7320701200    0.0380938800        
  C     3    6    -2.2959178200   -0.3925560000    0.1541607000        
  C     4    6     2.2250758200   -0.4490001500   -0.0994787400        
  C     5    6    -2.2552395400    2.2131369100    0.1115029900        
  C     6    6     2.2511603500    2.1703151800   -0.1065256600        
  C     7    6     0.0180778600    3.5006031600   -0.0154386700        
  H     8    1    -0.8155111000   -5.4167692300   -2.6262937800        
  H     9    1     1.6588631600   -5.1549384300    0.1308776400        
  H    10    1    -4.0471617500   -1.4018023400    0.2965413200        
  H    11    1     3.9679057100   -1.4816850300   -0.2125448400        
  H    12    1    -3.9978557300    3.2492694200    0.2033742800        
  H    13    1     4.0218005000    3.1580454800   -0.1973420100        
  H    14    1     0.0373664400    5.5300432300   -0.0380355800        
[5D]
[7F]
[GTO]
  1  0
   s    12 1.00
  0.114200D+05  0.172695D-04
  0.171200D+04  0.134411D-03
  0.389300D+03  0.694561D-03
  0.110000D+03  0.278531D-02
  0.355700D+02  0.863457D-02
  0.125400D+02  0.199805D-01
  0.464400D+01  0.262908D-01
  0.129300D+01 -0.243845D-01
  0.511800D+00 -0.924934D-01
  0.178700D+00 -0.339683D+00
  0.246240D-01  0.345111D+00
  0.112530D-01  0.752750D+00
   s    10 1.00
  0.114200D+05  0.523000D-03
  0.171200D+04  0.404500D-02
  0.389300D+03  0.207750D-01
  0.110000D+03  0.807269D-01
  0.355700D+02  0.233074D+00
  0.125400D+02  0.433501D+00
  0.464400D+01  0.347472D+00
  0.129300D+01  0.412620D-01
  0.511800D+00 -0.850799D-02
  0.178700D+00  0.238400D-02
   s    10 1.00
  0.114200D+05 -0.115000D-03
  0.171200D+04 -0.895000D-03
  0.389300D+03 -0.462400D-02
  0.110000D+03 -0.185280D-01
  0.355700D+02 -0.573390D-01
  0.125400D+02 -0.132076D+00
  0.464400D+01 -0.172510D+00
  0.129300D+01  0.151814D+00
  0.511800D+00  0.599944D+00
  0.178700D+00  0.387462D+00
   s     1 1.00
  0.129300D+01  0.100000D+01
   s     1 1.00
  0.178700D+00  0.100000D+01
   p     5 1.00
  0.266300D+02  0.146700D-01
  0.594800D+01  0.917640D-01
  0.174200D+01  0.298683D+00
  0.555000D+00  0.498487D+00
  0.172500D+00  0.337023D+00
   p     1 1.00
  0.174200D+01  0.100000D+01
   p     1 1.00
  0.555000D+00  0.100000D+01
   d     1 1.00
  0.165400D+01  0.100000D+01
   d     1 1.00
  0.469000D+00  0.100000D+01
   f     1 1.00
  0.109300D+01  0.100000D+01
  
  2  0
   s    10 1.00
  0.823600D+04  0.531000D-03
  0.123500D+04  0.410800D-02
  0.280800D+03  0.210870D-01
  0.792700D+02  0.818530D-01
  0.255900D+02  0.234817D+00
  0.899700D+01  0.434401D+00
  0.331900D+01  0.346129D+00
  0.905900D+00  0.393780D-01
  0.364300D+00 -0.898300D-02
  0.128500D+00  0.238500D-02
   s    10 1.00
  0.823600D+04 -0.113000D-03
  0.123500D+04 -0.878000D-03
  0.280800D+03 -0.454000D-02
  0.792700D+02 -0.181330D-01
  0.255900D+02 -0.557600D-01
  0.899700D+01 -0.126895D+00
  0.331900D+01 -0.170352D+00
  0.905900D+00  0.140382D+00
  0.364300D+00  0.598684D+00
  0.128500D+00  0.395389D+00
   s     1 1.00
  0.905900D+00  0.100000D+01
   s     1 1.00
  0.364300D+00  0.100000D+01
   p     5 1.00
  0.187100D+02  0.140310D-01
  0.413300D+01  0.868660D-01
  0.120000D+01  0.290216D+00
  0.382700D+00  0.501008D+00
  0.120900D+00  0.343406D+00
   p     1 1.00
  0.382700D+00  0.100000D+01
   p     1 1.00
  0.120900D+00  0.100000D+01
   d     1 1.00
  0.109700D+01  0.100000D+01
   d     1 1.00
  0.318000D+00  0.100000D+01
   f     1 1.00
  0.761000D+00  0.100000D+01
  
  3  0
   s    10 1.00
  0.823600D+04  0.531000D-03
  0.123500D+04  0.410800D-02
  0.280800D+03  0.210870D-01
  0.792700D+02  0.818530D-01
  0.255900D+02  0.234817D+00
  0.899700D+01  0.434401D+00
  0.331900D+01  0.346129D+00
  0.905900D+00  0.393780D-01
  0.364300D+00 -0.898300D-02
  0.128500D+00  0.238500D-02
   s    10 1.00
  0.823600D+04 -0.113000D-03
  0.123500D+04 -0.878000D-03
  0.280800D+03 -0.454000D-02
  0.792700D+02 -0.181330D-01
  0.255900D+02 -0.557600D-01
  0.899700D+01 -0.126895D+00
  0.331900D+01 -0.170352D+00
  0.905900D+00  0.140382D+00
  0.364300D+00  0.598684D+00
  0.128500D+00  0.395389D+00
   s     1 1.00
  0.905900D+00  0.100000D+01
   s     1 1.00
  0.364300D+00  0.100000D+01
   p     5 1.00
  0.187100D+02  0.140310D-01
  0.413300D+01  0.868660D-01
  0.120000D+01  0.290216D+00
  0.382700D+00  0.501008D+00
  0.120900D+00  0.343406D+00
   p     1 1.00
  0.382700D+00  0.100000D+01
   p     1 1.00
  0.120900D+00  0.100000D+01
   d     1 1.00
  0.109700D+01  0.100000D+01
   d     1 1.00
  0.318000D+00  0.100000D+01
   f     1 1.00
  0.761000D+00  0.100000D+01
  
  4  0
   s    10 1.00
  0.823600D+04  0.531000D-03
  0.123500D+04  0.410800D-02
  0.280800D+03  0.210870D-01
  0.792700D+02  0.818530D-01
  0.255900D+02  0.234817D+00
  0.899700D+01  0.434401D+00
  0.331900D+01  0.346129D+00
  0.905900D+00  0.393780D-01
  0.364300D+00 -0.898300D-02
  0.128500D+00  0.238500D-02
   s    10 1.00
  0.823600D+04 -0.113000D-03
  0.123500D+04 -0.878000D-03
  0.280800D+03 -0.454000D-02
  0.792700D+02 -0.181330D-01
  0.255900D+02 -0.557600D-01
  0.899700D+01 -0.126895D+00
  0.331900D+01 -0.170352D+00
  0.905900D+00  0.140382D+00
  0.364300D+00  0.598684D+00
  0.128500D+00  0.395389D+00
   s     1 1.00
  0.905900D+00  0.100000D+01
   s     1 1.00
  0.364300D+00  0.100000D+01
   p     5 1.00
  0.187100D+02  0.140310D-01
  0.413300D+01  0.868660D-01
  0.120000D+01  0.290216D+00
  0.382700D+00  0.501008D+00
  0.120900D+00  0.343406D+00
   p     1 1.00
  0.382700D+00  0.100000D+01
   p     1 1.00
  0.120900D+00  0.100000D+01
   d     1 1.00
  0.109700D+01  0.100000D+01
   d     1 1.00
  0.318000D+00  0.100000D+01
   f     1 1.00
  0.761000D+00  0.100000D+01
  
  5  0
   s    10 1.00
  0.823600D+04  0.531000D-03
  0.123500D+04  0.410800D-02
  0.280800D+03  0.210870D-01
  0.792700D+02  0.818530D-01
  0.255900D+02  0.234817D+00
  0.899700D+01  0.434401D+00
  0.331900D+01  0.346129D+00
  0.905900D+00  0.393780D-01
  0.364300D+00 -0.898300D-02
  0.128500D+00  0.238500D-02
   s    10 1.00
  0.823600D+04 -0.113000D-03
  0.123500D+04 -0.878000D-03
  0.280800D+03 -0.454000D-02
  0.792700D+02 -0.181330D-01
  0.255900D+02 -0.557600D-01
  0.899700D+01 -0.126895D+00
  0.331900D+01 -0.170352D+00
  0.905900D+00  0.140382D+00
  0.364300D+00  0.598684D+00
  0.128500D+00  0.395389D+00
   s     1 1.00
  0.905900D+00  0.100000D+01
   s     1 1.00
  0.364300D+00  0.100000D+01
   p     5 1.00
  0.187100D+02  0.140310D-01
  0.413300D+01  0.868660D-01
  0.120000D+01  0.290216D+00
  0.382700D+00  0.501008D+00
  0.120900D+00  0.343406D+00
   p     1 1.00
  0.382700D+00  0.100000D+01
   p     1 1.00
  0.120900D+00  0.100000D+01
   d     1 1.00
  0.109700D+01  0.100000D+01
   d     1 1.00
  0.318000D+00  0.100000D+01
   f     1 1.00
  0.761000D+00  0.100000D+01
  
  6  0
   s    10 1.00
  0.823600D+04  0.531000D-03
  0.123500D+04  0.410800D-02
  0.280800D+03  0.210870D-01
  0.792700D+02  0.818530D-01
  0.255900D+02  0.234817D+00
  0.899700D+01  0.434401D+00
  0.331900D+01  0.346129D+00
  0.905900D+00  0.393780D-01
  0.364300D+00 -0.898300D-02
  0.128500D+00  0.238500D-02
   s    10 1.00
  0.823600D+04 -0.113000D-03
  0.123500D+04 -0.878000D-03
  0.280800D+03 -0.454000D-02
  0.792700D+02 -0.181330D-01
  0.255900D+02 -0.557600D-01
  0.899700D+01 -0.126895D+00
  0.331900D+01 -0.170352D+00
  0.905900D+00  0.140382D+00
  0.364300D+00  0.598684D+00
  0.128500D+00  0.395389D+00
   s     1 1.00
  0.905900D+00  0.100000D+01
   s     1 1.00
  0.364300D+00  0.100000D+01
   p     5 1.00
  0.187100D+02  0.140310D-01
  0.413300D+01  0.868660D-01
  0.120000D+01  0.290216D+00
  0.382700D+00  0.501008D+00
  0.120900D+00  0.343406D+00
   p     1 1.00
  0.382700D+00  0.100000D+01
   p     1 1.00
  0.120900D+00  0.100000D+01
   d     1 1.00
  0.109700D+01  0.100000D+01
   d     1 1.00
  0.318000D+00  0.100000D+01
   f     1 1.00
  0.761000D+00  0.100000D+01
  
  7  0
   s    10 1.00
  0.823600D+04  0.531000D-03
  0.123500D+04  0.410800D-02
  0.280800D+03  0.210870D-01
  0.792700D+02  0.818530D-01
  0.255900D+02  0.234817D+00
  0.899700D+01  0.434401D+00
  0.331900D+01  0.346129D+00
  0.905900D+00  0.393780D-01
  0.364300D+00 -0.898300D-02
  0.128500D+00  0.238500D-02
   s    10 1.00
  0.823600D+04 -0.113000D-03
  0.123500D+04 -0.878000D-03
  0.280800D+03 -0.454000D-02
  0.792700D+02 -0.181330D-01
  0.255900D+02 -0.557600D-01
  0.899700D+01 -0.126895D+00
  0.331900D+01 -0.170352D+00
  0.905900D+00  0.140382D+00
  0.364300D+00  0.598684D+00
  0.128500D+00  0.395389D+00
   s     1 1.00
  0.905900D+00  0.100000D+01
   s     1 1.00
  0.364300D+00  0.100000D+01
   p     5 1.00
  0.187100D+02  0.140310D-01
  0.413300D+01  0.868660D-01
  0.120000D+01  0.290216D+00
  0.382700D+00  0.501008D+00
  0.120900D+00  0.343406D+00
   p     1 1.00
  0.382700D+00  0.100000D+01
   p     1 1.00
  0.120900D+00  0.100000D+01
   d     1 1.00
  0.109700D+01  0.100000D+01
   d     1 1.00
  0.318000D+00  0.100000D+01
   f     1 1.00
  0.761000D+00  0.100000D+01
  
  8  0
   s     4 1.00
  0.130100D+02  0.196850D-01
  0.196200D+01  0.137977D+00
  0.444600D+00  0.478148D+00
  0.122000D+00  0.501240D+00
   s     1 1.00
  0.122000D+00  0.100000D+01
   p     1 1.00
  0.727000D+00  0.100000D+01
  
  9  0
   s     4 1.00
  0.130100D+02  0.196850D-01
  0.196200D+01  0.137977D+00
  0.444600D+00  0.478148D+00
  0.122000D+00  0.501240D+00
   s     1 1.00
  0.122000D+00  0.100000D+01
   p     1 1.00
  0.727000D+00  0.100000D+01
  
 10  0
   s     4 1.00
  0.130100D+02  0.196850D-01
  0.196200D+01  0.137977D+00
  0.444600D+00  0.478148D+00
  0.122000D+00  0.501240D+00
   s     1 1.00
  0.122000D+00  0.100000D+01
   p     1 1.00
  0.727000D+00  0.100000D+01
  
 11  0
   s     4 1.00
  0.130100D+02  0.196850D-01
  0.196200D+01  0.137977D+00
  0.444600D+00  0.478148D+00
  0.122000D+00  0.501240D+00
   s     1 1.00
  0.122000D+00  0.100000D+01
   p     1 1.00
  0.727000D+00  0.100000D+01
  
 12  0
   s     4 1.00
  0.130100D+02  0.196850D-01
  0.196200D+01  0.137977D+00
  0.444600D+00  0.478148D+00
  0.122000D+00  0.501240D+00
   s     1 1.00
  0.122000D+00  0.100000D+01
   p     1 1.00
  0.727000D+00  0.100000D+01
  
 13  0
   s     4 1.00
  0.130100D+02  0.196850D-01
  0.196200D+01  0.137977D+00
  0.444600D+00  0.478148D+00
  0.122000D+00  0.501240D+00
   s     1 1.00
  0.122000D+00  0.100000D+01
   p     1 1.00
  0.727000D+00  0.100000D+01
  
 14  0
   s     4 1.00
  0.130100D+02  0.196850D-01
  0.196200D+01  0.137977D+00
  0.444600D+00  0.478148D+00
  0.122000D+00  0.501240D+00
   s     1 1.00
  0.122000D+00  0.100000D+01
   p     1 1.00
  0.727000D+00  0.100000D+01
  
[MO]
 Sym= __1_A__
 Ene=   1.00000000000000     
 Spin= Alpha
 Occup=    1.00000000000000     
                     1  2.382988960760191E-004
                     2  0.998269494264581     
                     3 -7.267547127784316E-004
                     4  1.667619280854619E-003
                     5  7.837432843279717E-003
                     6  5.014452324551519E-003
                     7  6.799130159126231E-003
                     8 -2.397090572394228E-003
                     9 -8.655522930412049E-004
                    10 -1.139773989907988E-003
                    11  3.021543978027089E-004
                    12 -3.517560861157940E-003
                    13 -2.598849605543589E-003
                    14  1.545201500740497E-003
                    15 -7.546272076704695E-005
                    16 -3.931933515542040E-005
                    17 -1.211261214367885E-005
                    18 -3.987961004675996E-005
                    19 -7.904344247651800E-005
                    20  6.425020475511583E-006
                    21 -8.149958103511244E-005
                    22 -1.845231096652542E-004
                    23 -2.397026501208674E-004
                    24  6.069590392473451E-004
                    25 -1.477388081767722E-005
                    26 -4.232521359094265E-005
                    27 -4.669680240231841E-005
                    28  1.895364675829793E-005
                    29 -4.431025472872807E-006
                    30  1.833568277410823E-005
                    31 -1.064088136704177E-004
                    32 -4.789283346662542E-004
                    33 -2.265016737745206E-004
                    34  2.367057095155058E-004
                    35  3.477518812300643E-004
                    36 -2.278644081254699E-004
                    37 -2.899390247433201E-003
                    38 -9.015617358986234E-005
                    39  9.822617764686959E-004
                    40  1.971054266453540E-004
                    41 -8.492779049467209E-005
                    42 -3.302917294124440E-003
                    43  5.779850893192202E-003
                    44  4.421552319273842E-004
                    45 -5.316136333403114E-005
                    46  1.051700914073533E-005
                    47  1.285557541595180E-005
                    48 -2.284826405550802E-004
                    49  2.725839403510883E-005
                    50 -1.783170711947309E-004
                    51 -9.331201794269761E-005
                    52 -2.153802750829133E-004
                    53  4.936444374371754E-004
                    54  9.824605650361094E-004
                    55  8.309198354606504E-006
                    56 -1.615871676192864E-005
                    57 -2.462437664178233E-005
                    58 -7.057828197923646E-006
                    59  2.026242206918650E-006
                    60  4.195237400809522E-005
                    61 -3.504739654231105E-005
                    62 -7.802917105487381E-004
                    63 -2.997653214081806E-003
                    64 -8.361188767857398E-005
                    65  2.900568137606771E-003
                    66 -5.484559898408593E-004
                    67  2.118229914621688E-004
                    68 -1.311831125489443E-004
                    69  7.163621330571511E-004
                    70  1.007391178049541E-003
                    71 -5.128937791310260E-005
                    72 -1.689097667599413E-003
                    73  1.245357120036273E-003
                    74 -1.861899808771906E-005
                    75 -4.288962026955837E-005
                    76  7.026022086120606E-006
                    77 -9.896008375332356E-007
                    78 -9.483026459652606E-005
                    79 -3.641480986327587E-005
                    80 -2.002118181345897E-004
                    81 -6.390969122214223E-005
                    82 -3.309140867088107E-006
                    83  3.604366458640514E-004
                    84  1.576459199669285E-004
                    85 -2.591969004510649E-006
                    86 -1.901448900709136E-005
                    87 -4.459022059159197E-005
                    88  1.281199578727171E-005
                    89  1.364472462203009E-005
                    90 -1.756534414748918E-005
                    91 -1.639285578583613E-004
                    92 -1.179666222052594E-004
                    93 -6.707335747700842E-004
                    94  3.058507186305251E-004
                    95 -8.415107556122872E-004
                    96  2.587283834360102E-004
                    97  3.314228457585678E-004
                    98 -1.834052460770954E-004
                    99  5.810433395423171E-004
                   100  4.028077324333704E-004
                   101  1.420273894403086E-005
                   102  3.998166059945209E-004
                   103 -2.511241353977631E-003
                   104 -1.265712246037907E-004
                   105  3.639811718971787E-006
                   106 -4.370771365217704E-007
                   107 -5.087073832043105E-006
                   108 -7.008346492368678E-005
                   109 -2.145637615178446E-005
                   110  2.377921891892543E-004
                   111  2.858615514071742E-005
                   112  3.352531550682257E-005
                   113 -8.841600454943512E-005
                   114 -1.612305973171519E-004
                   115 -1.170893427721320E-006
                   116 -2.361471974079400E-005
                   117 -2.841335133140490E-005
                   118  7.404796586382202E-006
                   119 -8.204486661831317E-006
                   120 -7.567423138609250E-006
                   121  2.997587578432694E-005
                   122 -3.211761559290533E-004
                   123 -8.165283263999890E-004
                   124  1.413459406488029E-004
                   125  8.325611897753107E-004
                   126 -4.383538769703888E-005
                   127 -4.529194397592331E-004
                   128 -1.056948610866011E-004
                   129  2.990995988944738E-004
                   130  6.841194603277177E-004
                   131 -2.007879420740251E-005
                   132  3.123017302903294E-004
                   133  2.906598899362045E-003
                   134 -7.856801539668379E-006
                   135  2.238961082896896E-006
                   136 -4.146191100620067E-006
                   137  4.446305873352992E-006
                   138  4.425662611172110E-005
                   139 -6.964021320494217E-007
                   140  2.456221415091748E-004
                   141 -7.954210261486413E-006
                   142 -1.210397427568283E-005
                   143  4.599519913194876E-004
                   144  3.998418585007832E-004
                   145 -4.958484753544260E-006
                   146 -1.257436187463469E-005
                   147 -8.325455566218351E-005
                   148 -1.513070881860361E-006
                   149 -4.118664344867119E-006
                   150 -3.894852733072164E-005
                   151 -5.295730489070061E-005
                   152 -1.530865118274996E-004
                   153 -3.280206082084518E-004
                   154 -2.023818244458022E-005
                   155  4.826690970091465E-004
                   156 -4.229431822812878E-005
                   157 -2.926929780316089E-004
                   158 -9.719772812935971E-005
                   159  1.652068870029601E-004
                   160 -7.866273923853238E-005
                   161 -1.948645400741098E-005
                   162  9.901545621097980E-004
                   163 -9.004118624352399E-004
                   164  4.989340555252118E-006
                   165 -6.223162745564623E-006
                   166  2.472570345504168E-006
                   167  3.495165327778877E-006
                   168 -2.219845592364436E-005
                   169  1.044352184903165E-005
                   170  3.170919712030595E-005
                   171  8.860103155271475E-006
                   172  8.938264868113112E-006
                   173 -2.811820749485566E-005
                   174 -3.785066572087016E-005
                   175 -2.313986930818076E-006
                   176  2.682557564164901E-006
                   177 -5.894912158645807E-006
                   178  1.964958486365872E-006
                   179  2.358136776064580E-007
                   180 -1.855931978520808E-005
                   181 -7.521879527168327E-006
                   182 -1.537888311627534E-004
                   183 -4.766608135500718E-004
                   184  5.207356002036466E-005
                   185  1.318570631059902E-004
                   186 -8.042293078850717E-005
                   187 -2.841706199193181E-005
                   188 -8.676524217409996E-005
                   189  3.707679354034642E-004
                   190  1.406485320443485E-004
                   191 -1.246678500709467E-005
                   192  2.088648645199925E-003
                   193 -4.898308143668574E-004
                   194 -1.074093979201470E-004
                   195  3.716635246882020E-006
                   196  1.166236805815969E-006
                   197  1.362305297460194E-006
                   198 -8.200728952823103E-006
                   199  7.013249819641908E-006
                   200  2.003604012856256E-005
                   201  1.150921506999381E-005
                   202  1.970401048243327E-005
                   203 -1.599978801401597E-004
                   204 -3.090522497951720E-004
                   205 -3.236926230760468E-006
                   206 -1.528425229298494E-005
                   207 -6.477680398857230E-006
                   208  3.275458774781578E-007
                   209 -1.708064182552667E-006
                   210  1.683816541008842E-005
                   211  7.355354243880783E-006
                   212 -1.350357823152676E-004
                   213 -4.453356358181945E-005
                   214 -6.025933156517439E-005
                   215  1.858693242607912E-005
                   216  5.740143865221773E-005
                   217  8.501021543595552E-004
                   218 -1.653326604592528E-003
                   219 -4.151005719437703E-004
                   220  1.078985914262803E-004
                   221  7.454684031833965E-005
                   222 -4.711423338036464E-004
                   223 -3.459447372350857E-004
                   224  5.247587661843715E-005
                   225 -9.484841801259268E-005
                   226 -1.436955223536294E-006
                   227 -1.740894243544861E-004
                   228 -6.164475838826891E-004
                   229 -6.255403980190030E-005
                   230 -1.349414953897255E-005
                   231  8.655742815073678E-006
                   232  3.206591305093651E-005
                   233 -8.118688710735242E-004
                   234  9.920551310484991E-006
                   235 -4.102206575396027E-006
                   236 -2.615211248178453E-006
                   237 -1.057829202521013E-004
                   238 -3.377886652817271E-004
                   239  1.506860981603785E-005
                   240  1.686365247723944E-005
                   241 -3.998372902412746E-006
                   242 -2.241965396807080E-005
                   243  1.490274872964658E-004
                   244  9.736384745714848E-007
                   245  3.302710102095233E-005
                   246 -1.094907058660428E-006
 Sym= __2_A__
 Ene=   2.00000000000000     
 Spin= Alpha
 Occup=    1.00000000000000     
                     1 -1.056370334956556E-005
                     2 -1.401884705250970E-004
                     3  1.849852873008110E-003
                     4  7.783983395406039E-006
                     5  1.109277283332661E-003
                     6 -2.646907903905352E-004
                     7  1.955094908139927E-003
                     8 -3.568895738073117E-004
                     9 -3.860361246258166E-005
                    10 -1.104421621625682E-004
                    11  8.935069784559166E-005
                    12  3.406680182385754E-005
                    13  2.143248829442017E-005
                    14  9.972960297925758E-005
                    15 -3.044367176274942E-006
                    16 -1.064409480724233E-006
                    17 -9.212252944540473E-006
                    18 -7.825244436683757E-005
                    19  2.033471186475045E-005
                    20 -1.528749640823682E-004
                    21 -9.841961172810534E-006
                    22 -1.393526781306867E-005
                    23  2.748563874245566E-005
                    24 -6.387954852214970E-005
                    25  1.059845451081471E-005
                    26 -1.965080670306179E-005
                    27  7.223699640229554E-005
                    28 -1.761678449972165E-005
                    29 -4.330063696856895E-006
                    30 -5.757092781892737E-005
                    31  1.511629405518349E-004
                    32   1.00078019987538     
                    33  8.970094148697715E-003
                    34  2.902934096688063E-003
                    35 -8.529200703043315E-003
                    36  7.183940678688292E-005
                    37 -2.035238607474918E-003
                    38  1.793009788447985E-004
                    39 -1.870862885737471E-004
                    40  5.206457218644184E-004
                    41 -1.574359781486105E-004
                    42 -9.824093488443614E-005
                    43  3.037387001842813E-003
                    44 -1.398248118339496E-004
                    45 -4.938930304093338E-004
                    46 -4.623140567177124E-005
                    47 -1.455620984608499E-005
                    48  8.763546073551340E-005
                    49  2.019835799726128E-005
                    50  6.548752579338368E-004
                    51  1.357064463107275E-004
                    52  1.807498588377603E-005
                    53 -1.036212310511620E-003
                    54 -2.174000709093971E-004
                    55 -4.712685436757576E-006
                    56  9.450482774212992E-006
                    57  1.599999318031802E-005
                    58 -1.609507372041634E-005
                    59 -1.579072072003912E-005
                    60 -2.009339442853169E-005
                    61  3.123423222860182E-004
                    62  1.702337547168056E-002
                    63 -1.872836738947998E-003
                    64 -2.970588340184161E-004
                    65  3.085945192044896E-003
                    66  2.283094644837985E-004
                    67 -4.114969605485039E-005
                    68 -6.469982122918009E-005
                    69  4.427180335814125E-004
                    70 -8.156870043125999E-005
                    71 -1.747255110756026E-005
                    72 -1.841698809734322E-003
                    73  2.814313412643302E-004
                    74  1.278918491267772E-004
                    75  3.536764406885934E-005
                    76  1.315454037803910E-006
                    77  6.746718076825934E-007
                    78  8.468484029457426E-006
                    79  2.490686793406498E-005
                    80 -4.530438229297165E-004
                    81  2.386024780220829E-005
                    82 -9.847049439782855E-006
                    83 -8.344316853315542E-004
                    84 -4.583735518862384E-004
                    85  6.694928542705154E-006
                    86  4.544418603606572E-005
                    87 -5.116675335444499E-005
                    88  8.080472285737229E-006
                    89 -1.573716446585501E-005
                    90  3.236131016549067E-005
                    91  1.067727026906398E-004
                    92  2.011005248364268E-002
                    93 -1.787190030554114E-003
                    94 -3.420617686718307E-004
                    95  3.425733383786707E-003
                    96 -2.355500208069118E-004
                    97 -1.184332344939885E-004
                    98 -3.390586430037978E-005
                    99 -7.420001393784928E-004
                   100 -1.372512318856126E-004
                   101  5.355838805531429E-005
                   102  1.732420191424616E-003
                   103  5.407382618634810E-005
                   104 -8.057485798312317E-005
                   105  2.317059528683034E-005
                   106  2.550399373340040E-006
                   107  1.747817815947188E-007
                   108  1.090838446720272E-005
                   109 -1.099220134468650E-005
                   110 -4.457116892146890E-004
                   111 -2.308265554211852E-005
                   112 -4.272917072703843E-005
                   113 -6.435428672578504E-004
                   114  5.097825356365659E-004
                   115 -5.008830705994751E-006
                   116 -4.832067402465588E-005
                   117 -5.692456909329258E-005
                   118 -5.695687616841088E-006
                   119 -6.703008761116791E-006
                   120 -3.348684498488891E-005
                   121  9.107333805653027E-005
                   122  8.116425993269074E-005
                   123 -6.916216440258831E-004
                   124  2.332973460212992E-004
                   125 -2.797789763156730E-004
                   126 -5.249082505347805E-005
                   127 -2.414255280858353E-004
                   128 -1.618688245125994E-005
                   129  7.833190492807488E-005
                   130  6.069334952123872E-004
                   131 -1.191943904677742E-005
                   132  3.813094588737450E-004
                   133  6.536464357053189E-004
                   134 -2.719343338353915E-005
                   135  2.772727674279730E-005
                   136  1.309913139623534E-006
                   137 -9.062980769565143E-007
                   138  1.438251334800288E-005
                   139  4.474438066234915E-005
                   140  1.126939284351987E-004
                   141 -5.005643563460200E-006
                   142  2.009189978808780E-005
                   143  2.864662843560400E-004
                   144 -2.591228350770842E-004
                   145 -1.303575835506580E-006
                   146 -2.760295113035682E-006
                   147 -2.275433631412064E-005
                   148 -1.952732413499826E-006
                   149 -2.472140943261692E-006
                   150 -2.032465838080273E-005
                   151  1.287427295391801E-005
                   152  1.803628264300160E-004
                   153 -6.834900618216680E-004
                   154  2.411995923739063E-004
                   155 -2.652477108237350E-004
                   156  3.033867372576919E-005
                   157 -2.146452913285099E-004
                   158 -2.261758683613632E-005
                   159 -1.405507872989430E-007
                   160  5.520714911640583E-004