[Molden Format]
[Atoms] AU
  N     1    7    -0.0116146100   -4.3067228600    0.0000000000        
  C     2    6     0.0124260400   -1.7885843000    0.0000000000        
  C     3    6    -2.3286309100   -0.4161091700    0.0000000000        
  C     4    6     2.3465385500   -0.4027029300    0.0000000000        
  C     5    6    -2.2960709400    2.1605427400    0.0000000000        
  C     6    6     2.2983993000    2.1738313900    0.0000000000        
  C     7    6    -0.0030276500    3.4821658100    0.0000000000        
  H     8    1    -1.9668348900   -5.4553947300    0.0000000000        
  H     9    1     1.6247384300   -5.3594358900    0.0000000000        
  H    10    1    -4.0607267700   -1.4543414400    0.0000000000        
  H    11    1     4.0890804700   -1.4253457800    0.0000000000        
  H    12    1    -4.0438953700    3.1857432800    0.0000000000        
  H    13    1     4.0382553400    3.2115589600    0.0000000000        
  H    14    1    -0.0082587600    5.5088883200    0.0000000000        
[5D]
[7F]
[GTO]
  1  0
   s    12 1.00
  0.114200D+05  0.172695D-04
  0.171200D+04  0.134411D-03
  0.389300D+03  0.694561D-03
  0.110000D+03  0.278531D-02
  0.355700D+02  0.863457D-02
  0.125400D+02  0.199805D-01
  0.464400D+01  0.262908D-01
  0.129300D+01 -0.243845D-01
  0.511800D+00 -0.924934D-01
  0.178700D+00 -0.339683D+00
  0.246240D-01  0.345111D+00
  0.112530D-01  0.752750D+00
   s    10 1.00
  0.114200D+05  0.523000D-03
  0.171200D+04  0.404500D-02
  0.389300D+03  0.207750D-01
  0.110000D+03  0.807269D-01
  0.355700D+02  0.233074D+00
  0.125400D+02  0.433501D+00
  0.464400D+01  0.347472D+00
  0.129300D+01  0.412620D-01
  0.511800D+00 -0.850799D-02
  0.178700D+00  0.238400D-02
   s    10 1.00
  0.114200D+05 -0.115000D-03
  0.171200D+04 -0.895000D-03
  0.389300D+03 -0.462400D-02
  0.110000D+03 -0.185280D-01
  0.355700D+02 -0.573390D-01
  0.125400D+02 -0.132076D+00
  0.464400D+01 -0.172510D+00
  0.129300D+01  0.151814D+00
  0.511800D+00  0.599944D+00
  0.178700D+00  0.387462D+00
   s     1 1.00
  0.129300D+01  0.100000D+01
   s     1 1.00
  0.178700D+00  0.100000D+01
   p     5 1.00
  0.266300D+02  0.146700D-01
  0.594800D+01  0.917640D-01
  0.174200D+01  0.298683D+00
  0.555000D+00  0.498487D+00
  0.172500D+00  0.337023D+00
   p     1 1.00
  0.174200D+01  0.100000D+01
   p     1 1.00
  0.555000D+00  0.100000D+01
   d     1 1.00
  0.165400D+01  0.100000D+01
   d     1 1.00
  0.469000D+00  0.100000D+01
   f     1 1.00
  0.109300D+01  0.100000D+01
  
  2  0
   s    10 1.00
  0.823600D+04  0.531000D-03
  0.123500D+04  0.410800D-02
  0.280800D+03  0.210870D-01
  0.792700D+02  0.818530D-01
  0.255900D+02  0.234817D+00
  0.899700D+01  0.434401D+00
  0.331900D+01  0.346129D+00
  0.905900D+00  0.393780D-01
  0.364300D+00 -0.898300D-02
  0.128500D+00  0.238500D-02
   s    10 1.00
  0.823600D+04 -0.113000D-03
  0.123500D+04 -0.878000D-03
  0.280800D+03 -0.454000D-02
  0.792700D+02 -0.181330D-01
  0.255900D+02 -0.557600D-01
  0.899700D+01 -0.126895D+00
  0.331900D+01 -0.170352D+00
  0.905900D+00  0.140382D+00
  0.364300D+00  0.598684D+00
  0.128500D+00  0.395389D+00
   s     1 1.00
  0.905900D+00  0.100000D+01
   s     1 1.00
  0.364300D+00  0.100000D+01
   p     5 1.00
  0.187100D+02  0.140310D-01
  0.413300D+01  0.868660D-01
  0.120000D+01  0.290216D+00
  0.382700D+00  0.501008D+00
  0.120900D+00  0.343406D+00
   p     1 1.00
  0.382700D+00  0.100000D+01
   p     1 1.00
  0.120900D+00  0.100000D+01
   d     1 1.00
  0.109700D+01  0.100000D+01
   d     1 1.00
  0.318000D+00  0.100000D+01
   f     1 1.00
  0.761000D+00  0.100000D+01
  
  3  0
   s    10 1.00
  0.823600D+04  0.531000D-03
  0.123500D+04  0.410800D-02
  0.280800D+03  0.210870D-01
  0.792700D+02  0.818530D-01
  0.255900D+02  0.234817D+00
  0.899700D+01  0.434401D+00
  0.331900D+01  0.346129D+00
  0.905900D+00  0.393780D-01
  0.364300D+00 -0.898300D-02
  0.128500D+00  0.238500D-02
   s    10 1.00
  0.823600D+04 -0.113000D-03
  0.123500D+04 -0.878000D-03
  0.280800D+03 -0.454000D-02
  0.792700D+02 -0.181330D-01
  0.255900D+02 -0.557600D-01
  0.899700D+01 -0.126895D+00
  0.331900D+01 -0.170352D+00
  0.905900D+00  0.140382D+00
  0.364300D+00  0.598684D+00
  0.128500D+00  0.395389D+00
   s     1 1.00
  0.905900D+00  0.100000D+01
   s     1 1.00
  0.364300D+00  0.100000D+01
   p     5 1.00
  0.187100D+02  0.140310D-01
  0.413300D+01  0.868660D-01
  0.120000D+01  0.290216D+00
  0.382700D+00  0.501008D+00
  0.120900D+00  0.343406D+00
   p     1 1.00
  0.382700D+00  0.100000D+01
   p     1 1.00
  0.120900D+00  0.100000D+01
   d     1 1.00
  0.109700D+01  0.100000D+01
   d     1 1.00
  0.318000D+00  0.100000D+01
   f     1 1.00
  0.761000D+00  0.100000D+01
  
  4  0
   s    10 1.00
  0.823600D+04  0.531000D-03
  0.123500D+04  0.410800D-02
  0.280800D+03  0.210870D-01
  0.792700D+02  0.818530D-01
  0.255900D+02  0.234817D+00
  0.899700D+01  0.434401D+00
  0.331900D+01  0.346129D+00
  0.905900D+00  0.393780D-01
  0.364300D+00 -0.898300D-02
  0.128500D+00  0.238500D-02
   s    10 1.00
  0.823600D+04 -0.113000D-03
  0.123500D+04 -0.878000D-03
  0.280800D+03 -0.454000D-02
  0.792700D+02 -0.181330D-01
  0.255900D+02 -0.557600D-01
  0.899700D+01 -0.126895D+00
  0.331900D+01 -0.170352D+00
  0.905900D+00  0.140382D+00
  0.364300D+00  0.598684D+00
  0.128500D+00  0.395389D+00
   s     1 1.00
  0.905900D+00  0.100000D+01
   s     1 1.00
  0.364300D+00  0.100000D+01
   p     5 1.00
  0.187100D+02  0.140310D-01
  0.413300D+01  0.868660D-01
  0.120000D+01  0.290216D+00
  0.382700D+00  0.501008D+00
  0.120900D+00  0.343406D+00
   p     1 1.00
  0.382700D+00  0.100000D+01
   p     1 1.00
  0.120900D+00  0.100000D+01
   d     1 1.00
  0.109700D+01  0.100000D+01
   d     1 1.00
  0.318000D+00  0.100000D+01
   f     1 1.00
  0.761000D+00  0.100000D+01
  
  5  0
   s    10 1.00
  0.823600D+04  0.531000D-03
  0.123500D+04  0.410800D-02
  0.280800D+03  0.210870D-01
  0.792700D+02  0.818530D-01
  0.255900D+02  0.234817D+00
  0.899700D+01  0.434401D+00
  0.331900D+01  0.346129D+00
  0.905900D+00  0.393780D-01
  0.364300D+00 -0.898300D-02
  0.128500D+00  0.238500D-02
   s    10 1.00
  0.823600D+04 -0.113000D-03
  0.123500D+04 -0.878000D-03
  0.280800D+03 -0.454000D-02
  0.792700D+02 -0.181330D-01
  0.255900D+02 -0.557600D-01
  0.899700D+01 -0.126895D+00
  0.331900D+01 -0.170352D+00
  0.905900D+00  0.140382D+00
  0.364300D+00  0.598684D+00
  0.128500D+00  0.395389D+00
   s     1 1.00
  0.905900D+00  0.100000D+01
   s     1 1.00
  0.364300D+00  0.100000D+01
   p     5 1.00
  0.187100D+02  0.140310D-01
  0.413300D+01  0.868660D-01
  0.120000D+01  0.290216D+00
  0.382700D+00  0.501008D+00
  0.120900D+00  0.343406D+00
   p     1 1.00
  0.382700D+00  0.100000D+01
   p     1 1.00
  0.120900D+00  0.100000D+01
   d     1 1.00
  0.109700D+01  0.100000D+01
   d     1 1.00
  0.318000D+00  0.100000D+01
   f     1 1.00
  0.761000D+00  0.100000D+01
  
  6  0
   s    10 1.00
  0.823600D+04  0.531000D-03
  0.123500D+04  0.410800D-02
  0.280800D+03  0.210870D-01
  0.792700D+02  0.818530D-01
  0.255900D+02  0.234817D+00
  0.899700D+01  0.434401D+00
  0.331900D+01  0.346129D+00
  0.905900D+00  0.393780D-01
  0.364300D+00 -0.898300D-02
  0.128500D+00  0.238500D-02
   s    10 1.00
  0.823600D+04 -0.113000D-03
  0.123500D+04 -0.878000D-03
  0.280800D+03 -0.454000D-02
  0.792700D+02 -0.181330D-01
  0.255900D+02 -0.557600D-01
  0.899700D+01 -0.126895D+00
  0.331900D+01 -0.170352D+00
  0.905900D+00  0.140382D+00
  0.364300D+00  0.598684D+00
  0.128500D+00  0.395389D+00
   s     1 1.00
  0.905900D+00  0.100000D+01
   s     1 1.00
  0.364300D+00  0.100000D+01
   p     5 1.00
  0.187100D+02  0.140310D-01
  0.413300D+01  0.868660D-01
  0.120000D+01  0.290216D+00
  0.382700D+00  0.501008D+00
  0.120900D+00  0.343406D+00
   p     1 1.00
  0.382700D+00  0.100000D+01
   p     1 1.00
  0.120900D+00  0.100000D+01
   d     1 1.00
  0.109700D+01  0.100000D+01
   d     1 1.00
  0.318000D+00  0.100000D+01
   f     1 1.00
  0.761000D+00  0.100000D+01
  
  7  0
   s    10 1.00
  0.823600D+04  0.531000D-03
  0.123500D+04  0.410800D-02
  0.280800D+03  0.210870D-01
  0.792700D+02  0.818530D-01
  0.255900D+02  0.234817D+00
  0.899700D+01  0.434401D+00
  0.331900D+01  0.346129D+00
  0.905900D+00  0.393780D-01
  0.364300D+00 -0.898300D-02
  0.128500D+00  0.238500D-02
   s    10 1.00
  0.823600D+04 -0.113000D-03
  0.123500D+04 -0.878000D-03
  0.280800D+03 -0.454000D-02
  0.792700D+02 -0.181330D-01
  0.255900D+02 -0.557600D-01
  0.899700D+01 -0.126895D+00
  0.331900D+01 -0.170352D+00
  0.905900D+00  0.140382D+00
  0.364300D+00  0.598684D+00
  0.128500D+00  0.395389D+00
   s     1 1.00
  0.905900D+00  0.100000D+01
   s     1 1.00
  0.364300D+00  0.100000D+01
   p     5 1.00
  0.187100D+02  0.140310D-01
  0.413300D+01  0.868660D-01
  0.120000D+01  0.290216D+00
  0.382700D+00  0.501008D+00
  0.120900D+00  0.343406D+00
   p     1 1.00
  0.382700D+00  0.100000D+01
   p     1 1.00
  0.120900D+00  0.100000D+01
   d     1 1.00
  0.109700D+01  0.100000D+01
   d     1 1.00
  0.318000D+00  0.100000D+01
   f     1 1.00
  0.761000D+00  0.100000D+01
  
  8  0
   s     4 1.00
  0.130100D+02  0.196850D-01
  0.196200D+01  0.137977D+00
  0.444600D+00  0.478148D+00
  0.122000D+00  0.501240D+00
   s     1 1.00
  0.122000D+00  0.100000D+01
   p     1 1.00
  0.727000D+00  0.100000D+01
  
  9  0
   s     4 1.00
  0.130100D+02  0.196850D-01
  0.196200D+01  0.137977D+00
  0.444600D+00  0.478148D+00
  0.122000D+00  0.501240D+00
   s     1 1.00
  0.122000D+00  0.100000D+01
   p     1 1.00
  0.727000D+00  0.100000D+01
  
 10  0
   s     4 1.00
  0.130100D+02  0.196850D-01
  0.196200D+01  0.137977D+00
  0.444600D+00  0.478148D+00
  0.122000D+00  0.501240D+00
   s     1 1.00
  0.122000D+00  0.100000D+01
   p     1 1.00
  0.727000D+00  0.100000D+01
  
 11  0
   s     4 1.00
  0.130100D+02  0.196850D-01
  0.196200D+01  0.137977D+00
  0.444600D+00  0.478148D+00
  0.122000D+00  0.501240D+00
   s     1 1.00
  0.122000D+00  0.100000D+01
   p     1 1.00
  0.727000D+00  0.100000D+01
  
 12  0
   s     4 1.00
  0.130100D+02  0.196850D-01
  0.196200D+01  0.137977D+00
  0.444600D+00  0.478148D+00
  0.122000D+00  0.501240D+00
   s     1 1.00
  0.122000D+00  0.100000D+01
   p     1 1.00
  0.727000D+00  0.100000D+01
  
 13  0
   s     4 1.00
  0.130100D+02  0.196850D-01
  0.196200D+01  0.137977D+00
  0.444600D+00  0.478148D+00
  0.122000D+00  0.501240D+00
   s     1 1.00
  0.122000D+00  0.100000D+01
   p     1 1.00
  0.727000D+00  0.100000D+01
  
 14  0
   s     4 1.00
  0.130100D+02  0.196850D-01
  0.196200D+01  0.137977D+00
  0.444600D+00  0.478148D+00
  0.122000D+00  0.501240D+00
   s     1 1.00
  0.122000D+00  0.100000D+01
   p     1 1.00
  0.727000D+00  0.100000D+01
  
[MO]
 Sym= __1_A'_
 Ene=   1.00000000000000     
 Spin= Alpha
 Occup=    1.00000000000000     
                     1  1.163285211906334E-005
                     2  0.998311347134288     
                     3  7.318163681827468E-003
                     4  1.831429402270984E-003
                     5  2.111772350896198E-003
                     6  5.146454304537218E-004
                     7  4.733374725493910E-003
                     8  0.000000000000000E+000
                     9  1.062555236965828E-004
                    10 -9.783966384391090E-005
                    11  0.000000000000000E+000
                    12 -1.234457994038986E-004
                    13 -3.770035130126380E-004
                    14  0.000000000000000E+000
                    15 -1.715915328014449E-004
                    16  0.000000000000000E+000
                    17  0.000000000000000E+000
                    18 -2.059352096904090E-004
                    19 -6.696860026706998E-005
                    20  3.974397660101677E-004
                    21  0.000000000000000E+000
                    22  0.000000000000000E+000
                    23 -3.544548148599888E-004
                    24  7.812712465012097E-005
                    25  0.000000000000000E+000
                    26 -2.183998619646272E-005
                    27 -5.285648672884545E-005
                    28  0.000000000000000E+000
                    29  0.000000000000000E+000
                    30  9.043076229484801E-006
                    31 -1.452182801843586E-004
                    32 -3.394561277384216E-004
                    33  2.503989358393045E-003
                    34  1.334298901615140E-004
                    35 -2.079269044246276E-004
                    36 -5.204422596572889E-005
                    37 -6.501677054729574E-003
                    38  0.000000000000000E+000
                    39 -1.880259530478702E-005
                    40  2.240668264123503E-004
                    41  0.000000000000000E+000
                    42 -1.388271425829399E-004
                    43  4.587016433337115E-003
                    44  0.000000000000000E+000
                    45 -5.346378238321591E-005
                    46  0.000000000000000E+000
                    47  0.000000000000000E+000
                    48 -3.471338722944280E-004
                    49 -1.193427521147071E-005
                    50 -4.031804932196441E-004
                    51  0.000000000000000E+000
                    52  0.000000000000000E+000
                    53  5.436097923029262E-005
                    54  6.012379520437025E-005
                    55  0.000000000000000E+000
                    56  1.584933721765599E-006
                    57 -6.195054194748085E-006
                    58  0.000000000000000E+000
                    59  0.000000000000000E+000
                    60  1.227526383029195E-005
                    61 -1.137903231605353E-004
                    62 -2.114039784201224E-004
                    63 -1.525503115742356E-003
                    64  4.248673188459056E-005
                    65  6.434438213636869E-004
                    66 -7.580638949644663E-004
                    67  8.392384370774492E-004
                    68  0.000000000000000E+000
                    69 -1.357542271233000E-006
                    70  5.988300756425413E-004
                    71  0.000000000000000E+000
                    72 -8.013991829690112E-004
                    73 -4.708418597116236E-005
                    74  0.000000000000000E+000
                    75 -1.364601246400057E-005
                    76  0.000000000000000E+000
                    77  0.000000000000000E+000
                    78 -8.843444727235670E-005
                    79 -6.711068887974773E-006
                    80 -1.233146126699125E-005
                    81  0.000000000000000E+000
                    82  0.000000000000000E+000
                    83  5.962273241643008E-006
                    84  1.567221648652966E-004
                    85  0.000000000000000E+000
                    86  2.064479486668255E-005
                    87 -4.386819538932611E-005
                    88  0.000000000000000E+000
                    89  0.000000000000000E+000
                    90 -3.027677654894529E-005
                    91 -8.715420209981555E-005
                    92 -2.310150371581065E-004
                    93 -1.685544721511339E-003
                    94  6.423037845036453E-005
                    95  5.855762364197830E-004
                    96  8.084832708799793E-004
                    97  9.548044164823901E-004
                    98  0.000000000000000E+000
                    99  3.731096843257923E-005
                   100  5.507171092394051E-004
                   101  0.000000000000000E+000
                   102  5.804355650601065E-004
                   103 -3.565538654165899E-004
                   104  0.000000000000000E+000
                   105 -1.018777982783911E-005
                   106  0.000000000000000E+000
                   107  0.000000000000000E+000
                   108 -9.745615231587088E-005
                   109  3.973836275524454E-006
                   110 -1.781486272706476E-005
                   111  0.000000000000000E+000
                   112  0.000000000000000E+000
                   113  1.149820389025648E-006
                   114 -1.356063205401910E-004
                   115  0.000000000000000E+000
                   116 -1.840691553960833E-005
                   117 -3.793578305727969E-005
                   118  0.000000000000000E+000
                   119  0.000000000000000E+000
                   120  1.342986687352522E-005
                   121 -8.341495951802454E-005
                   122 -1.536132542901148E-004
                   123 -7.773730891154881E-005
                   124  1.084011678095006E-004
                   125  1.571728880537077E-004
                   126  3.109942525430697E-005
                   127 -7.030648593755243E-004
                   128  0.000000000000000E+000
                   129  5.793881455004301E-005
                   130  3.674765129218769E-004
                   131  0.000000000000000E+000
                   132 -7.284433524209362E-005
                   133  8.550228286584309E-004
                   134  0.000000000000000E+000
                   135  9.491935635015138E-006
                   136  0.000000000000000E+000
                   137  0.000000000000000E+000
                   138  1.665367523268523E-005
                   139  1.944992114821097E-007
                   140  1.069684303880636E-004
                   141  0.000000000000000E+000
                   142  0.000000000000000E+000
                   143  1.742745817278555E-004
                   144  1.613016772473673E-004
                   145  0.000000000000000E+000
                   146 -5.378981824640990E-006
                   147 -3.361431969479723E-005
                   148  0.000000000000000E+000
                   149  0.000000000000000E+000
                   150  3.088651364852052E-006
                   151 -2.439384717970954E-005
                   152 -1.548597910231497E-004
                   153 -5.087117362552141E-005
                   154  1.051782509425860E-004
                   155  1.695062266540730E-004
                   156 -3.278471522016340E-005
                   157 -7.353352119309867E-004
                   158  0.000000000000000E+000
                   159 -4.377425010374506E-005
                   160  3.179379394220965E-004
                   161  0.000000000000000E+000
                   162  2.812952360013829E-004
                   163  6.127110965484986E-004
                   164  0.000000000000000E+000
                   165  6.838850302375041E-006
                   166  0.000000000000000E+000
                   167  0.000000000000000E+000
                   168  1.441506787404173E-005
                   169 -1.805130723022580E-006
                   170  1.151968018998152E-004
                   171  0.000000000000000E+000
                   172  0.000000000000000E+000
                   173  1.420049482892468E-004
                   174 -1.471512411549961E-004
                   175  0.000000000000000E+000
                   176  3.525133792715215E-006
                   177 -3.049586826899261E-005
                   178  0.000000000000000E+000
                   179  0.000000000000000E+000
                   180 -1.127649313354864E-007
                   181 -2.520094446081123E-005
                   182 -1.202996744473371E-004
                   183 -3.227035854338570E-004
                   184  3.665759705046817E-005
                   185  1.402492422656451E-004
                   186 -4.181652818636941E-006
                   187 -4.325998292710002E-005
                   188  0.000000000000000E+000
                   189  2.729688493826126E-005
                   190  2.813380425830772E-005
                   191  0.000000000000000E+000
                   192  1.523816266768868E-004
                   193 -2.580031200704639E-006
                   194  0.000000000000000E+000
                   195 -1.550741090254331E-006
                   196  0.000000000000000E+000
                   197  0.000000000000000E+000
                   198 -1.966748061130937E-005
                   199 -7.916635186155759E-007
                   200  1.865018332025013E-005
                   201  0.000000000000000E+000
                   202  0.000000000000000E+000
                   203 -7.850368930178356E-005
                   204 -1.763486891397662E-005
                   205  0.000000000000000E+000
                   206 -1.283720592851326E-006
                   207 -5.420981957917443E-006
                   208  0.000000000000000E+000
                   209  0.000000000000000E+000
                   210 -7.605619559945443E-007
                   211 -7.490483569559308E-006
                   212  1.718501506806484E-003
                   213 -1.161779424124510E-003
                   214  3.961861979555758E-004
                   215  3.009015938644333E-004
                   216  0.000000000000000E+000
                   217  3.450860680785383E-003
                   218 -2.139223680951936E-003
                   219 -4.250825198290347E-004
                   220  3.631639720347614E-004
                   221  0.000000000000000E+000
                   222 -5.433102452837634E-004
                   223 -2.907676112197850E-004
                   224 -1.390901386717382E-005
                   225 -3.969549847235445E-005
                   226  0.000000000000000E+000
                   227 -5.784528932853765E-004
                   228 -1.931923965769216E-004
                   229  1.138444485665142E-005
                   230 -4.105714816435170E-005
                   231  0.000000000000000E+000
                   232 -2.010156929496316E-004
                   233 -4.060164331492191E-004
                   234 -4.612464374729193E-006
                   235  4.544821563910912E-006
                   236  0.000000000000000E+000
                   237 -2.071714760347784E-004
                   238 -4.370834571663193E-004
                   239  3.369086429300696E-006
                   240  1.032088308605124E-006
                   241  0.000000000000000E+000
                   242  5.972247131977904E-005
                   243 -1.044337207408536E-004
                   244  6.741775070031495E-008
                   245  1.474846477476506E-005
                   246  0.000000000000000E+000
 Sym= __2_A'_
 Ene=   2.00000000000000     
 Spin= Alpha
 Occup=    1.00000000000000     
                     1 -5.162295758209201E-005
                     2 -2.296593127182683E-004
                     3  2.508306960166025E-003
                     4  1.116336312026185E-004
                     5  1.248107530042653E-003
                     6 -8.816954680349523E-005
                     7  3.049224849364462E-003
                     8  0.000000000000000E+000
                     9 -4.023918499986769E-006
                    10 -6.947213797013285E-005
                    11  0.000000000000000E+000
                    12  3.214202695358025E-005
                    13 -4.922551040972235E-004
                    14  0.000000000000000E+000
                    15  3.464494654478126E-005
                    16  0.000000000000000E+000
                    17  0.000000000000000E+000
                    18 -7.033873445049728E-005
                    19 -2.080599023661635E-006
                    20 -1.388175108244452E-004
                    21  0.000000000000000E+000
                    22  0.000000000000000E+000
                    23  3.302042852051550E-004
                    24 -5.943410425181520E-006
                    25  0.000000000000000E+000
                    26 -3.275861259828040E-006
                    27  1.096660545952855E-004
                    28  0.000000000000000E+000
                    29  0.000000000000000E+000
                    30 -1.831317026786860E-005
                    31  1.466886807512172E-004
                    32   1.00106479081118     
                    33  9.284592297849004E-003
                    34  2.603506045509662E-003
                    35 -7.766842766756132E-003
                    36 -7.261781480080656E-006
                    37 -4.174778443372575E-003
                    38  0.000000000000000E+000
                    39 -4.086447723228262E-005
                    40  1.007832650002946E-003
                    41  0.000000000000000E+000
                    42 -1.422308035911220E-006
                    43  4.402902977173205E-003
                    44  0.000000000000000E+000
                    45 -5.995585908365161E-004
                    46  0.000000000000000E+000
                    47  0.000000000000000E+000
                    48 -2.028318440990720E-004
                    49  7.785892322622108E-006
                    50  5.121065213152964E-004
                    51  0.000000000000000E+000
                    52  0.000000000000000E+000
                    53 -8.675911773835766E-004
                    54 -4.957867190236798E-005
                    55  0.000000000000000E+000
                    56  3.008507852221839E-006
                    57  7.450627772791529E-005
                    58  0.000000000000000E+000
                    59  0.000000000000000E+000
                    60 -8.672624582642973E-006
                    61  4.208593031193719E-004
                    62  7.121421049213402E-003
                    63 -2.048493816799005E-003
                    64 -2.628658124073441E-004
                    65  2.938184945540953E-003
                    66  7.736924910872927E-005
                    67  8.695017329085724E-006
                    68  0.000000000000000E+000
                    69  5.713183656267523E-004
                    70  6.222168839623963E-005
                    71  0.000000000000000E+000
                    72 -2.083589419749265E-003
                    73  1.354893281530161E-004
                    74  0.000000000000000E+000
                    75  3.383516622147935E-005
                    76  0.000000000000000E+000
                    77  0.000000000000000E+000
                    78 -3.702299880140996E-006
                    79  1.190152815707994E-005
                    80 -3.900977521692748E-004
                    81  0.000000000000000E+000
                    82  0.000000000000000E+000
                    83 -6.418316596766106E-004
                    84 -3.796904306531066E-004
                    85  0.000000000000000E+000
                    86  3.615373093458414E-005
                    87 -5.595839231131954E-005
                    88  0.000000000000000E+000
                    89  0.000000000000000E+000
                    90  5.452354462892353E-005
                    91  1.371054101981911E-004
                    92  7.243344438978738E-003
                    93 -2.066594281258786E-003
                    94 -2.765517787450934E-004
                    95  3.018144804190519E-003
                    96 -6.021498013502195E-005
                    97  8.234084898978103E-006
                    98  0.000000000000000E+000
                    99 -6.322215534653827E-004
                   100  4.711566736663704E-005
                   101  0.000000000000000E+000
                   102  2.031595087328411E-003
                   103  1.173920958847058E-004
                   104  0.000000000000000E+000
                   105  3.233792002973237E-005
                   106  0.000000000000000E+000
                   107  0.000000000000000E+000
                   108 -1.564695947882067E-006
                   109 -1.087055221825182E-005
                   110 -3.958385981059781E-004
                   111  0.000000000000000E+000
                   112  0.000000000000000E+000
                   113 -6.134703840474348E-004
                   114  3.810799124347160E-004
                   115  0.000000000000000E+000
                   116 -3.476625682120009E-005
                   117 -5.777896682094199E-005
                   118  0.000000000000000E+000
                   119  0.000000000000000E+000
                   120 -4.671518349044175E-005
                   121  1.361419409449558E-004
                   122 -2.344844240980434E-004
                   123 -7.407421350048654E-004
                   124  2.259857784430232E-004
                   125 -1.146843237486183E-004
                   126 -1.262628978810351E-005
                   127 -2.755733570028351E-004
                   128  0.000000000000000E+000
                   129 -2.829180200120362E-005
                   130  5.411117384700937E-004
                   131  0.000000000000000E+000
                   132  3.382456332076223E-004
                   133  7.628255963475374E-004
                   134  0.000000000000000E+000
                   135  1.920301860914912E-005
                   136  0.000000000000000E+000
                   137  0.000000000000000E+000
                   138  4.550489613098744E-006
                   139  5.018932294426334E-005
                   140  1.320400865713961E-004
                   141  0.000000000000000E+000
                   142  0.000000000000000E+000
                   143  2.572267575846390E-004
                   144 -2.000617899927367E-004
                   145  0.000000000000000E+000
                   146  5.802278747535280E-006
                   147 -3.153722027795075E-005
                   148  0.000000000000000E+000
                   149  0.000000000000000E+000
                   150 -4.173314747683091E-005
                   151  2.660187314449127E-005
                   152 -2.262954376255281E-004
                   153 -7.398463664272174E-004
                   154  2.276935518814526E-004
                   155 -1.082532392158061E-004
                   156  1.059075713177694E-005
                   157 -2.760868893752933E-004
                   158  0.000000000000000E+000
                   159  2.908923471224212E-005
                   160  5.385157071970115E-004