[Molden Format]
[Atoms] AU
  N     1    7    -0.0116146100   -4.3067228600    0.0000000000        
  C     2    6     0.0124260400   -1.7885843000    0.0000000000        
  C     3    6    -2.3286309100   -0.4161091700    0.0000000000        
  C     4    6     2.3465385500   -0.4027029300    0.0000000000        
  C     5    6    -2.2960709400    2.1605427400    0.0000000000        
  C     6    6     2.2983993000    2.1738313900    0.0000000000        
  C     7    6    -0.0030276500    3.4821658100    0.0000000000        
  H     8    1    -1.9668348900   -5.4553947300    0.0000000000        
  H     9    1     1.6247384300   -5.3594358900    0.0000000000        
  H    10    1    -4.0607267700   -1.4543414400    0.0000000000        
  H    11    1     4.0890804700   -1.4253457800    0.0000000000        
  H    12    1    -4.0438953700    3.1857432800    0.0000000000        
  H    13    1     4.0382553400    3.2115589600    0.0000000000        
  H    14    1    -0.0082587600    5.5088883200    0.0000000000        
[5D]
[7F]
[GTO]
  1  0
   s    12 1.00
  0.114200D+05  0.172695D-04
  0.171200D+04  0.134411D-03
  0.389300D+03  0.694561D-03
  0.110000D+03  0.278531D-02
  0.355700D+02  0.863457D-02
  0.125400D+02  0.199805D-01
  0.464400D+01  0.262908D-01
  0.129300D+01 -0.243845D-01
  0.511800D+00 -0.924934D-01
  0.178700D+00 -0.339683D+00
  0.246240D-01  0.345111D+00
  0.112530D-01  0.752750D+00
   s    10 1.00
  0.114200D+05  0.523000D-03
  0.171200D+04  0.404500D-02
  0.389300D+03  0.207750D-01
  0.110000D+03  0.807269D-01
  0.355700D+02  0.233074D+00
  0.125400D+02  0.433501D+00
  0.464400D+01  0.347472D+00
  0.129300D+01  0.412620D-01
  0.511800D+00 -0.850799D-02
  0.178700D+00  0.238400D-02
   s    10 1.00
  0.114200D+05 -0.115000D-03
  0.171200D+04 -0.895000D-03
  0.389300D+03 -0.462400D-02
  0.110000D+03 -0.185280D-01
  0.355700D+02 -0.573390D-01
  0.125400D+02 -0.132076D+00
  0.464400D+01 -0.172510D+00
  0.129300D+01  0.151814D+00
  0.511800D+00  0.599944D+00
  0.178700D+00  0.387462D+00
   s     1 1.00
  0.129300D+01  0.100000D+01
   s     1 1.00
  0.178700D+00  0.100000D+01
   p     5 1.00
  0.266300D+02  0.146700D-01
  0.594800D+01  0.917640D-01
  0.174200D+01  0.298683D+00
  0.555000D+00  0.498487D+00
  0.172500D+00  0.337023D+00
   p     1 1.00
  0.174200D+01  0.100000D+01
   p     1 1.00
  0.555000D+00  0.100000D+01
   d     1 1.00
  0.165400D+01  0.100000D+01
   d     1 1.00
  0.469000D+00  0.100000D+01
   f     1 1.00
  0.109300D+01  0.100000D+01
  
  2  0
   s    10 1.00
  0.823600D+04  0.531000D-03
  0.123500D+04  0.410800D-02
  0.280800D+03  0.210870D-01
  0.792700D+02  0.818530D-01
  0.255900D+02  0.234817D+00
  0.899700D+01  0.434401D+00
  0.331900D+01  0.346129D+00
  0.905900D+00  0.393780D-01
  0.364300D+00 -0.898300D-02
  0.128500D+00  0.238500D-02
   s    10 1.00
  0.823600D+04 -0.113000D-03
  0.123500D+04 -0.878000D-03
  0.280800D+03 -0.454000D-02
  0.792700D+02 -0.181330D-01
  0.255900D+02 -0.557600D-01
  0.899700D+01 -0.126895D+00
  0.331900D+01 -0.170352D+00
  0.905900D+00  0.140382D+00
  0.364300D+00  0.598684D+00
  0.128500D+00  0.395389D+00
   s     1 1.00
  0.905900D+00  0.100000D+01
   s     1 1.00
  0.364300D+00  0.100000D+01
   p     5 1.00
  0.187100D+02  0.140310D-01
  0.413300D+01  0.868660D-01
  0.120000D+01  0.290216D+00
  0.382700D+00  0.501008D+00
  0.120900D+00  0.343406D+00
   p     1 1.00
  0.382700D+00  0.100000D+01
   p     1 1.00
  0.120900D+00  0.100000D+01
   d     1 1.00
  0.109700D+01  0.100000D+01
   d     1 1.00
  0.318000D+00  0.100000D+01
   f     1 1.00
  0.761000D+00  0.100000D+01
  
  3  0
   s    10 1.00
  0.823600D+04  0.531000D-03
  0.123500D+04  0.410800D-02
  0.280800D+03  0.210870D-01
  0.792700D+02  0.818530D-01
  0.255900D+02  0.234817D+00
  0.899700D+01  0.434401D+00
  0.331900D+01  0.346129D+00
  0.905900D+00  0.393780D-01
  0.364300D+00 -0.898300D-02
  0.128500D+00  0.238500D-02
   s    10 1.00
  0.823600D+04 -0.113000D-03
  0.123500D+04 -0.878000D-03
  0.280800D+03 -0.454000D-02
  0.792700D+02 -0.181330D-01
  0.255900D+02 -0.557600D-01
  0.899700D+01 -0.126895D+00
  0.331900D+01 -0.170352D+00
  0.905900D+00  0.140382D+00
  0.364300D+00  0.598684D+00
  0.128500D+00  0.395389D+00
   s     1 1.00
  0.905900D+00  0.100000D+01
   s     1 1.00
  0.364300D+00  0.100000D+01
   p     5 1.00
  0.187100D+02  0.140310D-01
  0.413300D+01  0.868660D-01
  0.120000D+01  0.290216D+00
  0.382700D+00  0.501008D+00
  0.120900D+00  0.343406D+00
   p     1 1.00
  0.382700D+00  0.100000D+01
   p     1 1.00
  0.120900D+00  0.100000D+01
   d     1 1.00
  0.109700D+01  0.100000D+01
   d     1 1.00
  0.318000D+00  0.100000D+01
   f     1 1.00
  0.761000D+00  0.100000D+01
  
  4  0
   s    10 1.00
  0.823600D+04  0.531000D-03
  0.123500D+04  0.410800D-02
  0.280800D+03  0.210870D-01
  0.792700D+02  0.818530D-01
  0.255900D+02  0.234817D+00
  0.899700D+01  0.434401D+00
  0.331900D+01  0.346129D+00
  0.905900D+00  0.393780D-01
  0.364300D+00 -0.898300D-02
  0.128500D+00  0.238500D-02
   s    10 1.00
  0.823600D+04 -0.113000D-03
  0.123500D+04 -0.878000D-03
  0.280800D+03 -0.454000D-02
  0.792700D+02 -0.181330D-01
  0.255900D+02 -0.557600D-01
  0.899700D+01 -0.126895D+00
  0.331900D+01 -0.170352D+00
  0.905900D+00  0.140382D+00
  0.364300D+00  0.598684D+00
  0.128500D+00  0.395389D+00
   s     1 1.00
  0.905900D+00  0.100000D+01
   s     1 1.00
  0.364300D+00  0.100000D+01
   p     5 1.00
  0.187100D+02  0.140310D-01
  0.413300D+01  0.868660D-01
  0.120000D+01  0.290216D+00
  0.382700D+00  0.501008D+00
  0.120900D+00  0.343406D+00
   p     1 1.00
  0.382700D+00  0.100000D+01
   p     1 1.00
  0.120900D+00  0.100000D+01
   d     1 1.00
  0.109700D+01  0.100000D+01
   d     1 1.00
  0.318000D+00  0.100000D+01
   f     1 1.00
  0.761000D+00  0.100000D+01
  
  5  0
   s    10 1.00
  0.823600D+04  0.531000D-03
  0.123500D+04  0.410800D-02
  0.280800D+03  0.210870D-01
  0.792700D+02  0.818530D-01
  0.255900D+02  0.234817D+00
  0.899700D+01  0.434401D+00
  0.331900D+01  0.346129D+00
  0.905900D+00  0.393780D-01
  0.364300D+00 -0.898300D-02
  0.128500D+00  0.238500D-02
   s    10 1.00
  0.823600D+04 -0.113000D-03
  0.123500D+04 -0.878000D-03
  0.280800D+03 -0.454000D-02
  0.792700D+02 -0.181330D-01
  0.255900D+02 -0.557600D-01
  0.899700D+01 -0.126895D+00
  0.331900D+01 -0.170352D+00
  0.905900D+00  0.140382D+00
  0.364300D+00  0.598684D+00
  0.128500D+00  0.395389D+00
   s     1 1.00
  0.905900D+00  0.100000D+01
   s     1 1.00
  0.364300D+00  0.100000D+01
   p     5 1.00
  0.187100D+02  0.140310D-01
  0.413300D+01  0.868660D-01
  0.120000D+01  0.290216D+00
  0.382700D+00  0.501008D+00
  0.120900D+00  0.343406D+00
   p     1 1.00
  0.382700D+00  0.100000D+01
   p     1 1.00
  0.120900D+00  0.100000D+01
   d     1 1.00
  0.109700D+01  0.100000D+01
   d     1 1.00
  0.318000D+00  0.100000D+01
   f     1 1.00
  0.761000D+00  0.100000D+01
  
  6  0
   s    10 1.00
  0.823600D+04  0.531000D-03
  0.123500D+04  0.410800D-02
  0.280800D+03  0.210870D-01
  0.792700D+02  0.818530D-01
  0.255900D+02  0.234817D+00
  0.899700D+01  0.434401D+00
  0.331900D+01  0.346129D+00
  0.905900D+00  0.393780D-01
  0.364300D+00 -0.898300D-02
  0.128500D+00  0.238500D-02
   s    10 1.00
  0.823600D+04 -0.113000D-03
  0.123500D+04 -0.878000D-03
  0.280800D+03 -0.454000D-02
  0.792700D+02 -0.181330D-01
  0.255900D+02 -0.557600D-01
  0.899700D+01 -0.126895D+00
  0.331900D+01 -0.170352D+00
  0.905900D+00  0.140382D+00
  0.364300D+00  0.598684D+00
  0.128500D+00  0.395389D+00
   s     1 1.00
  0.905900D+00  0.100000D+01
   s     1 1.00
  0.364300D+00  0.100000D+01
   p     5 1.00
  0.187100D+02  0.140310D-01
  0.413300D+01  0.868660D-01
  0.120000D+01  0.290216D+00
  0.382700D+00  0.501008D+00
  0.120900D+00  0.343406D+00
   p     1 1.00
  0.382700D+00  0.100000D+01
   p     1 1.00
  0.120900D+00  0.100000D+01
   d     1 1.00
  0.109700D+01  0.100000D+01
   d     1 1.00
  0.318000D+00  0.100000D+01
   f     1 1.00
  0.761000D+00  0.100000D+01
  
  7  0
   s    10 1.00
  0.823600D+04  0.531000D-03
  0.123500D+04  0.410800D-02
  0.280800D+03  0.210870D-01
  0.792700D+02  0.818530D-01
  0.255900D+02  0.234817D+00
  0.899700D+01  0.434401D+00
  0.331900D+01  0.346129D+00
  0.905900D+00  0.393780D-01
  0.364300D+00 -0.898300D-02
  0.128500D+00  0.238500D-02
   s    10 1.00
  0.823600D+04 -0.113000D-03
  0.123500D+04 -0.878000D-03
  0.280800D+03 -0.454000D-02
  0.792700D+02 -0.181330D-01
  0.255900D+02 -0.557600D-01
  0.899700D+01 -0.126895D+00
  0.331900D+01 -0.170352D+00
  0.905900D+00  0.140382D+00
  0.364300D+00  0.598684D+00
  0.128500D+00  0.395389D+00
   s     1 1.00
  0.905900D+00  0.100000D+01
   s     1 1.00
  0.364300D+00  0.100000D+01
   p     5 1.00
  0.187100D+02  0.140310D-01
  0.413300D+01  0.868660D-01
  0.120000D+01  0.290216D+00
  0.382700D+00  0.501008D+00
  0.120900D+00  0.343406D+00
   p     1 1.00
  0.382700D+00  0.100000D+01
   p     1 1.00
  0.120900D+00  0.100000D+01
   d     1 1.00
  0.109700D+01  0.100000D+01
   d     1 1.00
  0.318000D+00  0.100000D+01
   f     1 1.00
  0.761000D+00  0.100000D+01
  
  8  0
   s     4 1.00
  0.130100D+02  0.196850D-01
  0.196200D+01  0.137977D+00
  0.444600D+00  0.478148D+00
  0.122000D+00  0.501240D+00
   s     1 1.00
  0.122000D+00  0.100000D+01
   p     1 1.00
  0.727000D+00  0.100000D+01
  
  9  0
   s     4 1.00
  0.130100D+02  0.196850D-01
  0.196200D+01  0.137977D+00
  0.444600D+00  0.478148D+00
  0.122000D+00  0.501240D+00
   s     1 1.00
  0.122000D+00  0.100000D+01
   p     1 1.00
  0.727000D+00  0.100000D+01
  
 10  0
   s     4 1.00
  0.130100D+02  0.196850D-01
  0.196200D+01  0.137977D+00
  0.444600D+00  0.478148D+00
  0.122000D+00  0.501240D+00
   s     1 1.00
  0.122000D+00  0.100000D+01
   p     1 1.00
  0.727000D+00  0.100000D+01
  
 11  0
   s     4 1.00
  0.130100D+02  0.196850D-01
  0.196200D+01  0.137977D+00
  0.444600D+00  0.478148D+00
  0.122000D+00  0.501240D+00
   s     1 1.00
  0.122000D+00  0.100000D+01
   p     1 1.00
  0.727000D+00  0.100000D+01
  
 12  0
   s     4 1.00
  0.130100D+02  0.196850D-01
  0.196200D+01  0.137977D+00
  0.444600D+00  0.478148D+00
  0.122000D+00  0.501240D+00
   s     1 1.00
  0.122000D+00  0.100000D+01
   p     1 1.00
  0.727000D+00  0.100000D+01
  
 13  0
   s     4 1.00
  0.130100D+02  0.196850D-01
  0.196200D+01  0.137977D+00
  0.444600D+00  0.478148D+00
  0.122000D+00  0.501240D+00
   s     1 1.00
  0.122000D+00  0.100000D+01
   p     1 1.00
  0.727000D+00  0.100000D+01
  
 14  0
   s     4 1.00
  0.130100D+02  0.196850D-01
  0.196200D+01  0.137977D+00
  0.444600D+00  0.478148D+00
  0.122000D+00  0.501240D+00
   s     1 1.00
  0.122000D+00  0.100000D+01
   p     1 1.00
  0.727000D+00  0.100000D+01
  
[MO]
 Sym= __1_A'_
 Ene=  0.000000000000000E+000
 Spin= Alpha
 Occup=    2.00000000000000     
                     1  1.163285224525292E-005
                     2  0.998311347133758     
                     3  7.318163685415604E-003
                     4  1.831429402105112E-003
                     5  2.111772346613433E-003
                     6  5.146454307370623E-004
                     7  4.733374726579537E-003
                     8  0.000000000000000E+000
                     9  1.062555237132039E-004
                    10 -9.783966350416301E-005
                    11  0.000000000000000E+000
                    12 -1.234457994906864E-004
                    13 -3.770035130776636E-004
                    14  0.000000000000000E+000
                    15 -1.715915329163775E-004
                    16  0.000000000000000E+000
                    17  0.000000000000000E+000
                    18 -2.059352097583420E-004
                    19 -6.696860029190286E-005
                    20  3.974397658911598E-004
                    21  0.000000000000000E+000
                    22  0.000000000000000E+000
                    23 -3.544548156713554E-004
                    24  7.812712473897276E-005
                    25  0.000000000000000E+000
                    26 -2.183998620273326E-005
                    27 -5.285648685433271E-005
                    28  0.000000000000000E+000
                    29  0.000000000000000E+000
                    30  9.043076232368714E-006
                    31 -1.452182801943784E-004
                    32 -3.394561519115243E-004
                    33  2.503989430076054E-003
                    34  1.334298891797148E-004
                    35 -2.079269065236893E-004
                    36 -5.204422742596721E-005
                    37 -6.501677026613879E-003
                    38  0.000000000000000E+000
                    39 -1.880259575951050E-005
                    40  2.240668258449196E-004
                    41  0.000000000000000E+000
                    42 -1.388271437630462E-004
                    43  4.587016433005743E-003
                    44  0.000000000000000E+000
                    45 -5.346378349249662E-005
                    46  0.000000000000000E+000
                    47  0.000000000000000E+000
                    48 -3.471338711396836E-004
                    49 -1.193427532205318E-005
                    50 -4.031804954016058E-004
                    51  0.000000000000000E+000
                    52  0.000000000000000E+000
                    53  5.436098045693814E-005
                    54  6.012379503065907E-005
                    55  0.000000000000000E+000
                    56  1.584933720656368E-006
                    57 -6.195054448356788E-006
                    58  0.000000000000000E+000
                    59  0.000000000000000E+000
                    60  1.227526377136395E-005
                    61 -1.137903219262063E-004
                    62 -2.114039809374547E-004
                    63 -1.525503107356600E-003
                    64  4.248673181117265E-005
                    65  6.434438220974002E-004
                    66 -7.580638602270375E-004
                    67  8.392384144327369E-004
                    68  0.000000000000000E+000
                    69 -1.357545217590991E-006
                    70  5.988300786831592E-004
                    71  0.000000000000000E+000
                    72 -8.013991955949149E-004
                    73 -4.708417723856009E-005
                    74  0.000000000000000E+000
                    75 -1.364601272352683E-005
                    76  0.000000000000000E+000
                    77  0.000000000000000E+000
                    78 -8.843444629892149E-005
                    79 -6.711070001620150E-006
                    80 -1.233146191942242E-005
                    81  0.000000000000000E+000
                    82  0.000000000000000E+000
                    83  5.962273907275406E-006
                    84  1.567221645698128E-004
                    85  0.000000000000000E+000
                    86  2.064479462400494E-005
                    87 -4.386819522539396E-005
                    88  0.000000000000000E+000
                    89  0.000000000000000E+000
                    90 -3.027677661954046E-005
                    91 -8.715420240739945E-005
                    92 -2.310150409525731E-004
                    93 -1.685544704459731E-003
                    94  6.423037825176698E-005
                    95  5.855762369137730E-004
                    96  8.084832490835120E-004
                    97  9.548043851380664E-004
                    98  0.000000000000000E+000
                    99  3.731096959096890E-005
                   100  5.507171138564881E-004
                   101  0.000000000000000E+000
                   102  5.804355765434148E-004
                   103 -3.565538564553486E-004
                   104  0.000000000000000E+000
                   105 -1.018778022600865E-005
                   106  0.000000000000000E+000
                   107  0.000000000000000E+000
                   108 -9.745615108279018E-005
                   109  3.973836946256550E-006
                   110 -1.781486333678380E-005
                   111  0.000000000000000E+000
                   112  0.000000000000000E+000
                   113  1.149820477768895E-006
                   114 -1.356063192749018E-004
                   115  0.000000000000000E+000
                   116 -1.840691531105852E-005
                   117 -3.793578286689207E-005
                   118  0.000000000000000E+000
                   119  0.000000000000000E+000
                   120  1.342986697110546E-005
                   121 -8.341495988262991E-005
                   122 -1.536132547757729E-004
                   123 -7.773732295032950E-005
                   124  1.084011682795311E-004
                   125  1.571728898314554E-004
                   126  3.109942027717832E-005
                   127 -7.030648462379097E-004
                   128  0.000000000000000E+000
                   129  5.793881524001717E-005
                   130  3.674765128280537E-004
                   131  0.000000000000000E+000
                   132 -7.284433530592049E-005
                   133  8.550228322681171E-004
                   134  0.000000000000000E+000
                   135  9.491935833052527E-006
                   136  0.000000000000000E+000
                   137  0.000000000000000E+000
                   138  1.665367562181531E-005
                   139  1.944984988609948E-007
                   140  1.069684308653982E-004
                   141  0.000000000000000E+000
                   142  0.000000000000000E+000
                   143  1.742745823408213E-004
                   144  1.613016769827651E-004
                   145  0.000000000000000E+000
                   146 -5.378981818810513E-006
                   147 -3.361431985706404E-005
                   148  0.000000000000000E+000
                   149  0.000000000000000E+000
                   150  3.088651608806590E-006
                   151 -2.439384738152233E-005
                   152 -1.548597911921132E-004
                   153 -5.087118996637802E-005
                   154  1.051782515731936E-004
                   155  1.695062276849483E-004
                   156 -3.278471603508719E-005
                   157 -7.353351951233382E-004
                   158  0.000000000000000E+000
                   159 -4.377425053651176E-005
                   160  3.179379396964127E-004
                   161  0.000000000000000E+000
                   162  2.812952359407470E-004
                   163  6.127110987424076E-004
                   164  0.000000000000000E+000
                   165  6.838850558492056E-006
                   166  0.000000000000000E+000
                   167  0.000000000000000E+000
                   168  1.441506833276191E-005
                   169 -1.805130392798163E-006
                   170  1.151968023845913E-004
                   171  0.000000000000000E+000
                   172  0.000000000000000E+000
                   173  1.420049493867492E-004
                   174 -1.471512404983244E-004
                   175  0.000000000000000E+000
                   176  3.525133808216287E-006
                   177 -3.049586845834631E-005
                   178  0.000000000000000E+000
                   179  0.000000000000000E+000
                   180 -1.127651498811322E-007
                   181 -2.520094474314377E-005
                   182 -1.202996756249730E-004
                   183 -3.227035926964821E-004
                   184  3.665759721905191E-005
                   185  1.402492439696184E-004
                   186 -4.181648927766412E-006
                   187 -4.325998073955562E-005
                   188  0.000000000000000E+000
                   189  2.729688497617664E-005
                   190  2.813380430937558E-005
                   191  0.000000000000000E+000
                   192  1.523816265965363E-004
                   193 -2.580032939918382E-006
                   194  0.000000000000000E+000
                   195 -1.550741026594117E-006
                   196  0.000000000000000E+000
                   197  0.000000000000000E+000
                   198 -1.966748039653946E-005
                   199 -7.916636146618476E-007
                   200  1.865018315879941E-005
                   201  0.000000000000000E+000
                   202  0.000000000000000E+000
                   203 -7.850368965739322E-005
                   204 -1.763486896881867E-005
                   205  0.000000000000000E+000
                   206 -1.283720627547654E-006
                   207 -5.420981963386079E-006
                   208  0.000000000000000E+000
                   209  0.000000000000000E+000
                   210 -7.605619969347469E-007
                   211 -7.490483561508648E-006
                   212  1.718501507845724E-003
                   213 -1.161779423084737E-003
                   214  3.961861981057833E-004
                   215  3.009015939187685E-004
                   216  0.000000000000000E+000
                   217  3.450860682919970E-003
                   218 -2.139223679895979E-003
                   219 -4.250825199882849E-004
                   220  3.631639721515682E-004
                   221  0.000000000000000E+000
                   222 -5.433102585517776E-004
                   223 -2.907676102612066E-004
                   224 -1.390901427571241E-005
                   225 -3.969549922506430E-005
                   226  0.000000000000000E+000
                   227 -5.784528863036380E-004
                   228 -1.931924029533995E-004
                   229  1.138444419588674E-005
                   230 -4.105714831353643E-005
                   231  0.000000000000000E+000
                   232 -2.010156839845927E-004
                   233 -4.060164369556370E-004
                   234 -4.612464079952595E-006
                   235  4.544821610234220E-006
                   236  0.000000000000000E+000
                   237 -2.071714729005153E-004
                   238 -4.370834589475540E-004
                   239  3.369086322610293E-006
                   240  1.032088541609839E-006
                   241  0.000000000000000E+000
                   242  5.972246902873877E-005
                   243 -1.044337214535981E-004
                   244  6.741779732093363E-008
                   245  1.474846496729146E-005
                   246  0.000000000000000E+000
 Sym= __2_A'_
 Ene=  0.000000000000000E+000
 Spin= Alpha
 Occup=    2.00000000000000     
                     1 -5.162295759334581E-005
                     2 -2.296592904465453E-004
                     3  2.508306961755312E-003
                     4  1.116336311913960E-004
                     5  1.248107528265984E-003
                     6 -8.816954678079374E-005
                     7  3.049224849914738E-003
                     8  0.000000000000000E+000
                     9 -4.023918451695548E-006
                    10 -6.947213783243137E-005
                    11  0.000000000000000E+000
                    12  3.214202682487313E-005
                    13 -4.922551041226099E-004
                    14  0.000000000000000E+000
                    15  3.464494649439577E-005
                    16  0.000000000000000E+000
                    17  0.000000000000000E+000
                    18 -7.033873447704838E-005
                    19 -2.080599033117341E-006
                    20 -1.388175107899696E-004
                    21  0.000000000000000E+000
                    22  0.000000000000000E+000
                    23  3.302042848594138E-004
                    24 -5.943410579076278E-006
                    25  0.000000000000000E+000
                    26 -3.275861262515476E-006
                    27  1.096660545665327E-004
                    28  0.000000000000000E+000
                    29  0.000000000000000E+000
                    30 -1.831317030010477E-005
                    31  1.466886807282865E-004
                    32   1.00106479080579     
                    33  9.284592322823486E-003
                    34  2.603506044907340E-003
                    35 -7.766842765782538E-003
                    36 -7.261782831122254E-006
                    37 -4.174778433160759E-003
                    38  0.000000000000000E+000
                    39 -4.086447682011993E-005
                    40  1.007832650113567E-003
                    41  0.000000000000000E+000
                    42 -1.422308583272914E-006
                    43  4.402902976725587E-003
                    44  0.000000000000000E+000
                    45 -5.995585912245562E-004
                    46  0.000000000000000E+000
                    47  0.000000000000000E+000
                    48 -2.028318437332684E-004
                    49  7.785892310688708E-006
                    50  5.121065202433904E-004
                    51  0.000000000000000E+000
                    52  0.000000000000000E+000
                    53 -8.675911765437616E-004
                    54 -4.957867219753189E-005
                    55  0.000000000000000E+000
                    56  3.008507890375104E-006
                    57  7.450627764791270E-005
                    58  0.000000000000000E+000
                    59  0.000000000000000E+000
                    60 -8.672624573989950E-006
                    61  4.208593034851416E-004
                    62  7.121421079427249E-003
                    63 -2.048493813165535E-003
                    64 -2.628658122355995E-004
                    65  2.938184945369105E-003
                    66  7.736926219985383E-005
                    67  8.695009587365775E-006
                    68  0.000000000000000E+000
                    69  5.713183642551314E-004
                    70  6.222168962544968E-005
                    71  0.000000000000000E+000
                    72 -2.083589424519118E-003
                    73  1.354893313654357E-004
                    74  0.000000000000000E+000
                    75  3.383516611123808E-005
                    76  0.000000000000000E+000
                    77  0.000000000000000E+000
                    78 -3.702299562254224E-006
                    79  1.190152774104861E-005
                    80 -3.900977523800866E-004
                    81  0.000000000000000E+000
                    82  0.000000000000000E+000
                    83 -6.418316594142788E-004
                    84 -3.796904306372235E-004
                    85  0.000000000000000E+000
                    86  3.615373085502860E-005
                    87 -5.595839226286241E-005
                    88  0.000000000000000E+000
                    89  0.000000000000000E+000
                    90  5.452354460687570E-005
                    91  1.371054100421366E-004
                    92  7.243344972554354E-003
                    93 -2.066594271225508E-003
                    94 -2.765517771286791E-004
                    95  3.018144799866342E-003
                    96 -6.021498929796086E-005
                    97  8.234076442803582E-006
                    98  0.000000000000000E+000
                    99 -6.322215522657595E-004
                   100  4.711566889473014E-005
                   101  0.000000000000000E+000
                   102  2.031595091251505E-003
                   103  1.173920988180019E-004
                   104  0.000000000000000E+000
                   105  3.233791966946232E-005
                   106  0.000000000000000E+000
                   107  0.000000000000000E+000
                   108 -1.564695660306224E-006
                   109 -1.087055194017297E-005
                   110 -3.958385980670184E-004
                   111  0.000000000000000E+000
                   112  0.000000000000000E+000
                   113 -6.134703837396554E-004
                   114  3.810799121931162E-004
                   115  0.000000000000000E+000
                   116 -3.476625680830298E-005
                   117 -5.777896677456846E-005
                   118  0.000000000000000E+000
                   119  0.000000000000000E+000
                   120 -4.671518344274141E-005
                   121  1.361419406578798E-004
                   122 -2.344844246602632E-004
                   123 -7.407421403120796E-004
                   124  2.259857786057226E-004
                   125 -1.146843226123254E-004
                   126 -1.262629153862896E-005
                   127 -2.755733528871481E-004
                   128  0.000000000000000E+000
                   129 -2.829180175168329E-005
                   130  5.411117384865967E-004
                   131  0.000000000000000E+000
                   132  3.382456329340137E-004
                   133  7.628255978976590E-004
                   134  0.000000000000000E+000
                   135  1.920301867574847E-005
                   136  0.000000000000000E+000
                   137  0.000000000000000E+000
                   138  4.550489732283592E-006
                   139  5.018932268504122E-005
                   140  1.320400867128782E-004
                   141  0.000000000000000E+000
                   142  0.000000000000000E+000
                   143  2.572267577658250E-004
                   144 -2.000617900833427E-004
                   145  0.000000000000000E+000
                   146  5.802278751389694E-006
                   147 -3.153722033819475E-005
                   148  0.000000000000000E+000
                   149  0.000000000000000E+000
                   150 -4.173314738130645E-005
                   151  2.660187308252999E-005
                   152 -2.262954224085069E-004
                   153 -7.398463717676120E-004
                   154  2.276935519419130E-004
                   155 -1.082532372898988E-004
                   156  1.059075705384063E-005
                   157 -2.760868856858110E-004
                   158  0.000000000000000E+000
                   159  2.908923442132312E-005
                   160  5.385157071811017E-004