[Molden Format]
[Atoms] AU
  N     1    7    -0.0524017100   -4.4524212400    0.0000000000        
  C     2    6     0.0571032200   -1.9578645300    0.0000000000        
  C     3    6    -2.2257831100   -0.4935507600    0.0000000000        
  C     4    6     2.3071241400   -0.4422126900    0.0000000000        
  C     5    6    -2.2059870800    2.2006065600    0.0000000000        
  C     6    6     2.2332450100    2.2625334200    0.0000000000        
  C     7    6     0.0040547000    3.5988115600    0.0000000000        
  H     8    1    -2.3967884200   -5.6768230200    0.0000000000        
  H     9    1     1.6328397800   -5.4101784700    0.0000000000        
  H    10    1    -3.9947448700   -1.4678928600    0.0000000000        
  H    11    1     4.1148676700   -1.3530833100    0.0000000000        
  H    12    1    -4.0029365500    3.1442407900    0.0000000000        
  H    13    1     4.0085840600    3.2454412900    0.0000000000        
  H    14    1    -0.0230569200    5.6209451700    0.0000000000        
[5D]
[7F]
[GTO]
  1  0
   s    12 1.00
  0.114200D+05  0.172695D-04
  0.171200D+04  0.134411D-03
  0.389300D+03  0.694561D-03
  0.110000D+03  0.278531D-02
  0.355700D+02  0.863457D-02
  0.125400D+02  0.199805D-01
  0.464400D+01  0.262908D-01
  0.129300D+01 -0.243845D-01
  0.511800D+00 -0.924934D-01
  0.178700D+00 -0.339683D+00
  0.246240D-01  0.345111D+00
  0.112530D-01  0.752750D+00
   s    10 1.00
  0.114200D+05  0.523000D-03
  0.171200D+04  0.404500D-02
  0.389300D+03  0.207750D-01
  0.110000D+03  0.807269D-01
  0.355700D+02  0.233074D+00
  0.125400D+02  0.433501D+00
  0.464400D+01  0.347472D+00
  0.129300D+01  0.412620D-01
  0.511800D+00 -0.850799D-02
  0.178700D+00  0.238400D-02
   s    10 1.00
  0.114200D+05 -0.115000D-03
  0.171200D+04 -0.895000D-03
  0.389300D+03 -0.462400D-02
  0.110000D+03 -0.185280D-01
  0.355700D+02 -0.573390D-01
  0.125400D+02 -0.132076D+00
  0.464400D+01 -0.172510D+00
  0.129300D+01  0.151814D+00
  0.511800D+00  0.599944D+00
  0.178700D+00  0.387462D+00
   s     1 1.00
  0.129300D+01  0.100000D+01
   s     1 1.00
  0.178700D+00  0.100000D+01
   p     5 1.00
  0.266300D+02  0.146700D-01
  0.594800D+01  0.917640D-01
  0.174200D+01  0.298683D+00
  0.555000D+00  0.498487D+00
  0.172500D+00  0.337023D+00
   p     1 1.00
  0.174200D+01  0.100000D+01
   p     1 1.00
  0.555000D+00  0.100000D+01
   d     1 1.00
  0.165400D+01  0.100000D+01
   d     1 1.00
  0.469000D+00  0.100000D+01
   f     1 1.00
  0.109300D+01  0.100000D+01
  
  2  0
   s    10 1.00
  0.823600D+04  0.531000D-03
  0.123500D+04  0.410800D-02
  0.280800D+03  0.210870D-01
  0.792700D+02  0.818530D-01
  0.255900D+02  0.234817D+00
  0.899700D+01  0.434401D+00
  0.331900D+01  0.346129D+00
  0.905900D+00  0.393780D-01
  0.364300D+00 -0.898300D-02
  0.128500D+00  0.238500D-02
   s    10 1.00
  0.823600D+04 -0.113000D-03
  0.123500D+04 -0.878000D-03
  0.280800D+03 -0.454000D-02
  0.792700D+02 -0.181330D-01
  0.255900D+02 -0.557600D-01
  0.899700D+01 -0.126895D+00
  0.331900D+01 -0.170352D+00
  0.905900D+00  0.140382D+00
  0.364300D+00  0.598684D+00
  0.128500D+00  0.395389D+00
   s     1 1.00
  0.905900D+00  0.100000D+01
   s     1 1.00
  0.364300D+00  0.100000D+01
   p     5 1.00
  0.187100D+02  0.140310D-01
  0.413300D+01  0.868660D-01
  0.120000D+01  0.290216D+00
  0.382700D+00  0.501008D+00
  0.120900D+00  0.343406D+00
   p     1 1.00
  0.382700D+00  0.100000D+01
   p     1 1.00
  0.120900D+00  0.100000D+01
   d     1 1.00
  0.109700D+01  0.100000D+01
   d     1 1.00
  0.318000D+00  0.100000D+01
   f     1 1.00
  0.761000D+00  0.100000D+01
  
  3  0
   s    10 1.00
  0.823600D+04  0.531000D-03
  0.123500D+04  0.410800D-02
  0.280800D+03  0.210870D-01
  0.792700D+02  0.818530D-01
  0.255900D+02  0.234817D+00
  0.899700D+01  0.434401D+00
  0.331900D+01  0.346129D+00
  0.905900D+00  0.393780D-01
  0.364300D+00 -0.898300D-02
  0.128500D+00  0.238500D-02
   s    10 1.00
  0.823600D+04 -0.113000D-03
  0.123500D+04 -0.878000D-03
  0.280800D+03 -0.454000D-02
  0.792700D+02 -0.181330D-01
  0.255900D+02 -0.557600D-01
  0.899700D+01 -0.126895D+00
  0.331900D+01 -0.170352D+00
  0.905900D+00  0.140382D+00
  0.364300D+00  0.598684D+00
  0.128500D+00  0.395389D+00
   s     1 1.00
  0.905900D+00  0.100000D+01
   s     1 1.00
  0.364300D+00  0.100000D+01
   p     5 1.00
  0.187100D+02  0.140310D-01
  0.413300D+01  0.868660D-01
  0.120000D+01  0.290216D+00
  0.382700D+00  0.501008D+00
  0.120900D+00  0.343406D+00
   p     1 1.00
  0.382700D+00  0.100000D+01
   p     1 1.00
  0.120900D+00  0.100000D+01
   d     1 1.00
  0.109700D+01  0.100000D+01
   d     1 1.00
  0.318000D+00  0.100000D+01
   f     1 1.00
  0.761000D+00  0.100000D+01
  
  4  0
   s    10 1.00
  0.823600D+04  0.531000D-03
  0.123500D+04  0.410800D-02
  0.280800D+03  0.210870D-01
  0.792700D+02  0.818530D-01
  0.255900D+02  0.234817D+00
  0.899700D+01  0.434401D+00
  0.331900D+01  0.346129D+00
  0.905900D+00  0.393780D-01
  0.364300D+00 -0.898300D-02
  0.128500D+00  0.238500D-02
   s    10 1.00
  0.823600D+04 -0.113000D-03
  0.123500D+04 -0.878000D-03
  0.280800D+03 -0.454000D-02
  0.792700D+02 -0.181330D-01
  0.255900D+02 -0.557600D-01
  0.899700D+01 -0.126895D+00
  0.331900D+01 -0.170352D+00
  0.905900D+00  0.140382D+00
  0.364300D+00  0.598684D+00
  0.128500D+00  0.395389D+00
   s     1 1.00
  0.905900D+00  0.100000D+01
   s     1 1.00
  0.364300D+00  0.100000D+01
   p     5 1.00
  0.187100D+02  0.140310D-01
  0.413300D+01  0.868660D-01
  0.120000D+01  0.290216D+00
  0.382700D+00  0.501008D+00
  0.120900D+00  0.343406D+00
   p     1 1.00
  0.382700D+00  0.100000D+01
   p     1 1.00
  0.120900D+00  0.100000D+01
   d     1 1.00
  0.109700D+01  0.100000D+01
   d     1 1.00
  0.318000D+00  0.100000D+01
   f     1 1.00
  0.761000D+00  0.100000D+01
  
  5  0
   s    10 1.00
  0.823600D+04  0.531000D-03
  0.123500D+04  0.410800D-02
  0.280800D+03  0.210870D-01
  0.792700D+02  0.818530D-01
  0.255900D+02  0.234817D+00
  0.899700D+01  0.434401D+00
  0.331900D+01  0.346129D+00
  0.905900D+00  0.393780D-01
  0.364300D+00 -0.898300D-02
  0.128500D+00  0.238500D-02
   s    10 1.00
  0.823600D+04 -0.113000D-03
  0.123500D+04 -0.878000D-03
  0.280800D+03 -0.454000D-02
  0.792700D+02 -0.181330D-01
  0.255900D+02 -0.557600D-01
  0.899700D+01 -0.126895D+00
  0.331900D+01 -0.170352D+00
  0.905900D+00  0.140382D+00
  0.364300D+00  0.598684D+00
  0.128500D+00  0.395389D+00
   s     1 1.00
  0.905900D+00  0.100000D+01
   s     1 1.00
  0.364300D+00  0.100000D+01
   p     5 1.00
  0.187100D+02  0.140310D-01
  0.413300D+01  0.868660D-01
  0.120000D+01  0.290216D+00
  0.382700D+00  0.501008D+00
  0.120900D+00  0.343406D+00
   p     1 1.00
  0.382700D+00  0.100000D+01
   p     1 1.00
  0.120900D+00  0.100000D+01
   d     1 1.00
  0.109700D+01  0.100000D+01
   d     1 1.00
  0.318000D+00  0.100000D+01
   f     1 1.00
  0.761000D+00  0.100000D+01
  
  6  0
   s    10 1.00
  0.823600D+04  0.531000D-03
  0.123500D+04  0.410800D-02
  0.280800D+03  0.210870D-01
  0.792700D+02  0.818530D-01
  0.255900D+02  0.234817D+00
  0.899700D+01  0.434401D+00
  0.331900D+01  0.346129D+00
  0.905900D+00  0.393780D-01
  0.364300D+00 -0.898300D-02
  0.128500D+00  0.238500D-02
   s    10 1.00
  0.823600D+04 -0.113000D-03
  0.123500D+04 -0.878000D-03
  0.280800D+03 -0.454000D-02
  0.792700D+02 -0.181330D-01
  0.255900D+02 -0.557600D-01
  0.899700D+01 -0.126895D+00
  0.331900D+01 -0.170352D+00
  0.905900D+00  0.140382D+00
  0.364300D+00  0.598684D+00
  0.128500D+00  0.395389D+00
   s     1 1.00
  0.905900D+00  0.100000D+01
   s     1 1.00
  0.364300D+00  0.100000D+01
   p     5 1.00
  0.187100D+02  0.140310D-01
  0.413300D+01  0.868660D-01
  0.120000D+01  0.290216D+00
  0.382700D+00  0.501008D+00
  0.120900D+00  0.343406D+00
   p     1 1.00
  0.382700D+00  0.100000D+01
   p     1 1.00
  0.120900D+00  0.100000D+01
   d     1 1.00
  0.109700D+01  0.100000D+01
   d     1 1.00
  0.318000D+00  0.100000D+01
   f     1 1.00
  0.761000D+00  0.100000D+01
  
  7  0
   s    10 1.00
  0.823600D+04  0.531000D-03
  0.123500D+04  0.410800D-02
  0.280800D+03  0.210870D-01
  0.792700D+02  0.818530D-01
  0.255900D+02  0.234817D+00
  0.899700D+01  0.434401D+00
  0.331900D+01  0.346129D+00
  0.905900D+00  0.393780D-01
  0.364300D+00 -0.898300D-02
  0.128500D+00  0.238500D-02
   s    10 1.00
  0.823600D+04 -0.113000D-03
  0.123500D+04 -0.878000D-03
  0.280800D+03 -0.454000D-02
  0.792700D+02 -0.181330D-01
  0.255900D+02 -0.557600D-01
  0.899700D+01 -0.126895D+00
  0.331900D+01 -0.170352D+00
  0.905900D+00  0.140382D+00
  0.364300D+00  0.598684D+00
  0.128500D+00  0.395389D+00
   s     1 1.00
  0.905900D+00  0.100000D+01
   s     1 1.00
  0.364300D+00  0.100000D+01
   p     5 1.00
  0.187100D+02  0.140310D-01
  0.413300D+01  0.868660D-01
  0.120000D+01  0.290216D+00
  0.382700D+00  0.501008D+00
  0.120900D+00  0.343406D+00
   p     1 1.00
  0.382700D+00  0.100000D+01
   p     1 1.00
  0.120900D+00  0.100000D+01
   d     1 1.00
  0.109700D+01  0.100000D+01
   d     1 1.00
  0.318000D+00  0.100000D+01
   f     1 1.00
  0.761000D+00  0.100000D+01
  
  8  0
   s     4 1.00
  0.130100D+02  0.196850D-01
  0.196200D+01  0.137977D+00
  0.444600D+00  0.478148D+00
  0.122000D+00  0.501240D+00
   s     1 1.00
  0.122000D+00  0.100000D+01
   p     1 1.00
  0.727000D+00  0.100000D+01
  
  9  0
   s     4 1.00
  0.130100D+02  0.196850D-01
  0.196200D+01  0.137977D+00
  0.444600D+00  0.478148D+00
  0.122000D+00  0.501240D+00
   s     1 1.00
  0.122000D+00  0.100000D+01
   p     1 1.00
  0.727000D+00  0.100000D+01
  
 10  0
   s     4 1.00
  0.130100D+02  0.196850D-01
  0.196200D+01  0.137977D+00
  0.444600D+00  0.478148D+00
  0.122000D+00  0.501240D+00
   s     1 1.00
  0.122000D+00  0.100000D+01
   p     1 1.00
  0.727000D+00  0.100000D+01
  
 11  0
   s     4 1.00
  0.130100D+02  0.196850D-01
  0.196200D+01  0.137977D+00
  0.444600D+00  0.478148D+00
  0.122000D+00  0.501240D+00
   s     1 1.00
  0.122000D+00  0.100000D+01
   p     1 1.00
  0.727000D+00  0.100000D+01
  
 12  0
   s     4 1.00
  0.130100D+02  0.196850D-01
  0.196200D+01  0.137977D+00
  0.444600D+00  0.478148D+00
  0.122000D+00  0.501240D+00
   s     1 1.00
  0.122000D+00  0.100000D+01
   p     1 1.00
  0.727000D+00  0.100000D+01
  
 13  0
   s     4 1.00
  0.130100D+02  0.196850D-01
  0.196200D+01  0.137977D+00
  0.444600D+00  0.478148D+00
  0.122000D+00  0.501240D+00
   s     1 1.00
  0.122000D+00  0.100000D+01
   p     1 1.00
  0.727000D+00  0.100000D+01
  
 14  0
   s     4 1.00
  0.130100D+02  0.196850D-01
  0.196200D+01  0.137977D+00
  0.444600D+00  0.478148D+00
  0.122000D+00  0.501240D+00
   s     1 1.00
  0.122000D+00  0.100000D+01
   p     1 1.00
  0.727000D+00  0.100000D+01
  
[MO]
 Sym= __1_A'_
 Ene=  0.000000000000000E+000
 Spin= Alpha
 Occup=    2.00000000000000     
                     1  3.774045318991755E-005
                     2  0.998395416339054     
                     3  2.726590963243591E-003
                     4  1.755137600337352E-003
                     5  4.225546029630067E-003
                     6  3.154626774231239E-003
                     7  6.308871544866486E-003
                     8  0.000000000000000E+000
                     9 -5.106574904728683E-004
                    10 -5.268619795645996E-004
                    11  0.000000000000000E+000
                    12 -1.845152430471589E-003
                    13 -1.305427017839414E-003
                    14  0.000000000000000E+000
                    15 -1.430507637735612E-004
                    16  0.000000000000000E+000
                    17  0.000000000000000E+000
                    18 -1.912429705387737E-004
                    19 -5.328900326927009E-005
                    20  2.181813996711908E-004
                    21  0.000000000000000E+000
                    22  0.000000000000000E+000
                    23 -3.997245343451806E-004
                    24  3.622815087270760E-004
                    25  0.000000000000000E+000
                    26 -2.131961177348963E-005
                    27 -7.560300684857856E-005
                    28  0.000000000000000E+000
                    29  0.000000000000000E+000
                    30  2.533276182907081E-005
                    31 -1.407115229365949E-004
                    32 -3.501733584465968E-004
                    33  1.809834815754669E-003
                    34  3.201594563941779E-004
                    35 -5.409822991137398E-004
                    36 -2.632599021976547E-004
                    37 -5.175785248935103E-003
                    38  0.000000000000000E+000
                    39  3.314152010024890E-004
                    40  4.836900493648750E-004
                    41  0.000000000000000E+000
                    42 -1.484982369198572E-003
                    43  5.212425432281852E-003
                    44  0.000000000000000E+000
                    45 -8.803336188425834E-006
                    46  0.000000000000000E+000
                    47  0.000000000000000E+000
                    48 -2.184072771930512E-004
                    49 -1.759598581616788E-005
                    50 -2.639239659472312E-004
                    51  0.000000000000000E+000
                    52  0.000000000000000E+000
                    53 -2.963311514153240E-005
                    54  5.482926502870394E-004
                    55  0.000000000000000E+000
                    56 -1.103296011054862E-005
                    57 -5.358148583077023E-005
                    58  0.000000000000000E+000
                    59  0.000000000000000E+000
                    60  5.509439575468777E-005
                    61 -1.425792890186283E-004
                    62 -4.188795191369613E-004
                    63 -1.982619910479543E-003
                    64 -5.123357548378882E-005
                    65  1.599830375499866E-003
                    66 -6.145939890224648E-004
                    67  4.745374441618458E-004
                    68  0.000000000000000E+000
                    69  2.855149289848146E-004
                    70  5.872577655245333E-004
                    71  0.000000000000000E+000
                    72 -1.666113589496826E-003
                    73  7.707399879800622E-004
                    74  0.000000000000000E+000
                    75 -2.882454917230096E-005
                    76  0.000000000000000E+000
                    77  0.000000000000000E+000
                    78 -5.793877437511600E-005
                    79 -2.076068582519375E-005
                    80 -1.041279872251866E-004
                    81  0.000000000000000E+000
                    82  0.000000000000000E+000
                    83 -1.602613781681888E-006
                    84 -1.433858167540815E-007
                    85  0.000000000000000E+000
                    86  1.680737451210659E-005
                    87 -4.308442862490418E-005
                    88  0.000000000000000E+000
                    89  0.000000000000000E+000
                    90 -1.209746326404382E-005
                    91 -1.386772460806505E-004
                    92 -2.214983950360404E-004
                    93 -1.444635496286623E-003
                    94  1.579018492460613E-004
                    95  1.028466730323200E-004
                    96  6.124797233963726E-004
                    97  7.312190368582034E-004
                    98  0.000000000000000E+000
                    99  2.671894132215298E-004
                   100  3.471646433177060E-004
                   101  0.000000000000000E+000
                   102  6.627451219167302E-004
                   103 -1.219258752854755E-003
                   104  0.000000000000000E+000
                   105 -6.407148791841135E-008
                   106  0.000000000000000E+000
                   107  0.000000000000000E+000
                   108 -7.646358932715925E-005
                   109 -1.738152885847240E-005
                   110  4.846768976998906E-005
                   111  0.000000000000000E+000
                   112  0.000000000000000E+000
                   113 -1.294867143430578E-004
                   114 -1.355544414439826E-005
                   115  0.000000000000000E+000
                   116 -2.698326650212971E-005
                   117 -2.504430057877820E-005
                   118  0.000000000000000E+000
                   119  0.000000000000000E+000
                   120 -3.233524359596701E-005
                   121 -4.284354932223945E-005
                   122 -2.364630907921603E-004
                   123 -4.805777506701978E-004
                   124  1.309529343986067E-004
                   125  4.088941020586230E-004
                   126 -1.824983775970247E-005
                   127 -5.523183822379158E-004
                   128  0.000000000000000E+000
                   129  1.765093259633011E-004
                   130  4.608461265135882E-004
                   131  0.000000000000000E+000
                   132  4.705508519341003E-004
                   133  1.667843092132438E-003
                   134  0.000000000000000E+000
                   135  7.012937515977479E-006
                   136  0.000000000000000E+000
                   137  0.000000000000000E+000
                   138  2.165011169774536E-005
                   139  2.738574577473981E-006
                   140  1.420313236514057E-004
                   141  0.000000000000000E+000
                   142  0.000000000000000E+000
                   143  2.885849697001274E-004
                   144  1.470938794654701E-004
                   145  0.000000000000000E+000
                   146 -7.631693877819369E-006
                   147 -5.041582721198435E-005
                   148  0.000000000000000E+000
                   149  0.000000000000000E+000
                   150 -6.035686784389905E-006
                   151 -3.689060693486469E-005
                   152 -1.730890921298955E-004
                   153 -2.492099922141239E-004
                   154  6.479684265885901E-005
                   155  2.740778909781148E-004
                   156 -9.277210899682178E-006
                   157 -5.275747374409919E-004
                   158  0.000000000000000E+000
                   159  1.886572345037535E-005
                   160  6.619845602407173E-005
                   161  0.000000000000000E+000
                   162  5.207050295371016E-004
                   163 -1.393386552328059E-004
                   164  0.000000000000000E+000
                   165  7.102809098892292E-007
                   166  0.000000000000000E+000
                   167  0.000000000000000E+000
                   168 -4.153309139602826E-006
                   169 -7.301378535099217E-007
                   170  8.502359464993197E-005
                   171  0.000000000000000E+000
                   172  0.000000000000000E+000
                   173  4.639654015417086E-005
                   174 -7.397731493568679E-006
                   175  0.000000000000000E+000
                   176 -1.048825253112813E-007
                   177 -1.394628463977817E-005
                   178  0.000000000000000E+000
                   179  0.000000000000000E+000
                   180 -6.362073578506540E-006
                   181 -2.076186208671471E-005
                   182 -1.685919864113454E-004
                   183 -5.409735089410293E-004
                   184  3.588010481213205E-005
                   185  2.697373499937809E-004
                   186 -3.852263830770614E-005
                   187 -5.458325210446580E-006
                   188  0.000000000000000E+000
                   189  1.899071282130256E-004
                   190  8.364528660218471E-005
                   191  0.000000000000000E+000
                   192  1.001454953971220E-003
                   193 -2.075609088865347E-004
                   194  0.000000000000000E+000
                   195  3.254919519668506E-006
                   196  0.000000000000000E+000
                   197  0.000000000000000E+000
                   198 -1.108753351962098E-005
                   199  5.593679916841152E-008
                   200 -2.457604705395240E-005
                   201  0.000000000000000E+000
                   202  0.000000000000000E+000
                   203 -7.960991185835287E-005
                   204 -1.533185956286464E-004
                   205  0.000000000000000E+000
                   206 -8.498352456882016E-006
                   207 -4.458959043988952E-006
                   208  0.000000000000000E+000
                   209  0.000000000000000E+000
                   210  5.414373608748294E-006
                   211 -8.366027660471035E-006
                   212  1.082952438920960E-004
                   213 -1.290210373577021E-004
                   214  2.242747350994964E-004
                   215  1.832224125405417E-004
                   216  0.000000000000000E+000
                   217  1.762018282150685E-003
                   218 -1.537884639232135E-003
                   219 -3.830400320330375E-004
                   220  2.590545676267532E-004
                   221  0.000000000000000E+000
                   222 -3.870826435325475E-004
                   223 -6.544521959622804E-004
                   224 -1.185855344977743E-005
                   225 -6.190170608658233E-005
                   226  0.000000000000000E+000
                   227 -3.216872561052089E-004
                   228 -4.569919010356138E-004
                   229 -6.681268275623685E-006
                   230 -3.194088114073572E-005
                   231  0.000000000000000E+000
                   232 -1.111529813890442E-004
                   233 -3.474734983838433E-004
                   234 -3.750832399854730E-006
                   235 -2.186090298557092E-006
                   236  0.000000000000000E+000
                   237 -1.606669664446491E-004
                   238 -3.401761598332742E-004
                   239  5.178818226811381E-006
                   240 -3.362509211069967E-006
                   241  0.000000000000000E+000
                   242  2.067947520668449E-005
                   243  3.560207206190825E-005
                   244  1.527419350983223E-006
                   245  2.810371405197957E-005
                   246  0.000000000000000E+000
 Sym= __2_A'_
 Ene=  0.000000000000000E+000
 Spin= Alpha
 Occup=    2.00000000000000     
                     1 -5.441197111259796E-005
                     2 -2.577868622490679E-004
                     3  2.800065015257164E-003
                     4  1.244872676523724E-004
                     5  1.327923949866640E-003
                     6 -2.390616076195018E-004
                     7  3.246423564178968E-003
                     8  0.000000000000000E+000
                     9  6.760047808284530E-007
                    10 -1.014341028687017E-004
                    11  0.000000000000000E+000
                    12  1.281156838972012E-005
                    13 -4.647782370247339E-004
                    14  0.000000000000000E+000
                    15  4.032833741246139E-005
                    16  0.000000000000000E+000
                    17  0.000000000000000E+000
                    18 -5.644430692303664E-005
                    19  1.521255507272185E-005
                    20 -1.159987740325116E-004
                    21  0.000000000000000E+000
                    22  0.000000000000000E+000
                    23  2.498468037390284E-004
                    24 -1.090407301182419E-004
                    25  0.000000000000000E+000
                    26 -9.614862982687186E-006
                    27  1.140426186273196E-004
                    28  0.000000000000000E+000
                    29  0.000000000000000E+000
                    30 -5.277271369898811E-005
                    31  1.404391140195924E-004
                    32   1.00090131640808     
                    33  9.308967063506507E-003
                    34  2.692089231528612E-003
                    35 -7.639936064987596E-003
                    36 -5.466444288150152E-005
                    37 -3.757062322138569E-003
                    38  0.000000000000000E+000
                    39 -1.953727820818358E-004
                    40  3.746478194877093E-004
                    41  0.000000000000000E+000
                    42 -1.124859021735092E-004
                    43  4.230885768605985E-003
                    44  0.000000000000000E+000
                    45 -5.908278350412366E-004
                    46  0.000000000000000E+000
                    47  0.000000000000000E+000
                    48 -2.995739290291944E-004
                    49  4.690674858122914E-005
                    50  4.767338822417165E-004
                    51  0.000000000000000E+000
                    52  0.000000000000000E+000
                    53 -2.527436408741406E-004
                    54 -3.650136339688330E-004
                    55  0.000000000000000E+000
                    56  1.352916168303410E-005
                    57  1.055531019795156E-004
                    58  0.000000000000000E+000
                    59  0.000000000000000E+000
                    60 -3.527021402792503E-005
                    61  4.485052228370556E-004
                    62  9.832415376588766E-003
                    63 -2.182658126612477E-003
                    64 -1.530645069662759E-004
                    65  2.463807789543423E-003
                    66 -9.649645762018100E-006
                    67 -5.954462356645750E-006
                    68  0.000000000000000E+000
                    69  5.430047543972873E-004
                    70  2.408847895950053E-004
                    71  0.000000000000000E+000
                    72 -1.973677642725722E-003
                    73  5.436900161046715E-004
                    74  0.000000000000000E+000
                    75  4.890320299308746E-005
                    76  0.000000000000000E+000
                    77  0.000000000000000E+000
                    78 -8.012426493098286E-006
                    79  2.537496515812887E-006
                    80 -3.880808407005437E-004
                    81  0.000000000000000E+000
                    82  0.000000000000000E+000
                    83 -4.715111095114586E-004
                    84 -2.845371903500217E-005
                    85  0.000000000000000E+000
                    86  2.385433512607355E-005
                    87 -6.105426361201902E-005
                    88  0.000000000000000E+000
                    89  0.000000000000000E+000
                    90 -1.227626544789816E-006
                    91  1.579822257797576E-004
                    92  1.134243766777792E-002
                    93 -2.231276682839331E-003
                    94 -2.244233685458299E-004
                    95  2.941853136408997E-003
                    96  8.998814244567867E-005
                    97  3.770101576488956E-006
                    98  0.000000000000000E+000
                    99 -9.295216245556572E-004
                   100  6.791807941053966E-005
                   101  0.000000000000000E+000
                   102  1.647770458325595E-003
                   103  2.616136551388112E-004
                   104  0.000000000000000E+000
                   105  3.658924215490083E-005
                   106  0.000000000000000E+000
                   107  0.000000000000000E+000
                   108 -3.339153032872670E-006
                   109  1.163273202783619E-005
                   110 -3.988867737147848E-004
                   111  0.000000000000000E+000
                   112  0.000000000000000E+000
                   113 -2.326847044181258E-004
                   114  9.111955801212287E-005
                   115  0.000000000000000E+000
                   116 -2.273785659002676E-005
                   117 -6.981463895552462E-005
                   118  0.000000000000000E+000
                   119  0.000000000000000E+000
                   120  3.749683679346437E-005
                   121  1.372558164603819E-004
                   122 -2.454054093051802E-004
                   123 -7.703911366297877E-004
                   124  2.281181169245171E-004
                   125  7.436389693524968E-005
                   126  3.124188311259624E-005
                   127 -3.649449533835220E-004
                   128  0.000000000000000E+000
                   129 -1.508059394309410E-004
                   130  5.273567962482026E-004
                   131  0.000000000000000E+000
                   132  3.048868215653799E-004
                   133  9.772252145400647E-004
                   134  0.000000000000000E+000
                   135  1.247548469310903E-005
                   136  0.000000000000000E+000
                   137  0.000000000000000E+000
                   138  3.519441566517756E-006
                   139  1.960631358356640E-005
                   140  1.337489340577301E-004
                   141  0.000000000000000E+000
                   142  0.000000000000000E+000
                   143  2.179106081230936E-004
                   144  1.617450400680771E-005
                   145  0.000000000000000E+000
                   146  1.417087014091243E-005
                   147 -4.434882540207745E-005
                   148  0.000000000000000E+000
                   149  0.000000000000000E+000
                   150 -4.461807441019864E-005
                   151  3.396982005247880E-005
                   152 -1.792174002268888E-004
                   153 -7.488549289313345E-004
                   154  2.251394702954256E-004
                   155  1.450746407811455E-004
                   156 -4.231019971654290E-005
                   157 -3.654062695028829E-004
                   158  0.000000000000000E+000
                   159  1.808579553715019E-004
                   160  4.415602381003481E-004