[Molden Format]
[Atoms] AU
  N     1    7    -0.0524017100   -4.4524212400    0.0000000000        
  C     2    6     0.0571032200   -1.9578645300    0.0000000000        
  C     3    6    -2.2257831100   -0.4935507600    0.0000000000        
  C     4    6     2.3071241400   -0.4422126900    0.0000000000        
  C     5    6    -2.2059870800    2.2006065600    0.0000000000        
  C     6    6     2.2332450100    2.2625334200    0.0000000000        
  C     7    6     0.0040547000    3.5988115600    0.0000000000        
  H     8    1    -2.3967884200   -5.6768230200    0.0000000000        
  H     9    1     1.6328397800   -5.4101784700    0.0000000000        
  H    10    1    -3.9947448700   -1.4678928600    0.0000000000        
  H    11    1     4.1148676700   -1.3530833100    0.0000000000        
  H    12    1    -4.0029365500    3.1442407900    0.0000000000        
  H    13    1     4.0085840600    3.2454412900    0.0000000000        
  H    14    1    -0.0230569200    5.6209451700    0.0000000000        
[5D]
[7F]
[GTO]
  1  0
   s    12 1.00
  0.114200D+05  0.172695D-04
  0.171200D+04  0.134411D-03
  0.389300D+03  0.694561D-03
  0.110000D+03  0.278531D-02
  0.355700D+02  0.863457D-02
  0.125400D+02  0.199805D-01
  0.464400D+01  0.262908D-01
  0.129300D+01 -0.243845D-01
  0.511800D+00 -0.924934D-01
  0.178700D+00 -0.339683D+00
  0.246240D-01  0.345111D+00
  0.112530D-01  0.752750D+00
   s    10 1.00
  0.114200D+05  0.523000D-03
  0.171200D+04  0.404500D-02
  0.389300D+03  0.207750D-01
  0.110000D+03  0.807269D-01
  0.355700D+02  0.233074D+00
  0.125400D+02  0.433501D+00
  0.464400D+01  0.347472D+00
  0.129300D+01  0.412620D-01
  0.511800D+00 -0.850799D-02
  0.178700D+00  0.238400D-02
   s    10 1.00
  0.114200D+05 -0.115000D-03
  0.171200D+04 -0.895000D-03
  0.389300D+03 -0.462400D-02
  0.110000D+03 -0.185280D-01
  0.355700D+02 -0.573390D-01
  0.125400D+02 -0.132076D+00
  0.464400D+01 -0.172510D+00
  0.129300D+01  0.151814D+00
  0.511800D+00  0.599944D+00
  0.178700D+00  0.387462D+00
   s     1 1.00
  0.129300D+01  0.100000D+01
   s     1 1.00
  0.178700D+00  0.100000D+01
   p     5 1.00
  0.266300D+02  0.146700D-01
  0.594800D+01  0.917640D-01
  0.174200D+01  0.298683D+00
  0.555000D+00  0.498487D+00
  0.172500D+00  0.337023D+00
   p     1 1.00
  0.174200D+01  0.100000D+01
   p     1 1.00
  0.555000D+00  0.100000D+01
   d     1 1.00
  0.165400D+01  0.100000D+01
   d     1 1.00
  0.469000D+00  0.100000D+01
   f     1 1.00
  0.109300D+01  0.100000D+01
  
  2  0
   s    10 1.00
  0.823600D+04  0.531000D-03
  0.123500D+04  0.410800D-02
  0.280800D+03  0.210870D-01
  0.792700D+02  0.818530D-01
  0.255900D+02  0.234817D+00
  0.899700D+01  0.434401D+00
  0.331900D+01  0.346129D+00
  0.905900D+00  0.393780D-01
  0.364300D+00 -0.898300D-02
  0.128500D+00  0.238500D-02
   s    10 1.00
  0.823600D+04 -0.113000D-03
  0.123500D+04 -0.878000D-03
  0.280800D+03 -0.454000D-02
  0.792700D+02 -0.181330D-01
  0.255900D+02 -0.557600D-01
  0.899700D+01 -0.126895D+00
  0.331900D+01 -0.170352D+00
  0.905900D+00  0.140382D+00
  0.364300D+00  0.598684D+00
  0.128500D+00  0.395389D+00
   s     1 1.00
  0.905900D+00  0.100000D+01
   s     1 1.00
  0.364300D+00  0.100000D+01
   p     5 1.00
  0.187100D+02  0.140310D-01
  0.413300D+01  0.868660D-01
  0.120000D+01  0.290216D+00
  0.382700D+00  0.501008D+00
  0.120900D+00  0.343406D+00
   p     1 1.00
  0.382700D+00  0.100000D+01
   p     1 1.00
  0.120900D+00  0.100000D+01
   d     1 1.00
  0.109700D+01  0.100000D+01
   d     1 1.00
  0.318000D+00  0.100000D+01
   f     1 1.00
  0.761000D+00  0.100000D+01
  
  3  0
   s    10 1.00
  0.823600D+04  0.531000D-03
  0.123500D+04  0.410800D-02
  0.280800D+03  0.210870D-01
  0.792700D+02  0.818530D-01
  0.255900D+02  0.234817D+00
  0.899700D+01  0.434401D+00
  0.331900D+01  0.346129D+00
  0.905900D+00  0.393780D-01
  0.364300D+00 -0.898300D-02
  0.128500D+00  0.238500D-02
   s    10 1.00
  0.823600D+04 -0.113000D-03
  0.123500D+04 -0.878000D-03
  0.280800D+03 -0.454000D-02
  0.792700D+02 -0.181330D-01
  0.255900D+02 -0.557600D-01
  0.899700D+01 -0.126895D+00
  0.331900D+01 -0.170352D+00
  0.905900D+00  0.140382D+00
  0.364300D+00  0.598684D+00
  0.128500D+00  0.395389D+00
   s     1 1.00
  0.905900D+00  0.100000D+01
   s     1 1.00
  0.364300D+00  0.100000D+01
   p     5 1.00
  0.187100D+02  0.140310D-01
  0.413300D+01  0.868660D-01
  0.120000D+01  0.290216D+00
  0.382700D+00  0.501008D+00
  0.120900D+00  0.343406D+00
   p     1 1.00
  0.382700D+00  0.100000D+01
   p     1 1.00
  0.120900D+00  0.100000D+01
   d     1 1.00
  0.109700D+01  0.100000D+01
   d     1 1.00
  0.318000D+00  0.100000D+01
   f     1 1.00
  0.761000D+00  0.100000D+01
  
  4  0
   s    10 1.00
  0.823600D+04  0.531000D-03
  0.123500D+04  0.410800D-02
  0.280800D+03  0.210870D-01
  0.792700D+02  0.818530D-01
  0.255900D+02  0.234817D+00
  0.899700D+01  0.434401D+00
  0.331900D+01  0.346129D+00
  0.905900D+00  0.393780D-01
  0.364300D+00 -0.898300D-02
  0.128500D+00  0.238500D-02
   s    10 1.00
  0.823600D+04 -0.113000D-03
  0.123500D+04 -0.878000D-03
  0.280800D+03 -0.454000D-02
  0.792700D+02 -0.181330D-01
  0.255900D+02 -0.557600D-01
  0.899700D+01 -0.126895D+00
  0.331900D+01 -0.170352D+00
  0.905900D+00  0.140382D+00
  0.364300D+00  0.598684D+00
  0.128500D+00  0.395389D+00
   s     1 1.00
  0.905900D+00  0.100000D+01
   s     1 1.00
  0.364300D+00  0.100000D+01
   p     5 1.00
  0.187100D+02  0.140310D-01
  0.413300D+01  0.868660D-01
  0.120000D+01  0.290216D+00
  0.382700D+00  0.501008D+00
  0.120900D+00  0.343406D+00
   p     1 1.00
  0.382700D+00  0.100000D+01
   p     1 1.00
  0.120900D+00  0.100000D+01
   d     1 1.00
  0.109700D+01  0.100000D+01
   d     1 1.00
  0.318000D+00  0.100000D+01
   f     1 1.00
  0.761000D+00  0.100000D+01
  
  5  0
   s    10 1.00
  0.823600D+04  0.531000D-03
  0.123500D+04  0.410800D-02
  0.280800D+03  0.210870D-01
  0.792700D+02  0.818530D-01
  0.255900D+02  0.234817D+00
  0.899700D+01  0.434401D+00
  0.331900D+01  0.346129D+00
  0.905900D+00  0.393780D-01
  0.364300D+00 -0.898300D-02
  0.128500D+00  0.238500D-02
   s    10 1.00
  0.823600D+04 -0.113000D-03
  0.123500D+04 -0.878000D-03
  0.280800D+03 -0.454000D-02
  0.792700D+02 -0.181330D-01
  0.255900D+02 -0.557600D-01
  0.899700D+01 -0.126895D+00
  0.331900D+01 -0.170352D+00
  0.905900D+00  0.140382D+00
  0.364300D+00  0.598684D+00
  0.128500D+00  0.395389D+00
   s     1 1.00
  0.905900D+00  0.100000D+01
   s     1 1.00
  0.364300D+00  0.100000D+01
   p     5 1.00
  0.187100D+02  0.140310D-01
  0.413300D+01  0.868660D-01
  0.120000D+01  0.290216D+00
  0.382700D+00  0.501008D+00
  0.120900D+00  0.343406D+00
   p     1 1.00
  0.382700D+00  0.100000D+01
   p     1 1.00
  0.120900D+00  0.100000D+01
   d     1 1.00
  0.109700D+01  0.100000D+01
   d     1 1.00
  0.318000D+00  0.100000D+01
   f     1 1.00
  0.761000D+00  0.100000D+01
  
  6  0
   s    10 1.00
  0.823600D+04  0.531000D-03
  0.123500D+04  0.410800D-02
  0.280800D+03  0.210870D-01
  0.792700D+02  0.818530D-01
  0.255900D+02  0.234817D+00
  0.899700D+01  0.434401D+00
  0.331900D+01  0.346129D+00
  0.905900D+00  0.393780D-01
  0.364300D+00 -0.898300D-02
  0.128500D+00  0.238500D-02
   s    10 1.00
  0.823600D+04 -0.113000D-03
  0.123500D+04 -0.878000D-03
  0.280800D+03 -0.454000D-02
  0.792700D+02 -0.181330D-01
  0.255900D+02 -0.557600D-01
  0.899700D+01 -0.126895D+00
  0.331900D+01 -0.170352D+00
  0.905900D+00  0.140382D+00
  0.364300D+00  0.598684D+00
  0.128500D+00  0.395389D+00
   s     1 1.00
  0.905900D+00  0.100000D+01
   s     1 1.00
  0.364300D+00  0.100000D+01
   p     5 1.00
  0.187100D+02  0.140310D-01
  0.413300D+01  0.868660D-01
  0.120000D+01  0.290216D+00
  0.382700D+00  0.501008D+00
  0.120900D+00  0.343406D+00
   p     1 1.00
  0.382700D+00  0.100000D+01
   p     1 1.00
  0.120900D+00  0.100000D+01
   d     1 1.00
  0.109700D+01  0.100000D+01
   d     1 1.00
  0.318000D+00  0.100000D+01
   f     1 1.00
  0.761000D+00  0.100000D+01
  
  7  0
   s    10 1.00
  0.823600D+04  0.531000D-03
  0.123500D+04  0.410800D-02
  0.280800D+03  0.210870D-01
  0.792700D+02  0.818530D-01
  0.255900D+02  0.234817D+00
  0.899700D+01  0.434401D+00
  0.331900D+01  0.346129D+00
  0.905900D+00  0.393780D-01
  0.364300D+00 -0.898300D-02
  0.128500D+00  0.238500D-02
   s    10 1.00
  0.823600D+04 -0.113000D-03
  0.123500D+04 -0.878000D-03
  0.280800D+03 -0.454000D-02
  0.792700D+02 -0.181330D-01
  0.255900D+02 -0.557600D-01
  0.899700D+01 -0.126895D+00
  0.331900D+01 -0.170352D+00
  0.905900D+00  0.140382D+00
  0.364300D+00  0.598684D+00
  0.128500D+00  0.395389D+00
   s     1 1.00
  0.905900D+00  0.100000D+01
   s     1 1.00
  0.364300D+00  0.100000D+01
   p     5 1.00
  0.187100D+02  0.140310D-01
  0.413300D+01  0.868660D-01
  0.120000D+01  0.290216D+00
  0.382700D+00  0.501008D+00
  0.120900D+00  0.343406D+00
   p     1 1.00
  0.382700D+00  0.100000D+01
   p     1 1.00
  0.120900D+00  0.100000D+01
   d     1 1.00
  0.109700D+01  0.100000D+01
   d     1 1.00
  0.318000D+00  0.100000D+01
   f     1 1.00
  0.761000D+00  0.100000D+01
  
  8  0
   s     4 1.00
  0.130100D+02  0.196850D-01
  0.196200D+01  0.137977D+00
  0.444600D+00  0.478148D+00
  0.122000D+00  0.501240D+00
   s     1 1.00
  0.122000D+00  0.100000D+01
   p     1 1.00
  0.727000D+00  0.100000D+01
  
  9  0
   s     4 1.00
  0.130100D+02  0.196850D-01
  0.196200D+01  0.137977D+00
  0.444600D+00  0.478148D+00
  0.122000D+00  0.501240D+00
   s     1 1.00
  0.122000D+00  0.100000D+01
   p     1 1.00
  0.727000D+00  0.100000D+01
  
 10  0
   s     4 1.00
  0.130100D+02  0.196850D-01
  0.196200D+01  0.137977D+00
  0.444600D+00  0.478148D+00
  0.122000D+00  0.501240D+00
   s     1 1.00
  0.122000D+00  0.100000D+01
   p     1 1.00
  0.727000D+00  0.100000D+01
  
 11  0
   s     4 1.00
  0.130100D+02  0.196850D-01
  0.196200D+01  0.137977D+00
  0.444600D+00  0.478148D+00
  0.122000D+00  0.501240D+00
   s     1 1.00
  0.122000D+00  0.100000D+01
   p     1 1.00
  0.727000D+00  0.100000D+01
  
 12  0
   s     4 1.00
  0.130100D+02  0.196850D-01
  0.196200D+01  0.137977D+00
  0.444600D+00  0.478148D+00
  0.122000D+00  0.501240D+00
   s     1 1.00
  0.122000D+00  0.100000D+01
   p     1 1.00
  0.727000D+00  0.100000D+01
  
 13  0
   s     4 1.00
  0.130100D+02  0.196850D-01
  0.196200D+01  0.137977D+00
  0.444600D+00  0.478148D+00
  0.122000D+00  0.501240D+00
   s     1 1.00
  0.122000D+00  0.100000D+01
   p     1 1.00
  0.727000D+00  0.100000D+01
  
 14  0
   s     4 1.00
  0.130100D+02  0.196850D-01
  0.196200D+01  0.137977D+00
  0.444600D+00  0.478148D+00
  0.122000D+00  0.501240D+00
   s     1 1.00
  0.122000D+00  0.100000D+01
   p     1 1.00
  0.727000D+00  0.100000D+01
  
[MO]
 Sym= __1_A'_
 Ene=   1.00000000000000     
 Spin= Alpha
 Occup=    1.00000000000000     
                     1  3.774045018948140E-005
                     2  0.998395416374971     
                     3  2.726590730345578E-003
                     4  1.755137610564074E-003
                     5  4.225546255477310E-003
                     6  3.154626629752477E-003
                     7  6.308871406208534E-003
                     8  0.000000000000000E+000
                     9 -5.106574947265672E-004
                    10 -5.268620041424883E-004
                    11  0.000000000000000E+000
                    12 -1.845152420725092E-003
                    13 -1.305427018624512E-003
                    14  0.000000000000000E+000
                    15 -1.430507580164356E-004
                    16  0.000000000000000E+000
                    17  0.000000000000000E+000
                    18 -1.912429675716925E-004
                    19 -5.328901427637751E-005
                    20  2.181814128406599E-004
                    21  0.000000000000000E+000
                    22  0.000000000000000E+000
                    23 -3.997244877749510E-004
                    24  3.622814562188022E-004
                    25  0.000000000000000E+000
                    26 -2.131960906014460E-005
                    27 -7.560299744626504E-005
                    28  0.000000000000000E+000
                    29  0.000000000000000E+000
                    30  2.533275527724627E-005
                    31 -1.407115227045071E-004
                    32 -3.501744325004070E-004
                    33  1.809830920662346E-003
                    34  3.201594973607883E-004
                    35 -5.409821322644863E-004
                    36 -2.632613825573582E-004
                    37 -5.175786739185332E-003
                    38  0.000000000000000E+000
                    39  3.314152357464580E-004
                    40  4.836900610598533E-004
                    41  0.000000000000000E+000
                    42 -1.484982043038715E-003
                    43  5.212425500358274E-003
                    44  0.000000000000000E+000
                    45 -8.803272832958857E-006
                    46  0.000000000000000E+000
                    47  0.000000000000000E+000
                    48 -2.184073240895494E-004
                    49 -1.759602320603644E-005
                    50 -2.639238486842170E-004
                    51  0.000000000000000E+000
                    52  0.000000000000000E+000
                    53 -2.963309717512702E-005
                    54  5.482925682956284E-004
                    55  0.000000000000000E+000
                    56 -1.103294649423645E-005
                    57 -5.358146963224774E-005
                    58  0.000000000000000E+000
                    59  0.000000000000000E+000
                    60  5.509439466856744E-005
                    61 -1.425793554003672E-004
                    62 -4.188793955625118E-004
                    63 -1.982620825516983E-003
                    64 -5.123356534044039E-005
                    65  1.599830298667371E-003
                    66 -6.145947791962606E-004
                    67  4.745377258228151E-004
                    68  0.000000000000000E+000
                    69  2.855149679939867E-004
                    70  5.872576329979987E-004
                    71  0.000000000000000E+000
                    72 -1.666112924700951E-003
                    73  7.707397189164724E-004
                    74  0.000000000000000E+000
                    75 -2.882452619633861E-005
                    76  0.000000000000000E+000
                    77  0.000000000000000E+000
                    78 -5.793880692035448E-005
                    79 -2.076067320414730E-005
                    80 -1.041279440143629E-004
                    81  0.000000000000000E+000
                    82  0.000000000000000E+000
                    83 -1.602578338647361E-006
                    84 -1.433322369463921E-007
                    85  0.000000000000000E+000
                    86  1.680738087636843E-005
                    87 -4.308442667181043E-005
                    88  0.000000000000000E+000
                    89  0.000000000000000E+000
                    90 -1.209745858683934E-005
                    91 -1.386772188889475E-004
                    92 -2.214979829360536E-004
                    93 -1.444636450970388E-003
                    94  1.579018562830111E-004
                    95  1.028466614002965E-004
                    96  6.124820359914883E-004
                    97  7.312212923170462E-004
                    98  0.000000000000000E+000
                    99  2.671892144008515E-004
                   100  3.471644237949560E-004
                   101  0.000000000000000E+000
                   102  6.627443586566437E-004
                   103 -1.219259392765098E-003
                   104  0.000000000000000E+000
                   105 -6.404992919049915E-008
                   106  0.000000000000000E+000
                   107  0.000000000000000E+000
                   108 -7.646365233257288E-005
                   109 -1.738161356141375E-005
                   110  4.846774123972552E-005
                   111  0.000000000000000E+000
                   112  0.000000000000000E+000
                   113 -1.294867039888854E-004
                   114 -1.355552766184627E-005
                   115  0.000000000000000E+000
                   116 -2.698328433060668E-005
                   117 -2.504431866995692E-005
                   118  0.000000000000000E+000
                   119  0.000000000000000E+000
                   120 -3.233523710665494E-005
                   121 -4.284352501245771E-005
                   122 -2.364630101400385E-004
                   123 -4.805773057688167E-004
                   124  1.309529030385612E-004
                   125  4.088940590991100E-004
                   126 -1.825032766883691E-005
                   127 -5.523181422903912E-004
                   128  0.000000000000000E+000
                   129  1.765093537311874E-004
                   130  4.608460242936325E-004
                   131  0.000000000000000E+000
                   132  4.705507982631935E-004
                   133  1.667842716306164E-003
                   134  0.000000000000000E+000
                   135  7.012931811304501E-006
                   136  0.000000000000000E+000
                   137  0.000000000000000E+000
                   138  2.165012397808154E-005
                   139  2.738570763377140E-006
                   140  1.420313162965366E-004
                   141  0.000000000000000E+000
                   142  0.000000000000000E+000
                   143  2.885849024997710E-004
                   144  1.470939360961802E-004
                   145  0.000000000000000E+000
                   146 -7.631691984525602E-006
                   147 -5.041582389018799E-005
                   148  0.000000000000000E+000
                   149  0.000000000000000E+000
                   150 -6.035694524207995E-006
                   151 -3.689060280767696E-005
                   152 -1.730890401702838E-004
                   153 -2.492087659992521E-004
                   154  6.479679369964662E-005
                   155  2.740778263587632E-004
                   156 -9.277331178426918E-006
                   157 -5.275759048267060E-004
                   158  0.000000000000000E+000
                   159  1.886574818640873E-005
                   160  6.619847155772377E-005
                   161  0.000000000000000E+000
                   162  5.207049545564761E-004
                   163 -1.393386867506598E-004
                   164  0.000000000000000E+000
                   165  7.102634347607242E-007
                   166  0.000000000000000E+000
                   167  0.000000000000000E+000
                   168 -4.153344030287940E-006
                   169 -7.301711312971006E-007
                   170  8.502355742814969E-005
                   171  0.000000000000000E+000
                   172  0.000000000000000E+000
                   173  4.639647416741660E-005
                   174 -7.397804496222766E-006
                   175  0.000000000000000E+000
                   176 -1.048826700054200E-007
                   177 -1.394627200364495E-005
                   178  0.000000000000000E+000
                   179  0.000000000000000E+000
                   180 -6.362060688233164E-006
                   181 -2.076184233442391E-005
                   182 -1.685919198773803E-004
                   183 -5.409733505613468E-004
                   184  3.588010203321978E-005
                   185  2.697372054857312E-004
                   186 -3.852255429297313E-005
                   187 -5.458403374811163E-006
                   188  0.000000000000000E+000
                   189  1.899071142734174E-004
                   190  8.364528885837680E-005
                   191  0.000000000000000E+000
                   192  1.001454873805987E-003
                   193 -2.075609235121131E-004
                   194  0.000000000000000E+000
                   195  3.254920651636037E-006
                   196  0.000000000000000E+000
                   197  0.000000000000000E+000
                   198 -1.108753806676533E-005
                   199  5.592498194485685E-008
                   200 -2.457603118124234E-005
                   201  0.000000000000000E+000
                   202  0.000000000000000E+000
                   203 -7.960992830946295E-005
                   204 -1.533186062714268E-004
                   205  0.000000000000000E+000
                   206 -8.498351256051056E-006
                   207 -4.458958881419445E-006
                   208  0.000000000000000E+000
                   209  0.000000000000000E+000
                   210  5.414380077610264E-006
                   211 -8.366019582142996E-006
                   212  1.082951390476987E-004
                   213 -1.290211617040346E-004
                   214  2.242747299734944E-004
                   215  1.832224089506752E-004
                   216  0.000000000000000E+000
                   217  1.762018217855964E-003
                   218 -1.537884616380590E-003
                   219 -3.830400168504250E-004
                   220  2.590545569088705E-004
                   221  0.000000000000000E+000
                   222 -3.870827601583364E-004
                   223 -6.544519015170574E-004
                   224 -1.185855845633832E-005
                   225 -6.190170441291736E-005
                   226  0.000000000000000E+000
                   227 -3.216866992031981E-004
                   228 -4.569917978228575E-004
                   229 -6.681275841575272E-006
                   230 -3.194083515625833E-005
                   231  0.000000000000000E+000
                   232 -1.111523225805604E-004
                   233 -3.474736364516861E-004
                   234 -3.750793424445007E-006
                   235 -2.186111688671448E-006
                   236  0.000000000000000E+000
                   237 -1.606673546024071E-004
                   238 -3.401760428790771E-004
                   239  5.178829019460799E-006
                   240 -3.362523792141853E-006
                   241  0.000000000000000E+000
                   242  2.067945597272955E-005
                   243  3.560222637166942E-005
                   244  1.527417700471021E-006
                   245  2.810370873729063E-005
                   246  0.000000000000000E+000
 Sym= __2_A'_
 Ene=   2.00000000000000     
 Spin= Alpha
 Occup=    1.00000000000000     
                     1 -5.441197796564899E-005
                     2 -2.577856475838801E-004
                     3  2.800064863570410E-003
                     4  1.244872756996658E-004
                     5  1.327924083946579E-003
                     6 -2.390616840405351E-004
                     7  3.246423482499454E-003
                     8  0.000000000000000E+000
                     9  6.760045814244628E-007
                    10 -1.014341178647769E-004
                    11  0.000000000000000E+000
                    12  1.281156489530904E-005
                    13 -4.647782313528235E-004
                    14  0.000000000000000E+000
                    15  4.032834085288812E-005
                    16  0.000000000000000E+000
                    17  0.000000000000000E+000
                    18 -5.644430395724028E-005
                    19  1.521255336487833E-005
                    20 -1.159987565893347E-004
                    21  0.000000000000000E+000
                    22  0.000000000000000E+000
                    23  2.498468308939908E-004
                    24 -1.090407604754129E-004
                    25  0.000000000000000E+000
                    26 -9.614861445215964E-006
                    27  1.140426271080015E-004
                    28  0.000000000000000E+000
                    29  0.000000000000000E+000
                    30 -5.277271712268424E-005
                    31  1.404391133502933E-004
                    32   1.00090131581468     
                    33  9.308964155659032E-003
                    34  2.692089240647784E-003
                    35 -7.639935782171372E-003
                    36 -5.466488225066784E-005
                    37 -3.757063389330809E-003
                    38  0.000000000000000E+000
                    39 -1.953727347628182E-004
                    40  3.746478625760312E-004
                    41  0.000000000000000E+000
                    42 -1.124858582304794E-004
                    43  4.230885748808966E-003
                    44  0.000000000000000E+000
                    45 -5.908277881251774E-004
                    46  0.000000000000000E+000
                    47  0.000000000000000E+000
                    48 -2.995739708914824E-004
                    49  4.690674358119544E-005
                    50  4.767339424363038E-004
                    51  0.000000000000000E+000
                    52  0.000000000000000E+000
                    53 -2.527435913976314E-004
                    54 -3.650136675398623E-004
                    55  0.000000000000000E+000
                    56  1.352916955715334E-005
                    57  1.055531145037469E-004
                    58  0.000000000000000E+000
                    59  0.000000000000000E+000
                    60 -3.527021316457995E-005
                    61  4.485051679133207E-004
                    62  9.832414165404955E-003
                    63 -2.182658911793662E-003
                    64 -1.530644921055412E-004
                    65  2.463807757823843E-003
                    66 -9.650516641153116E-006
                    67 -5.953803806895804E-006
                    68  0.000000000000000E+000
                    69  5.430047908419013E-004
                    70  2.408846909068805E-004
                    71  0.000000000000000E+000
                    72 -1.973677163004424E-003
                    73  5.436897572011902E-004
                    74  0.000000000000000E+000
                    75  4.890322188817867E-005
                    76  0.000000000000000E+000
                    77  0.000000000000000E+000
                    78 -8.012460681167524E-006
                    79  2.537519557437993E-006
                    80 -3.880808049212358E-004
                    81  0.000000000000000E+000
                    82  0.000000000000000E+000
                    83 -4.715110802198414E-004
                    84 -2.845365327526555E-005
                    85  0.000000000000000E+000
                    86  2.385434222479465E-005
                    87 -6.105426741883976E-005
                    88  0.000000000000000E+000
                    89  0.000000000000000E+000
                    90 -1.227624747836129E-006
                    91  1.579822452239282E-004
                    92  1.134249215772477E-002
                    93 -2.231276639810120E-003
                    94 -2.244232105362508E-004
                    95  2.941852656168712E-003
                    96  8.998931265865090E-005
                    97  3.771791251973290E-006
                    98  0.000000000000000E+000
                    99 -9.295216762316571E-004
                   100  6.791790739328641E-005
                   101  0.000000000000000E+000
                   102  1.647769923882827E-003
                   103  2.616132125098536E-004
                   104  0.000000000000000E+000
                   105  3.658923380034472E-005
                   106  0.000000000000000E+000
                   107  0.000000000000000E+000
                   108 -3.339208345976716E-006
                   109  1.163268819512180E-005
                   110 -3.988867176530363E-004
                   111  0.000000000000000E+000
                   112  0.000000000000000E+000
                   113 -2.326846674857318E-004
                   114  9.111944252096923E-005
                   115  0.000000000000000E+000
                   116 -2.273787178349975E-005
                   117 -6.981464969653563E-005
                   118  0.000000000000000E+000
                   119  0.000000000000000E+000
                   120  3.749683658139093E-005
                   121  1.372558163287929E-004
                   122 -2.454052362568513E-004
                   123 -7.703907750928864E-004
                   124  2.281180913396925E-004
                   125  7.436391410398904E-005
                   126  3.124167848825293E-005
                   127 -3.649451337821263E-004
                   128  0.000000000000000E+000
                   129 -1.508059399370959E-004
                   130  5.273567467922023E-004
                   131  0.000000000000000E+000
                   132  3.048867711251851E-004
                   133  9.772250110625103E-004
                   134  0.000000000000000E+000
                   135  1.247547845995122E-005
                   136  0.000000000000000E+000
                   137  0.000000000000000E+000
                   138  3.519439531647414E-006
                   139  1.960631844764133E-005
                   140  1.337489220727147E-004
                   141  0.000000000000000E+000
                   142  0.000000000000000E+000
                   143  2.179105613630372E-004
                   144  1.617454150302515E-005
                   145  0.000000000000000E+000
                   146  1.417087149605748E-005
                   147 -4.434882100080713E-005
                   148  0.000000000000000E+000
                   149  0.000000000000000E+000
                   150 -4.461808273362299E-005
                   151  3.396982664876620E-005
                   152 -1.792174699090874E-004
                   153 -7.488541341030962E-004
                   154  2.251394118336217E-004
                   155  1.450747614311311E-004
                   156 -4.231037498864830E-005
                   157 -3.654073837463245E-004
                   158  0.000000000000000E+000
                   159  1.808579756812531E-004
                   160  4.415602278271708E-004