[Molden Format]
[Atoms] AU
  N     1    7    -4.5082829200   -0.1342819900   -0.4228200100        
  C     2    6    -1.7496705200   -0.0824342700   -0.1838819400        
  C     3    6    -0.3491890900    0.2202010900   -2.3813599000        
  C     4    6    -0.4819141000   -0.3194027500    2.1144844200        
  C     5    6     2.2679837200    0.2851297300   -2.2867536700        
  C     6    6     2.1285900100   -0.2535069600    2.1993448600        
  C     7    6     3.5096699900    0.0491470500   -0.0030301700        
  H     8    1    -5.1320741200   -2.0132111100    0.6830024400        
  H     9    1    -5.1710165100    1.2661961700    0.9629770900        
  H    10    1    -1.3260875200    0.4019365300   -4.1451509600        
  H    11    1    -1.5448115400   -0.5543420500    3.8263524900        
  H    12    1     3.3318141500    0.5199799700   -3.9976458500        
  H    13    1     3.0845146800   -0.4378414600    3.9798216900        
  H    14    1     5.5368142800    0.0998677000    0.0666404700        
[5D]
[7F]
[GTO]
  1  0
   s    12 1.00
  0.114200D+05  0.172695D-04
  0.171200D+04  0.134411D-03
  0.389300D+03  0.694561D-03
  0.110000D+03  0.278531D-02
  0.355700D+02  0.863457D-02
  0.125400D+02  0.199805D-01
  0.464400D+01  0.262908D-01
  0.129300D+01 -0.243845D-01
  0.511800D+00 -0.924934D-01
  0.178700D+00 -0.339683D+00
  0.246240D-01  0.345111D+00
  0.112530D-01  0.752750D+00
   s    10 1.00
  0.114200D+05  0.523000D-03
  0.171200D+04  0.404500D-02
  0.389300D+03  0.207750D-01
  0.110000D+03  0.807269D-01
  0.355700D+02  0.233074D+00
  0.125400D+02  0.433501D+00
  0.464400D+01  0.347472D+00
  0.129300D+01  0.412620D-01
  0.511800D+00 -0.850799D-02
  0.178700D+00  0.238400D-02
   s    10 1.00
  0.114200D+05 -0.115000D-03
  0.171200D+04 -0.895000D-03
  0.389300D+03 -0.462400D-02
  0.110000D+03 -0.185280D-01
  0.355700D+02 -0.573390D-01
  0.125400D+02 -0.132076D+00
  0.464400D+01 -0.172510D+00
  0.129300D+01  0.151814D+00
  0.511800D+00  0.599944D+00
  0.178700D+00  0.387462D+00
   s     1 1.00
  0.129300D+01  0.100000D+01
   s     1 1.00
  0.178700D+00  0.100000D+01
   p     5 1.00
  0.266300D+02  0.146700D-01
  0.594800D+01  0.917640D-01
  0.174200D+01  0.298683D+00
  0.555000D+00  0.498487D+00
  0.172500D+00  0.337023D+00
   p     1 1.00
  0.174200D+01  0.100000D+01
   p     1 1.00
  0.555000D+00  0.100000D+01
   d     1 1.00
  0.165400D+01  0.100000D+01
   d     1 1.00
  0.469000D+00  0.100000D+01
   f     1 1.00
  0.109300D+01  0.100000D+01
  
  2  0
   s    10 1.00
  0.823600D+04  0.531000D-03
  0.123500D+04  0.410800D-02
  0.280800D+03  0.210870D-01
  0.792700D+02  0.818530D-01
  0.255900D+02  0.234817D+00
  0.899700D+01  0.434401D+00
  0.331900D+01  0.346129D+00
  0.905900D+00  0.393780D-01
  0.364300D+00 -0.898300D-02
  0.128500D+00  0.238500D-02
   s    10 1.00
  0.823600D+04 -0.113000D-03
  0.123500D+04 -0.878000D-03
  0.280800D+03 -0.454000D-02
  0.792700D+02 -0.181330D-01
  0.255900D+02 -0.557600D-01
  0.899700D+01 -0.126895D+00
  0.331900D+01 -0.170352D+00
  0.905900D+00  0.140382D+00
  0.364300D+00  0.598684D+00
  0.128500D+00  0.395389D+00
   s     1 1.00
  0.905900D+00  0.100000D+01
   s     1 1.00
  0.364300D+00  0.100000D+01
   p     5 1.00
  0.187100D+02  0.140310D-01
  0.413300D+01  0.868660D-01
  0.120000D+01  0.290216D+00
  0.382700D+00  0.501008D+00
  0.120900D+00  0.343406D+00
   p     1 1.00
  0.382700D+00  0.100000D+01
   p     1 1.00
  0.120900D+00  0.100000D+01
   d     1 1.00
  0.109700D+01  0.100000D+01
   d     1 1.00
  0.318000D+00  0.100000D+01
   f     1 1.00
  0.761000D+00  0.100000D+01
  
  3  0
   s    10 1.00
  0.823600D+04  0.531000D-03
  0.123500D+04  0.410800D-02
  0.280800D+03  0.210870D-01
  0.792700D+02  0.818530D-01
  0.255900D+02  0.234817D+00
  0.899700D+01  0.434401D+00
  0.331900D+01  0.346129D+00
  0.905900D+00  0.393780D-01
  0.364300D+00 -0.898300D-02
  0.128500D+00  0.238500D-02
   s    10 1.00
  0.823600D+04 -0.113000D-03
  0.123500D+04 -0.878000D-03
  0.280800D+03 -0.454000D-02
  0.792700D+02 -0.181330D-01
  0.255900D+02 -0.557600D-01
  0.899700D+01 -0.126895D+00
  0.331900D+01 -0.170352D+00
  0.905900D+00  0.140382D+00
  0.364300D+00  0.598684D+00
  0.128500D+00  0.395389D+00
   s     1 1.00
  0.905900D+00  0.100000D+01
   s     1 1.00
  0.364300D+00  0.100000D+01
   p     5 1.00
  0.187100D+02  0.140310D-01
  0.413300D+01  0.868660D-01
  0.120000D+01  0.290216D+00
  0.382700D+00  0.501008D+00
  0.120900D+00  0.343406D+00
   p     1 1.00
  0.382700D+00  0.100000D+01
   p     1 1.00
  0.120900D+00  0.100000D+01
   d     1 1.00
  0.109700D+01  0.100000D+01
   d     1 1.00
  0.318000D+00  0.100000D+01
   f     1 1.00
  0.761000D+00  0.100000D+01
  
  4  0
   s    10 1.00
  0.823600D+04  0.531000D-03
  0.123500D+04  0.410800D-02
  0.280800D+03  0.210870D-01
  0.792700D+02  0.818530D-01
  0.255900D+02  0.234817D+00
  0.899700D+01  0.434401D+00
  0.331900D+01  0.346129D+00
  0.905900D+00  0.393780D-01
  0.364300D+00 -0.898300D-02
  0.128500D+00  0.238500D-02
   s    10 1.00
  0.823600D+04 -0.113000D-03
  0.123500D+04 -0.878000D-03
  0.280800D+03 -0.454000D-02
  0.792700D+02 -0.181330D-01
  0.255900D+02 -0.557600D-01
  0.899700D+01 -0.126895D+00
  0.331900D+01 -0.170352D+00
  0.905900D+00  0.140382D+00
  0.364300D+00  0.598684D+00
  0.128500D+00  0.395389D+00
   s     1 1.00
  0.905900D+00  0.100000D+01
   s     1 1.00
  0.364300D+00  0.100000D+01
   p     5 1.00
  0.187100D+02  0.140310D-01
  0.413300D+01  0.868660D-01
  0.120000D+01  0.290216D+00
  0.382700D+00  0.501008D+00
  0.120900D+00  0.343406D+00
   p     1 1.00
  0.382700D+00  0.100000D+01
   p     1 1.00
  0.120900D+00  0.100000D+01
   d     1 1.00
  0.109700D+01  0.100000D+01
   d     1 1.00
  0.318000D+00  0.100000D+01
   f     1 1.00
  0.761000D+00  0.100000D+01
  
  5  0
   s    10 1.00
  0.823600D+04  0.531000D-03
  0.123500D+04  0.410800D-02
  0.280800D+03  0.210870D-01
  0.792700D+02  0.818530D-01
  0.255900D+02  0.234817D+00
  0.899700D+01  0.434401D+00
  0.331900D+01  0.346129D+00
  0.905900D+00  0.393780D-01
  0.364300D+00 -0.898300D-02
  0.128500D+00  0.238500D-02
   s    10 1.00
  0.823600D+04 -0.113000D-03
  0.123500D+04 -0.878000D-03
  0.280800D+03 -0.454000D-02
  0.792700D+02 -0.181330D-01
  0.255900D+02 -0.557600D-01
  0.899700D+01 -0.126895D+00
  0.331900D+01 -0.170352D+00
  0.905900D+00  0.140382D+00
  0.364300D+00  0.598684D+00
  0.128500D+00  0.395389D+00
   s     1 1.00
  0.905900D+00  0.100000D+01
   s     1 1.00
  0.364300D+00  0.100000D+01
   p     5 1.00
  0.187100D+02  0.140310D-01
  0.413300D+01  0.868660D-01
  0.120000D+01  0.290216D+00
  0.382700D+00  0.501008D+00
  0.120900D+00  0.343406D+00
   p     1 1.00
  0.382700D+00  0.100000D+01
   p     1 1.00
  0.120900D+00  0.100000D+01
   d     1 1.00
  0.109700D+01  0.100000D+01
   d     1 1.00
  0.318000D+00  0.100000D+01
   f     1 1.00
  0.761000D+00  0.100000D+01
  
  6  0
   s    10 1.00
  0.823600D+04  0.531000D-03
  0.123500D+04  0.410800D-02
  0.280800D+03  0.210870D-01
  0.792700D+02  0.818530D-01
  0.255900D+02  0.234817D+00
  0.899700D+01  0.434401D+00
  0.331900D+01  0.346129D+00
  0.905900D+00  0.393780D-01
  0.364300D+00 -0.898300D-02
  0.128500D+00  0.238500D-02
   s    10 1.00
  0.823600D+04 -0.113000D-03
  0.123500D+04 -0.878000D-03
  0.280800D+03 -0.454000D-02
  0.792700D+02 -0.181330D-01
  0.255900D+02 -0.557600D-01
  0.899700D+01 -0.126895D+00
  0.331900D+01 -0.170352D+00
  0.905900D+00  0.140382D+00
  0.364300D+00  0.598684D+00
  0.128500D+00  0.395389D+00
   s     1 1.00
  0.905900D+00  0.100000D+01
   s     1 1.00
  0.364300D+00  0.100000D+01
   p     5 1.00
  0.187100D+02  0.140310D-01
  0.413300D+01  0.868660D-01
  0.120000D+01  0.290216D+00
  0.382700D+00  0.501008D+00
  0.120900D+00  0.343406D+00
   p     1 1.00
  0.382700D+00  0.100000D+01
   p     1 1.00
  0.120900D+00  0.100000D+01
   d     1 1.00
  0.109700D+01  0.100000D+01
   d     1 1.00
  0.318000D+00  0.100000D+01
   f     1 1.00
  0.761000D+00  0.100000D+01
  
  7  0
   s    10 1.00
  0.823600D+04  0.531000D-03
  0.123500D+04  0.410800D-02
  0.280800D+03  0.210870D-01
  0.792700D+02  0.818530D-01
  0.255900D+02  0.234817D+00
  0.899700D+01  0.434401D+00
  0.331900D+01  0.346129D+00
  0.905900D+00  0.393780D-01
  0.364300D+00 -0.898300D-02
  0.128500D+00  0.238500D-02
   s    10 1.00
  0.823600D+04 -0.113000D-03
  0.123500D+04 -0.878000D-03
  0.280800D+03 -0.454000D-02
  0.792700D+02 -0.181330D-01
  0.255900D+02 -0.557600D-01
  0.899700D+01 -0.126895D+00
  0.331900D+01 -0.170352D+00
  0.905900D+00  0.140382D+00
  0.364300D+00  0.598684D+00
  0.128500D+00  0.395389D+00
   s     1 1.00
  0.905900D+00  0.100000D+01
   s     1 1.00
  0.364300D+00  0.100000D+01
   p     5 1.00
  0.187100D+02  0.140310D-01
  0.413300D+01  0.868660D-01
  0.120000D+01  0.290216D+00
  0.382700D+00  0.501008D+00
  0.120900D+00  0.343406D+00
   p     1 1.00
  0.382700D+00  0.100000D+01
   p     1 1.00
  0.120900D+00  0.100000D+01
   d     1 1.00
  0.109700D+01  0.100000D+01
   d     1 1.00
  0.318000D+00  0.100000D+01
   f     1 1.00
  0.761000D+00  0.100000D+01
  
  8  0
   s     4 1.00
  0.130100D+02  0.196850D-01
  0.196200D+01  0.137977D+00
  0.444600D+00  0.478148D+00
  0.122000D+00  0.501240D+00
   s     1 1.00
  0.122000D+00  0.100000D+01
   p     1 1.00
  0.727000D+00  0.100000D+01
  
  9  0
   s     4 1.00
  0.130100D+02  0.196850D-01
  0.196200D+01  0.137977D+00
  0.444600D+00  0.478148D+00
  0.122000D+00  0.501240D+00
   s     1 1.00
  0.122000D+00  0.100000D+01
   p     1 1.00
  0.727000D+00  0.100000D+01
  
 10  0
   s     4 1.00
  0.130100D+02  0.196850D-01
  0.196200D+01  0.137977D+00
  0.444600D+00  0.478148D+00
  0.122000D+00  0.501240D+00
   s     1 1.00
  0.122000D+00  0.100000D+01
   p     1 1.00
  0.727000D+00  0.100000D+01
  
 11  0
   s     4 1.00
  0.130100D+02  0.196850D-01
  0.196200D+01  0.137977D+00
  0.444600D+00  0.478148D+00
  0.122000D+00  0.501240D+00
   s     1 1.00
  0.122000D+00  0.100000D+01
   p     1 1.00
  0.727000D+00  0.100000D+01
  
 12  0
   s     4 1.00
  0.130100D+02  0.196850D-01
  0.196200D+01  0.137977D+00
  0.444600D+00  0.478148D+00
  0.122000D+00  0.501240D+00
   s     1 1.00
  0.122000D+00  0.100000D+01
   p     1 1.00
  0.727000D+00  0.100000D+01
  
 13  0
   s     4 1.00
  0.130100D+02  0.196850D-01
  0.196200D+01  0.137977D+00
  0.444600D+00  0.478148D+00
  0.122000D+00  0.501240D+00
   s     1 1.00
  0.122000D+00  0.100000D+01
   p     1 1.00
  0.727000D+00  0.100000D+01
  
 14  0
   s     4 1.00
  0.130100D+02  0.196850D-01
  0.196200D+01  0.137977D+00
  0.444600D+00  0.478148D+00
  0.122000D+00  0.501240D+00
   s     1 1.00
  0.122000D+00  0.100000D+01
   p     1 1.00
  0.727000D+00  0.100000D+01
  
[MO]
 Sym= __1_A__
 Ene=   1.00000000000000     
 Spin= Alpha
 Occup=    1.00000000000000     
                     1 -5.761554780615604E-004
                     2  0.997874071248144     
                     3 -3.486292986047262E-002
                     4  1.706239701339970E-003
                     5  4.241087622189326E-003
                     6  1.316666814572819E-002
                     7 -2.720015850163680E-003
                     8  2.651342033026624E-002
                     9 -1.399307542371173E-003
                    10  1.280984884632020E-004
                    11 -1.894158010431324E-003
                    12 -3.692995760581258E-003
                    13  5.236716576976513E-004
                    14 -5.831454314125573E-003
                    15  1.539440481827358E-004
                    16  7.010873315613091E-005
                    17 -2.524112133623243E-005
                    18  5.436468322202048E-005
                    19  1.456073659054547E-006
                    20  6.695877795832076E-004
                    21  8.054016614138587E-004
                    22 -8.517837271090648E-005
                    23  1.484513601227441E-004
                    24 -9.147249348067471E-005
                    25  3.310648096939918E-005
                    26 -5.284046953327645E-005
                    27  8.943181316423236E-006
                    28  5.177891852704384E-005
                    29  2.137112194089961E-005
                    30  4.575679718045427E-005
                    31 -1.229977651606459E-005
                    32 -4.436205799571255E-004
                    33  5.237748737496094E-004
                    34  2.246839772871816E-004
                    35  1.973587313826196E-004
                    36  1.321895548423085E-003
                    37  1.137106370907714E-004
                    38 -1.126119314065758E-003
                    39 -6.674278388707425E-004
                    40 -7.440328745408098E-005
                    41  4.008162330624961E-004
                    42  2.733591224407042E-003
                    43  2.763631708452071E-004
                    44 -1.344424688322734E-003
                    45  5.964003924316205E-005
                    46 -3.649639770397067E-004
                    47 -1.681891158915530E-005
                    48 -7.371114341779716E-005
                    49  4.159674888371356E-005
                    50  1.056074332774255E-005
                    51 -9.401836133242483E-005
                    52  5.879147531074408E-006
                    53 -3.106633641868682E-005
                    54 -1.261933293388449E-005
                    55  1.154102178876354E-004
                    56 -2.252047408433062E-006
                    57  8.971785641746207E-006
                    58  1.274033765242773E-004
                    59  2.833921925191207E-006
                    60 -6.019960660426331E-005
                    61 -1.107623453951164E-005
                    62 -7.982678216805959E-004
                    63  5.513960358311771E-004
                    64 -1.521313449773473E-004
                    65  2.904804994020399E-003
                    66 -3.976541357624549E-003
                    67 -2.601371730208484E-004
                    68  9.804293159080002E-004
                    69  6.452375008709164E-004
                    70 -3.471011397209582E-005
                    71  5.433059913384744E-004
                    72  1.310261127205439E-003
                    73  3.039082439875575E-004
                    74 -2.376489667357492E-003
                    75  1.318024388633254E-004
                    76 -8.097159466287383E-005
                    77 -3.132148325125088E-005
                    78  1.146415917708119E-005
                    79  1.018683243200691E-005
                    80  1.268391500099933E-004
                    81 -2.850886273877381E-004
                    82 -2.896656843229573E-005
                    83 -3.694939152420770E-005
                    84  3.486242955697675E-005
                    85 -2.862791175803545E-005
                    86 -1.637473417139010E-004
                    87 -1.128083940152297E-005
                    88 -4.767397674504730E-006
                    89  1.943191906894495E-005
                    90 -7.147665021915660E-005
                    91  6.564959810646221E-006
                    92  4.325890059635872E-005
                    93 -9.101857170911989E-004
                    94  2.924415946211926E-004
                    95 -1.151032602758352E-003
                    96 -2.171243075462230E-004
                    97 -2.059271842552398E-004
                    98  1.127450406714475E-003
                    99  4.101339285051815E-005
                   100 -2.257067065839346E-005
                   101  1.944886398899330E-004
                   102 -1.318158966369803E-003
                   103  2.312331469923649E-005
                   104 -6.568927569690794E-004
                   105 -5.028348457791873E-005
                   106 -1.049140509340332E-005
                   107  5.443036595110573E-006
                   108  4.444841440927514E-005
                   109  3.755362748007286E-006
                   110  2.896143473215871E-005
                   111  3.218445994405679E-004
                   112  2.352822864357653E-005
                   113 -1.267465506020227E-004
                   114 -4.120536527070577E-005
                   115 -3.449840657563278E-005
                   116  1.462597668973206E-005
                   117 -6.882857632867219E-006
                   118 -1.922565169955137E-005
                   119 -2.800935960141982E-006
                   120  1.563121701339986E-005
                   121  2.626922844649129E-007
                   122 -2.803157469728295E-004
                   123 -2.043485820375856E-003
                   124  1.567706709503307E-004
                   125  5.454240945841280E-004
                   126  1.993911438616284E-003
                   127  9.167989774894273E-005
                   128 -1.856596879589060E-004
                   129  4.065426444871906E-004
                   130 -2.867266731788283E-005
                   131  3.185307500269005E-004
                   132  7.579737424074962E-004
                   133 -8.068014370182295E-005
                   134  9.819732937539343E-004
                   135  7.397833473394758E-005
                   136 -2.675372422324182E-005
                   137 -7.717293419049870E-006
                   138 -6.938738420467492E-005
                   139 -5.313024787733477E-008
                   140  2.150400585480974E-004
                   141  9.074576775616452E-005
                   142 -6.927249998886518E-006
                   143 -2.986594154871094E-004
                   144 -2.784523100169863E-005
                   145 -8.019595320196677E-006
                   146 -4.079166766699263E-005
                   147 -6.796147887120282E-006
                   148  1.719206099730851E-005
                   149 -3.813401643025727E-006
                   150 -8.490776365722366E-005
                   151  4.404507682844933E-006
                   152 -1.091160796928544E-004
                   153 -1.843516351069542E-004
                   154 -6.925278260507617E-005
                   155  7.115756276125904E-004
                   156  4.330043672986013E-004
                   157 -3.044898948036508E-005
                   158  1.420629108600500E-004
                   159 -3.662866980490859E-004
                   160 -9.712032680889134E-006
                   161 -1.758443592134938E-005
                   162 -2.424028082638903E-004
                   163 -1.183070510521508E-004
                   164  1.021312015405970E-003
                   165 -2.650965541165499E-007
                   166 -1.461150740326626E-005
                   167 -2.304886765145953E-006
                   168  1.693996305875355E-005
                   169  4.014577485804744E-006
                   170 -6.906820902597713E-005
                   171  4.970273792986457E-005
                   172  2.533034747191540E-005
                   173 -8.340435340106011E-005
                   174 -8.308769273802349E-006
                   175 -3.261080779038924E-007
                   176 -1.790253528922909E-005
                   177 -1.370890799299448E-007
                   178 -1.950798839288297E-006
                   179  3.033221360887326E-006
                   180 -1.581676303564228E-006
                   181 -2.252901101570311E-007
                   182 -1.104897274712561E-004
                   183 -1.217151002149935E-004
                   184  2.212554556681886E-005
                   185  2.330205336637891E-004
                   186 -2.606267875089222E-004
                   187  1.264381151284638E-005
                   188 -1.198449348199438E-004
                   189  1.381357515825182E-004
                   190 -4.007248793875154E-005
                   191  3.824149121072780E-004
                   192 -4.576325671668702E-004
                   193 -1.147173466380263E-004
                   194  8.107206698942208E-004
                   195  3.126820527329534E-005
                   196 -1.401482686861702E-005
                   197 -5.677616394188431E-006
                   198 -1.619817596771820E-005
                   199  7.417949976745488E-007
                   200 -1.755484915494877E-005
                   201 -2.196425222602570E-004
                   202 -3.532166329281589E-006
                   203 -7.326570316165202E-006
                   204  2.666780831024332E-005
                   205 -1.602479418536341E-007
                   206  3.434705083294435E-006
                   207 -2.078797826596619E-006
                   208  1.191108542161867E-005
                   209 -3.119867965060633E-007
                   210 -4.896654735310654E-006
                   211 -1.499176015964623E-006
                   212 -9.813410200072230E-004
                   213  1.502724677079833E-003
                   214  1.682630083124622E-004
                   215 -1.666629677115645E-005
                   216  2.359115365479398E-004
                   217 -2.098917843700718E-003
                   218  1.836983181707199E-003
                   219  1.481202681980543E-004
                   220  3.499968206521757E-005
                   221  3.395855134998233E-004
                   222  1.824557405002524E-003
                   223 -2.001732083439435E-003
                   224 -4.253017957729232E-006
                   225 -1.694711874311985E-005
                   226  1.486937093097014E-004
                   227  5.369807390340027E-004
                   228  2.420193577295366E-004
                   229 -3.645533710147258E-005
                   230  1.126606844946735E-005
                   231 -1.108526354253801E-004
                   232  9.105013281097554E-004
                   233  1.177127787771803E-004
                   234  2.878458785883812E-006
                   235 -6.032595554497652E-006
                   236  5.083283333290706E-005
                   237  1.908026780228656E-004
                   238 -6.861635248146880E-004
                   239 -3.396772331642940E-005
                   240  1.134399410411230E-006
                   241 -2.207191550312613E-005
                   242 -3.859057148323033E-004
                   243  2.477571654180646E-004
                   244  3.424726060054469E-005
                   245  1.957894935950226E-006
                   246 -5.137588664573856E-006
 Sym= __2_A__
 Ene=   2.00000000000000     
 Spin= Alpha
 Occup=    1.00000000000000     
                     1 -4.304643614010975E-005
                     2  6.524679394451579E-005
                     3 -7.893790522640624E-004
                     4 -2.060363862827400E-005
                     5  9.331770385826867E-004
                     6  1.589793552235171E-003
                     7 -1.397340927815555E-004
                     8  1.236551700165883E-003
                     9 -1.542645921648971E-004
                    10  6.464062390677480E-006
                    11 -1.270173503788193E-004
                    12  1.401752472868137E-004
                    13  1.973303027851325E-005
                    14 -1.564491721682151E-004
                    15 -4.488669383982839E-005
                    16  3.009326379625675E-005
                    17  3.253468307616702E-006
                    18  5.164303624060248E-005
                    19  3.966715311481281E-008
                    20  6.006169976782266E-005
                    21 -5.181130944140944E-005
                    22 -2.733348372055476E-005
                    23  9.448964214827606E-005
                    24  1.678157104239484E-005
                    25 -2.725712466186102E-005
                    26  1.256975063269385E-004
                    27  9.804139487673041E-006
                    28 -6.421994747157790E-005
                    29 -9.194226583818664E-006
                    30  1.089827508654150E-004
                    31 -6.508294041234193E-007
                    32   1.00083487404478     
                    33  8.519435925645609E-003
                    34  2.847738443799089E-003
                    35 -8.434971163749234E-003
                    36 -1.245556610878695E-003
                    37 -7.929877697415659E-005
                    38  6.905369942865615E-005
                    39  7.538877667107075E-004
                    40  9.077427388212822E-005
                    41 -4.329527938956657E-004
                    42  2.405696826255013E-003
                    43  2.989856433322841E-005
                    44  4.212630959194281E-004
                    45  3.222696406099417E-004
                    46 -1.777486369281918E-005
                    47 -1.053795946630586E-004
                    48  3.054849162771076E-004
                    49  1.795908756504210E-005
                    50 -1.016711930894983E-003
                    51 -3.991717726700266E-004
                    52  2.158504920390867E-004
                    53 -1.141586865654206E-004
                    54  4.114120624557651E-005
                    55 -2.536645757135683E-005
                    56  2.531400690914514E-004
                    57  6.791173131179538E-006
                    58 -3.104057598733628E-005
                    59 -3.976738658579206E-005
                    60  6.783948764740106E-005
                    61 -1.110566354312616E-006
                    62  1.663414066514787E-002
                    63 -1.315187005858122E-003
                    64 -2.891381199546916E-004
                    65  2.737968315911076E-003
                    66 -4.564855625125050E-004
                    67 -7.512331141200769E-005
                    68  4.751385292024523E-004
                    69  2.615600171943507E-005
                    70 -3.361978558456387E-005
                    71  2.760617637405582E-004
                    72  1.886756791663033E-004
                    73  2.185353174407970E-004
                    74 -1.783027666913416E-003
                    75  1.749710961590933E-005
                    76  2.419420426583742E-005
                    77  2.731315274581970E-006
                    78 -4.976872282390542E-005
                    79 -5.520390776047759E-006
                    80 -5.674981538393351E-004
                    81 -3.844637940972817E-004
                    82  7.235541037321967E-006
                    83  8.126818788169308E-004
                    84  9.352104062947960E-005
                    85  3.452663924381138E-005
                    86  1.067036773793567E-004
                    87  1.935385021000756E-005
                    88 -3.037437091897502E-005
                    89 -2.591822166705841E-005
                    90 -2.624450117824083E-005
                    91  6.958452852626020E-006
                    92  1.870238442794991E-002
                    93 -1.747993648084598E-003
                    94 -3.418041121122877E-004
                    95  3.405194876335954E-003
                    96 -2.666941348506515E-004
                    97  2.144463159746979E-005
                    98 -3.076048228506737E-004
                    99 -1.258045726769866E-004
                   100  9.257813911683896E-005
                   101 -8.187592774628914E-004
                   102  3.732441115164599E-004
                   103 -1.656454720678760E-004
                   104  1.462206973887222E-003
                   105  7.831723655330221E-006
                   106 -2.017715337270211E-006
                   107  1.087532335856107E-006
                   108 -2.162776621252250E-005
                   109 -9.168401222277632E-007
                   110 -1.390329906966307E-004
                   111  5.403978181038421E-004
                   112 -2.616575148496529E-005
                   113  6.116545880513042E-004
                   114 -2.786863647215531E-005
                   115 -4.369863692117915E-005
                   116  8.065873910608828E-005
                   117 -1.456277880187780E-005
                   118  1.677251582615262E-005
                   119 -1.889429477468261E-005
                   120 -2.781885991719774E-005
                   121 -2.877985379848792E-007
                   122 -3.485545631532261E-005
                   123 -7.578663895098812E-004
                   124  2.453804338111363E-004
                   125 -4.371811355267142E-004
                   126 -3.520355013552708E-006
                   127  5.042223224323831E-006
                   128 -5.974085042466325E-005
                   129  6.246007471914851E-004
                   130  1.131851401603277E-005
                   131  5.956590892689414E-005
                   132  2.387927914319651E-004
                   133 -4.393193333212920E-005
                   134  4.337520723258344E-004
                   135  3.069059186159239E-006
                   136  3.469529775559364E-005
                   137  5.326246306726807E-006
                   138 -4.144912157229310E-005
                   139 -6.539283102857644E-006
                   140  1.861709965795075E-004
                   141 -3.031651409841850E-004
                   142 -2.125564716654963E-005
                   143 -2.185047877807120E-004
                   144  2.350421172959015E-005
                   145 -7.174792330972206E-006
                   146  1.112045953680637E-005
                   147 -1.778124726860523E-006
                   148 -6.524311600259743E-008
                   149 -4.998476901061613E-006
                   150 -1.912728216309327E-005
                   151  1.723681980987813E-006
                   152  5.093680267449577E-005
                   153 -7.638469844691069E-004
                   154  2.284373224537011E-004
                   155 -1.272895894273328E-004
                   156 -7.930718867354257E-005
                   157 -1.135090136718263E-005
                   158  4.437825511301263E-005
                   159  4.722533824177360E-004
                   160  1.541489239890213E-005