[Molden Format]
[Atoms] AU
  N     1    7    -4.4968227800    0.0526346600   -0.3399806000        
  C     2    6    -1.7532584600   -0.0225502900   -0.1518422600        
  C     3    6    -0.3585711200    0.2168009200   -2.3652955800        
  C     4    6    -0.4736913500   -0.2222408000    2.1412395800        
  C     5    6     2.2563169300    0.2180163600   -2.2883157600        
  C     6    6     2.1404538900   -0.1852948100    2.2088397700        
  C     7    6     3.5119637200    0.0270436800   -0.0050766000        
  H     8    1    -5.1210146200   -1.8063175300   -0.1742715200        
  H     9    1    -5.1065159200    0.8164224600    1.3352441100        
  H    10    1    -1.3387577100    0.4163981300   -4.1260540100        
  H    11    1    -1.5257627400   -0.4217043400    3.8641532300        
  H    12    1     3.3126795400    0.3966767000   -4.0109410300        
  H    13    1     3.1026001100   -0.3371836700    3.9890613500        
  H    14    1     5.5400366400    0.0461426100    0.0494371800        
[5D]
[7F]
[GTO]
  1  0
   s    12 1.00
  0.114200D+05  0.172695D-04
  0.171200D+04  0.134411D-03
  0.389300D+03  0.694561D-03
  0.110000D+03  0.278531D-02
  0.355700D+02  0.863457D-02
  0.125400D+02  0.199805D-01
  0.464400D+01  0.262908D-01
  0.129300D+01 -0.243845D-01
  0.511800D+00 -0.924934D-01
  0.178700D+00 -0.339683D+00
  0.246240D-01  0.345111D+00
  0.112530D-01  0.752750D+00
   s    10 1.00
  0.114200D+05  0.523000D-03
  0.171200D+04  0.404500D-02
  0.389300D+03  0.207750D-01
  0.110000D+03  0.807269D-01
  0.355700D+02  0.233074D+00
  0.125400D+02  0.433501D+00
  0.464400D+01  0.347472D+00
  0.129300D+01  0.412620D-01
  0.511800D+00 -0.850799D-02
  0.178700D+00  0.238400D-02
   s    10 1.00
  0.114200D+05 -0.115000D-03
  0.171200D+04 -0.895000D-03
  0.389300D+03 -0.462400D-02
  0.110000D+03 -0.185280D-01
  0.355700D+02 -0.573390D-01
  0.125400D+02 -0.132076D+00
  0.464400D+01 -0.172510D+00
  0.129300D+01  0.151814D+00
  0.511800D+00  0.599944D+00
  0.178700D+00  0.387462D+00
   s     1 1.00
  0.129300D+01  0.100000D+01
   s     1 1.00
  0.178700D+00  0.100000D+01
   p     5 1.00
  0.266300D+02  0.146700D-01
  0.594800D+01  0.917640D-01
  0.174200D+01  0.298683D+00
  0.555000D+00  0.498487D+00
  0.172500D+00  0.337023D+00
   p     1 1.00
  0.174200D+01  0.100000D+01
   p     1 1.00
  0.555000D+00  0.100000D+01
   d     1 1.00
  0.165400D+01  0.100000D+01
   d     1 1.00
  0.469000D+00  0.100000D+01
   f     1 1.00
  0.109300D+01  0.100000D+01
  
  2  0
   s    10 1.00
  0.823600D+04  0.531000D-03
  0.123500D+04  0.410800D-02
  0.280800D+03  0.210870D-01
  0.792700D+02  0.818530D-01
  0.255900D+02  0.234817D+00
  0.899700D+01  0.434401D+00
  0.331900D+01  0.346129D+00
  0.905900D+00  0.393780D-01
  0.364300D+00 -0.898300D-02
  0.128500D+00  0.238500D-02
   s    10 1.00
  0.823600D+04 -0.113000D-03
  0.123500D+04 -0.878000D-03
  0.280800D+03 -0.454000D-02
  0.792700D+02 -0.181330D-01
  0.255900D+02 -0.557600D-01
  0.899700D+01 -0.126895D+00
  0.331900D+01 -0.170352D+00
  0.905900D+00  0.140382D+00
  0.364300D+00  0.598684D+00
  0.128500D+00  0.395389D+00
   s     1 1.00
  0.905900D+00  0.100000D+01
   s     1 1.00
  0.364300D+00  0.100000D+01
   p     5 1.00
  0.187100D+02  0.140310D-01
  0.413300D+01  0.868660D-01
  0.120000D+01  0.290216D+00
  0.382700D+00  0.501008D+00
  0.120900D+00  0.343406D+00
   p     1 1.00
  0.382700D+00  0.100000D+01
   p     1 1.00
  0.120900D+00  0.100000D+01
   d     1 1.00
  0.109700D+01  0.100000D+01
   d     1 1.00
  0.318000D+00  0.100000D+01
   f     1 1.00
  0.761000D+00  0.100000D+01
  
  3  0
   s    10 1.00
  0.823600D+04  0.531000D-03
  0.123500D+04  0.410800D-02
  0.280800D+03  0.210870D-01
  0.792700D+02  0.818530D-01
  0.255900D+02  0.234817D+00
  0.899700D+01  0.434401D+00
  0.331900D+01  0.346129D+00
  0.905900D+00  0.393780D-01
  0.364300D+00 -0.898300D-02
  0.128500D+00  0.238500D-02
   s    10 1.00
  0.823600D+04 -0.113000D-03
  0.123500D+04 -0.878000D-03
  0.280800D+03 -0.454000D-02
  0.792700D+02 -0.181330D-01
  0.255900D+02 -0.557600D-01
  0.899700D+01 -0.126895D+00
  0.331900D+01 -0.170352D+00
  0.905900D+00  0.140382D+00
  0.364300D+00  0.598684D+00
  0.128500D+00  0.395389D+00
   s     1 1.00
  0.905900D+00  0.100000D+01
   s     1 1.00
  0.364300D+00  0.100000D+01
   p     5 1.00
  0.187100D+02  0.140310D-01
  0.413300D+01  0.868660D-01
  0.120000D+01  0.290216D+00
  0.382700D+00  0.501008D+00
  0.120900D+00  0.343406D+00
   p     1 1.00
  0.382700D+00  0.100000D+01
   p     1 1.00
  0.120900D+00  0.100000D+01
   d     1 1.00
  0.109700D+01  0.100000D+01
   d     1 1.00
  0.318000D+00  0.100000D+01
   f     1 1.00
  0.761000D+00  0.100000D+01
  
  4  0
   s    10 1.00
  0.823600D+04  0.531000D-03
  0.123500D+04  0.410800D-02
  0.280800D+03  0.210870D-01
  0.792700D+02  0.818530D-01
  0.255900D+02  0.234817D+00
  0.899700D+01  0.434401D+00
  0.331900D+01  0.346129D+00
  0.905900D+00  0.393780D-01
  0.364300D+00 -0.898300D-02
  0.128500D+00  0.238500D-02
   s    10 1.00
  0.823600D+04 -0.113000D-03
  0.123500D+04 -0.878000D-03
  0.280800D+03 -0.454000D-02
  0.792700D+02 -0.181330D-01
  0.255900D+02 -0.557600D-01
  0.899700D+01 -0.126895D+00
  0.331900D+01 -0.170352D+00
  0.905900D+00  0.140382D+00
  0.364300D+00  0.598684D+00
  0.128500D+00  0.395389D+00
   s     1 1.00
  0.905900D+00  0.100000D+01
   s     1 1.00
  0.364300D+00  0.100000D+01
   p     5 1.00
  0.187100D+02  0.140310D-01
  0.413300D+01  0.868660D-01
  0.120000D+01  0.290216D+00
  0.382700D+00  0.501008D+00
  0.120900D+00  0.343406D+00
   p     1 1.00
  0.382700D+00  0.100000D+01
   p     1 1.00
  0.120900D+00  0.100000D+01
   d     1 1.00
  0.109700D+01  0.100000D+01
   d     1 1.00
  0.318000D+00  0.100000D+01
   f     1 1.00
  0.761000D+00  0.100000D+01
  
  5  0
   s    10 1.00
  0.823600D+04  0.531000D-03
  0.123500D+04  0.410800D-02
  0.280800D+03  0.210870D-01
  0.792700D+02  0.818530D-01
  0.255900D+02  0.234817D+00
  0.899700D+01  0.434401D+00
  0.331900D+01  0.346129D+00
  0.905900D+00  0.393780D-01
  0.364300D+00 -0.898300D-02
  0.128500D+00  0.238500D-02
   s    10 1.00
  0.823600D+04 -0.113000D-03
  0.123500D+04 -0.878000D-03
  0.280800D+03 -0.454000D-02
  0.792700D+02 -0.181330D-01
  0.255900D+02 -0.557600D-01
  0.899700D+01 -0.126895D+00
  0.331900D+01 -0.170352D+00
  0.905900D+00  0.140382D+00
  0.364300D+00  0.598684D+00
  0.128500D+00  0.395389D+00
   s     1 1.00
  0.905900D+00  0.100000D+01
   s     1 1.00
  0.364300D+00  0.100000D+01
   p     5 1.00
  0.187100D+02  0.140310D-01
  0.413300D+01  0.868660D-01
  0.120000D+01  0.290216D+00
  0.382700D+00  0.501008D+00
  0.120900D+00  0.343406D+00
   p     1 1.00
  0.382700D+00  0.100000D+01
   p     1 1.00
  0.120900D+00  0.100000D+01
   d     1 1.00
  0.109700D+01  0.100000D+01
   d     1 1.00
  0.318000D+00  0.100000D+01
   f     1 1.00
  0.761000D+00  0.100000D+01
  
  6  0
   s    10 1.00
  0.823600D+04  0.531000D-03
  0.123500D+04  0.410800D-02
  0.280800D+03  0.210870D-01
  0.792700D+02  0.818530D-01
  0.255900D+02  0.234817D+00
  0.899700D+01  0.434401D+00
  0.331900D+01  0.346129D+00
  0.905900D+00  0.393780D-01
  0.364300D+00 -0.898300D-02
  0.128500D+00  0.238500D-02
   s    10 1.00
  0.823600D+04 -0.113000D-03
  0.123500D+04 -0.878000D-03
  0.280800D+03 -0.454000D-02
  0.792700D+02 -0.181330D-01
  0.255900D+02 -0.557600D-01
  0.899700D+01 -0.126895D+00
  0.331900D+01 -0.170352D+00
  0.905900D+00  0.140382D+00
  0.364300D+00  0.598684D+00
  0.128500D+00  0.395389D+00
   s     1 1.00
  0.905900D+00  0.100000D+01
   s     1 1.00
  0.364300D+00  0.100000D+01
   p     5 1.00
  0.187100D+02  0.140310D-01
  0.413300D+01  0.868660D-01
  0.120000D+01  0.290216D+00
  0.382700D+00  0.501008D+00
  0.120900D+00  0.343406D+00
   p     1 1.00
  0.382700D+00  0.100000D+01
   p     1 1.00
  0.120900D+00  0.100000D+01
   d     1 1.00
  0.109700D+01  0.100000D+01
   d     1 1.00
  0.318000D+00  0.100000D+01
   f     1 1.00
  0.761000D+00  0.100000D+01
  
  7  0
   s    10 1.00
  0.823600D+04  0.531000D-03
  0.123500D+04  0.410800D-02
  0.280800D+03  0.210870D-01
  0.792700D+02  0.818530D-01
  0.255900D+02  0.234817D+00
  0.899700D+01  0.434401D+00
  0.331900D+01  0.346129D+00
  0.905900D+00  0.393780D-01
  0.364300D+00 -0.898300D-02
  0.128500D+00  0.238500D-02
   s    10 1.00
  0.823600D+04 -0.113000D-03
  0.123500D+04 -0.878000D-03
  0.280800D+03 -0.454000D-02
  0.792700D+02 -0.181330D-01
  0.255900D+02 -0.557600D-01
  0.899700D+01 -0.126895D+00
  0.331900D+01 -0.170352D+00
  0.905900D+00  0.140382D+00
  0.364300D+00  0.598684D+00
  0.128500D+00  0.395389D+00
   s     1 1.00
  0.905900D+00  0.100000D+01
   s     1 1.00
  0.364300D+00  0.100000D+01
   p     5 1.00
  0.187100D+02  0.140310D-01
  0.413300D+01  0.868660D-01
  0.120000D+01  0.290216D+00
  0.382700D+00  0.501008D+00
  0.120900D+00  0.343406D+00
   p     1 1.00
  0.382700D+00  0.100000D+01
   p     1 1.00
  0.120900D+00  0.100000D+01
   d     1 1.00
  0.109700D+01  0.100000D+01
   d     1 1.00
  0.318000D+00  0.100000D+01
   f     1 1.00
  0.761000D+00  0.100000D+01
  
  8  0
   s     4 1.00
  0.130100D+02  0.196850D-01
  0.196200D+01  0.137977D+00
  0.444600D+00  0.478148D+00
  0.122000D+00  0.501240D+00
   s     1 1.00
  0.122000D+00  0.100000D+01
   p     1 1.00
  0.727000D+00  0.100000D+01
  
  9  0
   s     4 1.00
  0.130100D+02  0.196850D-01
  0.196200D+01  0.137977D+00
  0.444600D+00  0.478148D+00
  0.122000D+00  0.501240D+00
   s     1 1.00
  0.122000D+00  0.100000D+01
   p     1 1.00
  0.727000D+00  0.100000D+01
  
 10  0
   s     4 1.00
  0.130100D+02  0.196850D-01
  0.196200D+01  0.137977D+00
  0.444600D+00  0.478148D+00
  0.122000D+00  0.501240D+00
   s     1 1.00
  0.122000D+00  0.100000D+01
   p     1 1.00
  0.727000D+00  0.100000D+01
  
 11  0
   s     4 1.00
  0.130100D+02  0.196850D-01
  0.196200D+01  0.137977D+00
  0.444600D+00  0.478148D+00
  0.122000D+00  0.501240D+00
   s     1 1.00
  0.122000D+00  0.100000D+01
   p     1 1.00
  0.727000D+00  0.100000D+01
  
 12  0
   s     4 1.00
  0.130100D+02  0.196850D-01
  0.196200D+01  0.137977D+00
  0.444600D+00  0.478148D+00
  0.122000D+00  0.501240D+00
   s     1 1.00
  0.122000D+00  0.100000D+01
   p     1 1.00
  0.727000D+00  0.100000D+01
  
 13  0
   s     4 1.00
  0.130100D+02  0.196850D-01
  0.196200D+01  0.137977D+00
  0.444600D+00  0.478148D+00
  0.122000D+00  0.501240D+00
   s     1 1.00
  0.122000D+00  0.100000D+01
   p     1 1.00
  0.727000D+00  0.100000D+01
  
 14  0
   s     4 1.00
  0.130100D+02  0.196850D-01
  0.196200D+01  0.137977D+00
  0.444600D+00  0.478148D+00
  0.122000D+00  0.501240D+00
   s     1 1.00
  0.122000D+00  0.100000D+01
   p     1 1.00
  0.727000D+00  0.100000D+01
  
[MO]
 Sym= __1_A__
 Ene=  0.000000000000000E+000
 Spin= Alpha
 Occup=    2.00000000000000     
                     1  1.464121326924578E-004
                     2  0.998136475093471     
                     3 -6.324888540030268E-003
                     4  1.978858782461353E-003
                     5  7.195665462604570E-003
                     6  7.339388185315057E-003
                     7 -3.596716406300764E-003
                     8  8.732571903732550E-003
                     9 -1.119430983121138E-003
                    10  3.348623526529862E-004
                    11 -9.733474020282678E-004
                    12 -2.420508716916547E-003
                    13  1.990374380398971E-003
                    14 -4.079093069378664E-003
                    15  5.392072840081641E-005
                    16 -6.457284111492641E-005
                    17 -3.616833095409599E-005
                    18  3.378460854377124E-005
                    19  3.210179211635175E-006
                    20  1.013869369872290E-005
                    21  6.329631213568836E-004
                    22 -2.322358628864972E-004
                    23  2.463774043272470E-004
                    24 -2.779505516256039E-004
                    25  1.835123900597968E-005
                    26 -8.997741496919838E-005
                    27  5.531842596695756E-005
                    28  2.263282085300474E-005
                    29  3.342077373729464E-006
                    30 -7.485935319495807E-005
                    31 -8.666184343209334E-006
                    32 -3.117393363801633E-004
                    33  2.345249540357493E-004
                    34  2.758365448393539E-004
                    35 -8.238935047168367E-006
                    36 -2.039380489108226E-003
                    37 -7.478948307611540E-004
                    38 -4.528614454594598E-004
                    39  1.356252787601389E-004
                    40 -1.218909311767265E-004
                    41  1.052084577810123E-003
                    42  4.579370013206075E-003
                    43  5.776962991629165E-004
                    44 -3.460462811124695E-003
                    45 -1.254759337148987E-004
                    46 -1.369289645146050E-005
                    47  1.477065405995828E-005
                    48  1.299914764534040E-004
                    49  3.044628347084508E-005
                    50  5.479371724898999E-004
                    51  8.028976115652720E-004
                    52 -9.267666746639288E-005
                    53 -2.024713161528566E-004
                    54 -2.389744650001525E-004
                    55  5.572977971197507E-005
                    56 -2.990594777419446E-005
                    57 -6.921085807011536E-006
                    58  6.363596294305988E-005
                    59 -3.101773491580468E-006
                    60 -3.896296843320244E-005
                    61 -3.409969985796265E-006
                    62 -8.120081226850931E-004
                    63 -2.555644140184644E-003
                    64 -9.630185773328914E-005
                    65  2.963078733257323E-003
                    66 -3.550928659817785E-004
                    67 -3.524729758231459E-004
                    68 -2.413047485676726E-004
                    69  8.551275618955893E-004
                    70 -4.443034116904620E-005
                    71  7.396076109533965E-004
                    72  1.708246383351128E-003
                    73  1.484649853007329E-004
                    74 -1.572380352184681E-003
                    75 -3.565374513660263E-005
                    76 -5.062036288176988E-005
                    77 -7.753979760141912E-006
                    78  7.483841035645562E-005
                    79  1.104635601596306E-005
                    80  4.962521246102905E-004
                    81  1.263922955264528E-004
                    82 -9.864063818614951E-005
                    83 -7.124114951062289E-005
                    84  5.348044237527695E-006
                    85 -2.594609849091908E-005
                    86 -1.555900497465731E-004
                    87 -2.154971493814936E-006
                    88  1.139441392797269E-005
                    89  2.294711544011295E-005
                    90 -7.492334920084019E-005
                    91 -7.022007824075604E-006
                    92  4.993755321974410E-005
                    93 -1.649223508211984E-004
                    94  3.362699881354673E-004
                    95 -1.398344561298542E-003
                    96  3.032806200879271E-004
                    97 -3.382787776605929E-004
                    98  2.308510709546475E-004
                    99  1.865860984970758E-004
                   100 -7.393544424978270E-006
                   101  5.490510002990975E-004
                   102 -2.393532846960328E-003
                   103 -6.699659702408686E-005
                   104  1.965302351529587E-004
                   105 -4.916572286514218E-005
                   106 -1.003498088488219E-005
                   107  1.036730626077419E-005
                   108  2.965243032728830E-005
                   109  4.141561469205067E-006
                   110 -1.406073010150879E-004
                   111 -1.818379086121644E-004
                   112  4.002644121363440E-005
                   113 -2.404242966427296E-004
                   114  2.516344030036181E-005
                   115 -3.112735659717656E-005
                   116  5.729662248329640E-005
                   117  2.713971130533670E-006
                   118  1.278591311729275E-005
                   119 -1.250417081166340E-005
                   120 -1.589134042497014E-006
                   121 -6.924683749874487E-006
                   122 -3.283526569968613E-004
                   123 -1.053142341422261E-003
                   124  1.223859471497494E-004
                   125  9.475663213253096E-004
                   126 -1.087961133627192E-004
                   127 -4.234838316199139E-005
                   128 -6.222013324548317E-005
                   129  5.646884174057958E-004
                   130 -2.488780017826689E-005
                   131  3.070963352330299E-004
                   132  2.771114653842951E-003
                   133  2.165519730552475E-005
                   134  4.887054847406131E-004
                   135  4.051397044968752E-005
                   136 -5.262132932646276E-006
                   137 -4.205513971615238E-006
                   138 -2.427029905999822E-005
                   139  9.011478784135907E-006
                   140  2.583031985018914E-004
                   141  3.672915252626546E-004
                   142  4.258671891264839E-006
                   143 -4.042863719328010E-004
                   144 -2.873735372156776E-005
                   145 -3.673622945121587E-005
                   146 -2.895303737888373E-005
                   147 -5.403347035793744E-006
                   148 -1.238153634834413E-005
                   149 -4.700020816639889E-006
                   150 -9.127406019752580E-005
                   151  9.657511017079932E-007
                   152 -1.453860943205367E-004
                   153 -3.229999095547368E-004
                   154 -6.450448405652092E-005
                   155  6.075731857342575E-004
                   156 -1.902888484231367E-004
                   157 -1.085369940475955E-005
                   158 -5.084419303215604E-005
                   159 -2.812516397200954E-004
                   160 -2.999334310781621E-005
                   161  2.443440285740430E-004
                   162 -1.144762892192237E-003
                   163 -6.373520811206839E-005
                   164  9.084344926124835E-004
                   165 -2.406604039613014E-005
                   166  8.778741647600990E-006
                   167  8.798590670852214E-007
                   168  2.429119953881738E-005
                   169  7.005757952550814E-006
                   170 -8.666537638374174E-005
                   171  1.593996238296758E-005
                   172  1.352635597974004E-005
                   173  6.114570841501472E-005
                   174  7.923041228864642E-006
                   175 -1.336242897531594E-005
                   176 -1.294997289372529E-006
                   177 -1.287336950606467E-006
                   178 -9.296574175067474E-006
                   179 -6.470886261567888E-007
                   180  8.647525752018476E-006
                   181 -1.063334740186754E-006
                   182 -1.601563110779154E-004
                   183 -4.904479163609324E-004
                   184  4.009600013423912E-005
                   185  2.150592918385857E-004
                   186 -3.142804216185633E-005
                   187  9.388188260275671E-005
                   188 -8.536466037003004E-005
                   189  9.778642089589685E-005
                   190 -2.989391559279495E-005
                   191  4.307701493984452E-004
                   192 -4.757905783760979E-004
                   193 -1.874513435719371E-004
                   194  2.161365668119497E-003
                   195 -1.825050122163119E-006
                   196  5.118814371047495E-006
                   197  7.027698361772234E-007
                   198 -9.271097761164782E-007
                   199  1.687823641248328E-007
                   200 -1.296141195227206E-004
                   201 -3.419768474576277E-004
                   202  1.626931536536829E-005
                   203  6.097834012934828E-005
                   204  3.151136316132932E-005
                   205  2.664950548455223E-006
                   206  5.237529372198690E-006
                   207 -1.688358416794840E-006
                   208  2.436452051913122E-005
                   209 -2.070389854457178E-006
                   210 -4.208300428758228E-006
                   211 -2.713330542129260E-006
                   212 -3.472769260312187E-004
                   213 -6.020906065597477E-004
                   214  1.067116015719234E-004
                   215  2.125502531242485E-004
                   216 -4.914501215047126E-005
                   217  8.938007402357771E-004
                   218 -1.070665696288372E-003
                   219  1.391620397979618E-004
                   220 -6.002580461989972E-005
                   221 -2.893667288320642E-004
                   222 -2.773620098945166E-004
                   223 -3.287441208368069E-004
                   224 -1.023893244789914E-004
                   225 -7.507269351009651E-006
                   226  5.639325545546504E-005
                   227 -1.450413729886832E-004
                   228 -5.803290813401784E-004
                   229 -2.396583667247653E-005
                   230  7.923402927674056E-006
                   231 -5.928176511947287E-005
                   232  1.596041544271245E-004
                   233 -6.993829979514051E-004
                   234 -2.161116532960544E-006
                   235 -1.411569865943230E-006
                   236  1.239612787142729E-005
                   237 -1.155139889037665E-004
                   238 -2.378256583252702E-004
                   239  1.732900806693759E-005
                   240 -2.269624658393563E-006
                   241  2.392694436005475E-005
                   242 -5.468274443370519E-005
                   243  1.388762493866366E-004
                   244  3.155145640490037E-005
                   245  3.518978665758982E-006
                   246  1.746560640362970E-006
 Sym= __2_A__
 Ene=  0.000000000000000E+000
 Spin= Alpha
 Occup=    2.00000000000000     
                     1  8.113391959980763E-007
                     2 -9.558942456675276E-005
                     3  8.195178644649131E-004
                     4 -1.915284640649743E-005
                     5  1.188625552350065E-003
                     6  1.313599177133568E-003
                     7 -2.015118739959472E-004
                     8  6.672674755242038E-005
                     9 -1.555331321647453E-004
                    10  9.756991942987514E-005
                    11 -6.856799952794017E-005
                    12  2.008376027439765E-004
                    13  1.396616253779238E-004
                    14 -5.300594251099961E-005
                    15 -5.268985075098420E-005
                    16  2.099783894345779E-005
                    17 -2.917192980494837E-006
                    18  4.761176750982240E-005
                    19 -5.671836065721372E-007
                    20  6.129071942011271E-005
                    21 -6.288601145960987E-005
                    22  1.163201709102398E-005
                    23  1.157789989740667E-004
                    24 -4.583683992936107E-005
                    25 -4.539425418046034E-005
                    26  1.252267519807880E-004
                    27  2.039544716435778E-005
                    28 -4.282007862883264E-005
                    29 -1.177717314889174E-005
                    30  1.185352974393331E-004
                    31  2.454535942296211E-005
                    32   1.00085291695639     
                    33  8.528420879882467E-003
                    34  2.859143621784641E-003
                    35 -8.426990808195181E-003
                    36 -1.583656475342371E-003
                    37  1.600773276979227E-004
                    38  1.264825383338596E-004
                    39  9.417280737483350E-004
                    40 -6.879005315905817E-005
                    41 -3.185563479498196E-004
                    42  2.626976734523318E-003
                    43 -9.117377194588042E-005
                    44  9.830583548422689E-005
                    45  3.140454651579208E-004
                    46  6.226969810840366E-006
                    47 -7.253393332067334E-005
                    48  3.314216533387066E-004
                    49  4.343986960156294E-006
                    50 -9.694158582663454E-004
                    51 -2.860706635533475E-004
                    52  1.754956853417322E-004
                    53 -1.591426645385350E-004
                    54  1.932124312803693E-005
                    55 -1.871166811524559E-005
                    56  2.612094038561929E-004
                    57 -6.098162146619445E-006
                    58 -2.898178497249530E-005
                    59 -2.842053695727755E-005
                    60  6.676342653445610E-005
                    61  6.977920842422141E-006
                    62  1.583100382409207E-002
                    63 -1.571758650922347E-003
                    64 -2.874624110228922E-004
                    65  2.821213533205463E-003
                    66 -2.633964050511758E-004
                    67 -3.152922498427407E-005
                    68  3.946820872969767E-004
                    69  3.762740706836058E-005
                    70 -3.638317794837815E-005
                    71  3.245764508557272E-004
                    72  3.172930034826137E-004
                    73  2.105610095751270E-004
                    74 -1.732189315373808E-003
                    75  5.773287221479984E-006
                    76  2.509215408450298E-005
                    77  2.221619575847862E-006
                    78 -4.506922325157524E-005
                    79 -2.426185966572688E-006
                    80 -5.025063861714019E-004
                    81 -3.761610971433240E-004
                    82  2.065060986989547E-005
                    83  8.007369039734722E-004
                    84  4.176897205669546E-005
                    85  3.611904677242005E-005
                    86  1.050262766980246E-004
                    87  1.731328104357946E-005
                    88 -2.616199376489400E-005
                    89 -2.262157158464283E-005
                    90 -2.564411328877747E-005
                    91  3.757625738475696E-006
                    92  1.815401942579746E-002
                    93 -1.650478689491077E-003
                    94 -3.362522033181693E-004
                    95  3.316182421494575E-003
                    96 -2.709453617348038E-004
                    97  3.728700471554704E-005
                    98 -3.680324048740281E-004
                    99 -9.430541239461012E-005
                   100  7.489684891375774E-005
                   101 -7.340443491672663E-004
                   102  2.652551485203191E-004
                   103 -1.218683287390890E-004
                   104  1.571978971229812E-003
                   105  9.557397969959716E-006
                   106 -5.593177146939105E-006
                   107  1.895701658845308E-006
                   108 -2.702468461727914E-005
                   109 -4.352133403436075E-007
                   110 -2.161940729749053E-004
                   111  4.904467897094147E-004
                   112 -3.698459959750904E-005
                   113  6.319746451331468E-004
                   114 -4.046706081623727E-005
                   115 -4.743054253328393E-005
                   116  8.868943873254947E-005
                   117 -9.620503089601141E-006
                   118  1.973899395959750E-005
                   119 -1.171680036635229E-005
                   120 -3.028220977800435E-005
                   121 -7.245180582443827E-007
                   122 -7.554527071093455E-005
                   123 -7.535064763387884E-004
                   124  2.429276479388704E-004
                   125 -3.538016984126843E-004
                   126 -1.093771490363859E-004
                   127  6.006877481226718E-006
                   128 -5.423434058973237E-005
                   129  6.197460358795776E-004
                   130 -4.135468996346404E-006
                   131  6.415827216460623E-005
                   132  4.631419558780330E-004
                   133 -4.632327641499642E-005
                   134  4.012833149794664E-004
                   135  1.388911090623678E-006
                   136  3.683391982927460E-005
                   137  3.518941514542434E-006
                   138 -3.799838217953030E-005
                   139 -4.680927065242267E-006
                   140  1.908110406182160E-004
                   141 -2.784634075134742E-004
                   142 -1.175697071361510E-005
                   143 -2.312826034029522E-004
                   144  2.587217821237753E-005
                   145 -1.102212795412776E-005
                   146  1.232780736231501E-005
                   147 -2.193988395356025E-006
                   148 -4.217404029951342E-006
                   149 -3.796071465027889E-006
                   150 -2.040036264845693E-005
                   151  1.427744227579651E-006
                   152 -1.274416222678000E-005
                   153 -7.868988506307052E-004
                   154  2.343711946302795E-004
                   155 -1.828833670443525E-004
                   156 -9.376375989300097E-005
                   157 -1.022322550813282E-005
                   158  3.670328332323453E-005
                   159  4.970087435724403E-004
                   160  1.167077581364291E-005