[Molden Format]
[Atoms] AU
  N     1    7     0.0000000000    0.0000000000   -4.3829337700        
  C     2    6     0.0000000000    0.0000000000   -1.7593156300        
  C     3    6     0.0000000000   -2.2737499100   -0.4007373600        
  C     4    6     0.0000000000    2.2737499100   -0.4007373600        
  C     5    6     0.0000000000   -2.2543437700    2.2172435800        
  C     6    6     0.0000000000    2.2543437700    2.2172435800        
  C     7    6     0.0000000000    0.0000000000    3.5500473800        
  H     8    1     0.0000000000   -1.6386575800   -5.3489091500        
  H     9    1     0.0000000000    1.6386575800   -5.3489091500        
  H    10    1     0.0000000000   -4.0402001000   -1.3989337800        
  H    11    1     0.0000000000    4.0402001000   -1.3989337800        
  H    12    1     0.0000000000   -4.0211451400    3.2165913200        
  H    13    1     0.0000000000    4.0211451400    3.2165913200        
  H    14    1     0.0000000000    0.0000000000    5.5775533300        
[5D]
[7F]
[GTO]
  1  0
   s    12 1.00
  0.114200D+05  0.172695D-04
  0.171200D+04  0.134411D-03
  0.389300D+03  0.694561D-03
  0.110000D+03  0.278531D-02
  0.355700D+02  0.863457D-02
  0.125400D+02  0.199805D-01
  0.464400D+01  0.262908D-01
  0.129300D+01 -0.243845D-01
  0.511800D+00 -0.924934D-01
  0.178700D+00 -0.339683D+00
  0.246240D-01  0.345111D+00
  0.112530D-01  0.752750D+00
   s    10 1.00
  0.114200D+05  0.523000D-03
  0.171200D+04  0.404500D-02
  0.389300D+03  0.207750D-01
  0.110000D+03  0.807269D-01
  0.355700D+02  0.233074D+00
  0.125400D+02  0.433501D+00
  0.464400D+01  0.347472D+00
  0.129300D+01  0.412620D-01
  0.511800D+00 -0.850799D-02
  0.178700D+00  0.238400D-02
   s    10 1.00
  0.114200D+05 -0.115000D-03
  0.171200D+04 -0.895000D-03
  0.389300D+03 -0.462400D-02
  0.110000D+03 -0.185280D-01
  0.355700D+02 -0.573390D-01
  0.125400D+02 -0.132076D+00
  0.464400D+01 -0.172510D+00
  0.129300D+01  0.151814D+00
  0.511800D+00  0.599944D+00
  0.178700D+00  0.387462D+00
   s     1 1.00
  0.129300D+01  0.100000D+01
   s     1 1.00
  0.178700D+00  0.100000D+01
   p     5 1.00
  0.266300D+02  0.146700D-01
  0.594800D+01  0.917640D-01
  0.174200D+01  0.298683D+00
  0.555000D+00  0.498487D+00
  0.172500D+00  0.337023D+00
   p     1 1.00
  0.174200D+01  0.100000D+01
   p     1 1.00
  0.555000D+00  0.100000D+01
   d     1 1.00
  0.165400D+01  0.100000D+01
   d     1 1.00
  0.469000D+00  0.100000D+01
   f     1 1.00
  0.109300D+01  0.100000D+01
  
  2  0
   s    10 1.00
  0.823600D+04  0.531000D-03
  0.123500D+04  0.410800D-02
  0.280800D+03  0.210870D-01
  0.792700D+02  0.818530D-01
  0.255900D+02  0.234817D+00
  0.899700D+01  0.434401D+00
  0.331900D+01  0.346129D+00
  0.905900D+00  0.393780D-01
  0.364300D+00 -0.898300D-02
  0.128500D+00  0.238500D-02
   s    10 1.00
  0.823600D+04 -0.113000D-03
  0.123500D+04 -0.878000D-03
  0.280800D+03 -0.454000D-02
  0.792700D+02 -0.181330D-01
  0.255900D+02 -0.557600D-01
  0.899700D+01 -0.126895D+00
  0.331900D+01 -0.170352D+00
  0.905900D+00  0.140382D+00
  0.364300D+00  0.598684D+00
  0.128500D+00  0.395389D+00
   s     1 1.00
  0.905900D+00  0.100000D+01
   s     1 1.00
  0.364300D+00  0.100000D+01
   p     5 1.00
  0.187100D+02  0.140310D-01
  0.413300D+01  0.868660D-01
  0.120000D+01  0.290216D+00
  0.382700D+00  0.501008D+00
  0.120900D+00  0.343406D+00
   p     1 1.00
  0.382700D+00  0.100000D+01
   p     1 1.00
  0.120900D+00  0.100000D+01
   d     1 1.00
  0.109700D+01  0.100000D+01
   d     1 1.00
  0.318000D+00  0.100000D+01
   f     1 1.00
  0.761000D+00  0.100000D+01
  
  3  0
   s    10 1.00
  0.823600D+04  0.531000D-03
  0.123500D+04  0.410800D-02
  0.280800D+03  0.210870D-01
  0.792700D+02  0.818530D-01
  0.255900D+02  0.234817D+00
  0.899700D+01  0.434401D+00
  0.331900D+01  0.346129D+00
  0.905900D+00  0.393780D-01
  0.364300D+00 -0.898300D-02
  0.128500D+00  0.238500D-02
   s    10 1.00
  0.823600D+04 -0.113000D-03
  0.123500D+04 -0.878000D-03
  0.280800D+03 -0.454000D-02
  0.792700D+02 -0.181330D-01
  0.255900D+02 -0.557600D-01
  0.899700D+01 -0.126895D+00
  0.331900D+01 -0.170352D+00
  0.905900D+00  0.140382D+00
  0.364300D+00  0.598684D+00
  0.128500D+00  0.395389D+00
   s     1 1.00
  0.905900D+00  0.100000D+01
   s     1 1.00
  0.364300D+00  0.100000D+01
   p     5 1.00
  0.187100D+02  0.140310D-01
  0.413300D+01  0.868660D-01
  0.120000D+01  0.290216D+00
  0.382700D+00  0.501008D+00
  0.120900D+00  0.343406D+00
   p     1 1.00
  0.382700D+00  0.100000D+01
   p     1 1.00
  0.120900D+00  0.100000D+01
   d     1 1.00
  0.109700D+01  0.100000D+01
   d     1 1.00
  0.318000D+00  0.100000D+01
   f     1 1.00
  0.761000D+00  0.100000D+01
  
  4  0
   s    10 1.00
  0.823600D+04  0.531000D-03
  0.123500D+04  0.410800D-02
  0.280800D+03  0.210870D-01
  0.792700D+02  0.818530D-01
  0.255900D+02  0.234817D+00
  0.899700D+01  0.434401D+00
  0.331900D+01  0.346129D+00
  0.905900D+00  0.393780D-01
  0.364300D+00 -0.898300D-02
  0.128500D+00  0.238500D-02
   s    10 1.00
  0.823600D+04 -0.113000D-03
  0.123500D+04 -0.878000D-03
  0.280800D+03 -0.454000D-02
  0.792700D+02 -0.181330D-01
  0.255900D+02 -0.557600D-01
  0.899700D+01 -0.126895D+00
  0.331900D+01 -0.170352D+00
  0.905900D+00  0.140382D+00
  0.364300D+00  0.598684D+00
  0.128500D+00  0.395389D+00
   s     1 1.00
  0.905900D+00  0.100000D+01
   s     1 1.00
  0.364300D+00  0.100000D+01
   p     5 1.00
  0.187100D+02  0.140310D-01
  0.413300D+01  0.868660D-01
  0.120000D+01  0.290216D+00
  0.382700D+00  0.501008D+00
  0.120900D+00  0.343406D+00
   p     1 1.00
  0.382700D+00  0.100000D+01
   p     1 1.00
  0.120900D+00  0.100000D+01
   d     1 1.00
  0.109700D+01  0.100000D+01
   d     1 1.00
  0.318000D+00  0.100000D+01
   f     1 1.00
  0.761000D+00  0.100000D+01
  
  5  0
   s    10 1.00
  0.823600D+04  0.531000D-03
  0.123500D+04  0.410800D-02
  0.280800D+03  0.210870D-01
  0.792700D+02  0.818530D-01
  0.255900D+02  0.234817D+00
  0.899700D+01  0.434401D+00
  0.331900D+01  0.346129D+00
  0.905900D+00  0.393780D-01
  0.364300D+00 -0.898300D-02
  0.128500D+00  0.238500D-02
   s    10 1.00
  0.823600D+04 -0.113000D-03
  0.123500D+04 -0.878000D-03
  0.280800D+03 -0.454000D-02
  0.792700D+02 -0.181330D-01
  0.255900D+02 -0.557600D-01
  0.899700D+01 -0.126895D+00
  0.331900D+01 -0.170352D+00
  0.905900D+00  0.140382D+00
  0.364300D+00  0.598684D+00
  0.128500D+00  0.395389D+00
   s     1 1.00
  0.905900D+00  0.100000D+01
   s     1 1.00
  0.364300D+00  0.100000D+01
   p     5 1.00
  0.187100D+02  0.140310D-01
  0.413300D+01  0.868660D-01
  0.120000D+01  0.290216D+00
  0.382700D+00  0.501008D+00
  0.120900D+00  0.343406D+00
   p     1 1.00
  0.382700D+00  0.100000D+01
   p     1 1.00
  0.120900D+00  0.100000D+01
   d     1 1.00
  0.109700D+01  0.100000D+01
   d     1 1.00
  0.318000D+00  0.100000D+01
   f     1 1.00
  0.761000D+00  0.100000D+01
  
  6  0
   s    10 1.00
  0.823600D+04  0.531000D-03
  0.123500D+04  0.410800D-02
  0.280800D+03  0.210870D-01
  0.792700D+02  0.818530D-01
  0.255900D+02  0.234817D+00
  0.899700D+01  0.434401D+00
  0.331900D+01  0.346129D+00
  0.905900D+00  0.393780D-01
  0.364300D+00 -0.898300D-02
  0.128500D+00  0.238500D-02
   s    10 1.00
  0.823600D+04 -0.113000D-03
  0.123500D+04 -0.878000D-03
  0.280800D+03 -0.454000D-02
  0.792700D+02 -0.181330D-01
  0.255900D+02 -0.557600D-01
  0.899700D+01 -0.126895D+00
  0.331900D+01 -0.170352D+00
  0.905900D+00  0.140382D+00
  0.364300D+00  0.598684D+00
  0.128500D+00  0.395389D+00
   s     1 1.00
  0.905900D+00  0.100000D+01
   s     1 1.00
  0.364300D+00  0.100000D+01
   p     5 1.00
  0.187100D+02  0.140310D-01
  0.413300D+01  0.868660D-01
  0.120000D+01  0.290216D+00
  0.382700D+00  0.501008D+00
  0.120900D+00  0.343406D+00
   p     1 1.00
  0.382700D+00  0.100000D+01
   p     1 1.00
  0.120900D+00  0.100000D+01
   d     1 1.00
  0.109700D+01  0.100000D+01
   d     1 1.00
  0.318000D+00  0.100000D+01
   f     1 1.00
  0.761000D+00  0.100000D+01
  
  7  0
   s    10 1.00
  0.823600D+04  0.531000D-03
  0.123500D+04  0.410800D-02
  0.280800D+03  0.210870D-01
  0.792700D+02  0.818530D-01
  0.255900D+02  0.234817D+00
  0.899700D+01  0.434401D+00
  0.331900D+01  0.346129D+00
  0.905900D+00  0.393780D-01
  0.364300D+00 -0.898300D-02
  0.128500D+00  0.238500D-02
   s    10 1.00
  0.823600D+04 -0.113000D-03
  0.123500D+04 -0.878000D-03
  0.280800D+03 -0.454000D-02
  0.792700D+02 -0.181330D-01
  0.255900D+02 -0.557600D-01
  0.899700D+01 -0.126895D+00
  0.331900D+01 -0.170352D+00
  0.905900D+00  0.140382D+00
  0.364300D+00  0.598684D+00
  0.128500D+00  0.395389D+00
   s     1 1.00
  0.905900D+00  0.100000D+01
   s     1 1.00
  0.364300D+00  0.100000D+01
   p     5 1.00
  0.187100D+02  0.140310D-01
  0.413300D+01  0.868660D-01
  0.120000D+01  0.290216D+00
  0.382700D+00  0.501008D+00
  0.120900D+00  0.343406D+00
   p     1 1.00
  0.382700D+00  0.100000D+01
   p     1 1.00
  0.120900D+00  0.100000D+01
   d     1 1.00
  0.109700D+01  0.100000D+01
   d     1 1.00
  0.318000D+00  0.100000D+01
   f     1 1.00
  0.761000D+00  0.100000D+01
  
  8  0
   s     4 1.00
  0.130100D+02  0.196850D-01
  0.196200D+01  0.137977D+00
  0.444600D+00  0.478148D+00
  0.122000D+00  0.501240D+00
   s     1 1.00
  0.122000D+00  0.100000D+01
   p     1 1.00
  0.727000D+00  0.100000D+01
  
  9  0
   s     4 1.00
  0.130100D+02  0.196850D-01
  0.196200D+01  0.137977D+00
  0.444600D+00  0.478148D+00
  0.122000D+00  0.501240D+00
   s     1 1.00
  0.122000D+00  0.100000D+01
   p     1 1.00
  0.727000D+00  0.100000D+01
  
 10  0
   s     4 1.00
  0.130100D+02  0.196850D-01
  0.196200D+01  0.137977D+00
  0.444600D+00  0.478148D+00
  0.122000D+00  0.501240D+00
   s     1 1.00
  0.122000D+00  0.100000D+01
   p     1 1.00
  0.727000D+00  0.100000D+01
  
 11  0
   s     4 1.00
  0.130100D+02  0.196850D-01
  0.196200D+01  0.137977D+00
  0.444600D+00  0.478148D+00
  0.122000D+00  0.501240D+00
   s     1 1.00
  0.122000D+00  0.100000D+01
   p     1 1.00
  0.727000D+00  0.100000D+01
  
 12  0
   s     4 1.00
  0.130100D+02  0.196850D-01
  0.196200D+01  0.137977D+00
  0.444600D+00  0.478148D+00
  0.122000D+00  0.501240D+00
   s     1 1.00
  0.122000D+00  0.100000D+01
   p     1 1.00
  0.727000D+00  0.100000D+01
  
 13  0
   s     4 1.00
  0.130100D+02  0.196850D-01
  0.196200D+01  0.137977D+00
  0.444600D+00  0.478148D+00
  0.122000D+00  0.501240D+00
   s     1 1.00
  0.122000D+00  0.100000D+01
   p     1 1.00
  0.727000D+00  0.100000D+01
  
 14  0
   s     4 1.00
  0.130100D+02  0.196850D-01
  0.196200D+01  0.137977D+00
  0.444600D+00  0.478148D+00
  0.122000D+00  0.501240D+00
   s     1 1.00
  0.122000D+00  0.100000D+01
   p     1 1.00
  0.727000D+00  0.100000D+01
  
[MO]
 Sym= __1_A__
 Ene=   1.00000000000000     
 Spin= Alpha
 Occup=    1.00000000000000     
                     1  4.432251531002378E-005
                     2  0.998025607421190     
                     3  7.583747545587470E-003
                     4  2.109714919120791E-003
                     5  1.808010632801995E-003
                     6 -2.856031773690953E-012
                     7  2.082329387801010E-009
                     8  3.797161475326334E-003
                     9  6.585135907259716E-013
                    10  8.611965494629694E-009
                    11 -2.314461842138213E-004
                    12  2.339459315094617E-012
                    13 -4.417607250004722E-008
                    14 -4.302775909677870E-004
                    15  1.502833525562339E-004
                    16  5.129395032276635E-013
                    17  7.461876383446227E-011
                    18 -1.315113156336645E-004
                    19  4.900640743796415E-014
                    20  2.896300563398997E-005
                    21  3.002338623783354E-012
                    22 -4.371946432547710E-009
                    23  5.140312267520048E-004
                    24  3.156576725183542E-012
                    25 -1.484492532729268E-004
                    26 -1.065629583250092E-012
                    27  2.972806020575735E-010
                    28  1.019508457571034E-004
                    29 -7.208065488932114E-013
                    30 -6.904646166957686E-013
                    31  3.557089186546613E-010
                    32 -2.412321188213642E-004
                    33  2.141853112754494E-003
                    34  1.384501519212891E-005
                    35 -6.994562103922209E-005
                    36  2.348608095581523E-012
                    37  2.102726209873139E-008
                    38 -5.601820758832601E-003
                    39  2.091187469274891E-012
                    40 -7.643095895496296E-008
                    41 -2.799942668354354E-004
                    42 -6.351600038085339E-012
                    43 -4.140268120549394E-008
                    44  3.809418950058862E-003
                    45  3.343492115243247E-004
                    46  3.446160303859852E-012
                    47  5.873006770783928E-009
                    48  1.184281002268957E-004
                    49 -1.023754752966560E-012
                    50  3.154225855271701E-004
                    51 -1.277704448986061E-013
                    52 -1.155983641357260E-007
                    53 -2.766981326617306E-004
                    54  5.880882040319564E-012
                    55 -5.374912263881192E-005
                    56 -2.995241458555861E-012
                    57 -1.262192509904841E-009
                    58  8.542466257666250E-005
                    59  1.358082224588346E-012
                    60  5.071559182389315E-012
                    61  2.237620778293815E-009
                    62 -1.974803738639240E-004
                    63 -1.506048174416045E-003
                    64  2.219242337676019E-005
                    65  6.395545276163208E-004
                    66  2.451670485792338E-011
                    67 -6.898878929518569E-004
                    68  8.864964812213091E-004
                    69 -2.715586530082104E-011
                    70  5.180009618977416E-005
                    71  4.325056727171359E-004
                    72 -5.487912806632563E-012
                    73 -4.204008461309717E-004
                    74 -2.474508626766940E-004
                    75  8.229884768870793E-005
                    76  1.027349508760018E-012
                    77 -9.683972010314075E-006
                    78  3.084708804238602E-005
                    79  9.584311810682603E-014
                    80 -2.128324722634925E-005
                    81 -1.108030155176008E-011
                    82  6.639779688256008E-005
                    83 -4.187037184883228E-005
                    84  2.699243488013443E-012
                    85 -9.385449040526361E-005
                    86 -3.119225236005252E-012
                    87 -2.486655231740616E-005
                    88  2.235997910649652E-005
                    89  2.807406203815298E-012
                    90 -4.206811301512556E-014
                    91  1.009287209370240E-005
                    92 -1.974656704844953E-004
                    93 -1.505980823098836E-003
                    94  2.230782185669305E-005
                    95  6.392099992295956E-004
                    96  1.264881247523894E-011
                    97  6.899117354267521E-004
                    98  8.865883997767984E-004
                    99 -1.203896133540124E-011
                   100 -5.194417011144661E-005
                   101  4.320003259401134E-004
                   102  3.981292941644179E-012
                   103  4.199979858000405E-004
                   104 -2.474810042656578E-004
                   105  8.227692528356595E-005
                   106  6.623868401117866E-014
                   107  9.695863907248618E-006
                   108  3.084864102806210E-005
                   109 -1.229488349032255E-012
                   110 -2.161836485866468E-005
                   111  3.373668903408934E-012
                   112 -6.645651668822153E-005
                   113 -4.195230837290456E-005
                   114  6.448403033031420E-012
                   115 -9.380498134035693E-005
                   116 -1.926625385464279E-012
                   117  2.485703120976243E-005
                   118  2.236007237519780E-005
                   119 -3.752713734382884E-012
                   120  1.760611951841021E-012
                   121 -1.009143899468414E-005
                   122 -1.264279918775029E-004
                   123  5.875249344270923E-006
                   124  8.565431087959064E-005
                   125  1.861650694981764E-004
                   126 -2.544869391400764E-012
                   127  2.216302951952266E-005
                   128 -7.193189814892280E-004
                   129  6.312533617139959E-012
                   130  6.671307058185180E-005
                   131  3.012100763853448E-004
                   132  6.208762908464467E-012
                   133 -2.041351906653537E-004
                   134  5.981193605884722E-004
                   135 -1.383010578144042E-005
                   136  1.301539928667156E-012
                   137 -5.743361886368709E-007
                   138 -2.486603968169334E-006
                   139  6.069317381630666E-013
                   140 -1.553402779813584E-004
                   141 -1.204427052448025E-011
                   142  1.388792463266317E-004
                   143  2.939383437853992E-005
                   144  1.061126411062724E-012
                   145 -3.797308417923722E-005
                   146  9.242084921092894E-012
                   147  3.026579273558074E-006
                   148 -1.062099927634858E-005
                   149  4.905126111541136E-012
                   150  1.189518569996683E-012
                   151 -3.575591415234022E-006
                   152 -1.267457317073403E-004
                   153  4.750900350343659E-006
                   154  8.535293221063375E-005
                   155  1.880807668369145E-004
                   156 -1.326920390178154E-011
                   157 -2.218820305821670E-005
                   158 -7.192633825843794E-004
                   159  1.539561405528748E-011
                   160 -6.674304392171736E-005
                   161  3.008410120192551E-004
                   162 -1.297793500452376E-012
                   163  2.045653014826975E-004
                   164  5.980918233594865E-004
                   165 -1.379528862236841E-005
                   166  9.175869087805474E-013
                   167  5.786176287333659E-007
                   168 -2.513545941966248E-006
                   169  1.568539740571604E-013
                   170 -1.551856067587424E-004
                   171  5.597477306786528E-012
                   172 -1.389813577891740E-004
                   173  2.940420307810754E-005
                   174 -4.965474689834269E-012
                   175 -3.791185212269571E-005
                   176  1.575953149577481E-012
                   177 -3.010678166930373E-006
                   178 -1.064803473364836E-005
                   179 -2.690417627807132E-012
                   180  1.744691125696701E-012
                   181  3.571504692968520E-006
                   182 -8.716648798945617E-005
                   183 -2.617747779981165E-004
                   184  3.212844736367771E-005
                   185  8.179163478880044E-005
                   186  1.285921295035970E-011
                   187  1.495349748644279E-008
                   188 -7.013273498276471E-007
                   189 -1.235271404897034E-011
                   190 -1.309254181899156E-007
                   191  2.724465098117338E-005
                   192 -2.410598422134294E-012
                   193  5.674237777872422E-008
                   194 -2.191244074281890E-005
                   195  1.954696851393810E-005
                   196  1.183252518605429E-012
                   197  9.261424343250466E-009
                   198  1.008893146786861E-005
                   199  2.482610131183760E-012
                   200  6.334325828192293E-005
                   201  2.184151433003269E-012
                   202  7.237456956470900E-008
                   203  6.826169706383857E-005
                   204 -6.905450647636579E-012
                   205 -3.067208233375770E-006
                   206  4.294919044513796E-012
                   207 -7.286060733703984E-009
                   208 -4.679048499090454E-006
                   209 -2.648897503069936E-013
                   210 -3.023195409190310E-012
                   211  7.063409322605313E-009
                   212  3.833586562201446E-003
                   213 -2.363878765010802E-003
                   214  2.676790639173421E-012
                   215  4.388419521304668E-004
                   216  3.324200417000141E-004
                   217  3.833628139535715E-003
                   218 -2.363895789374856E-003
                   219 -2.786478777418598E-012
                   220 -4.388612874123292E-004
                   221  3.324300077411598E-004
                   222 -5.871992216619370E-004
                   223 -8.600569866111495E-005
                   224  1.169284838588116E-013
                   225 -1.477137900720997E-005
                   226 -4.461169294182052E-005
                   227 -5.872575724806186E-004
                   228 -8.578348216933583E-005
                   229 -2.947906547919319E-012
                   230  1.475689172437788E-005
                   231 -4.463158306705921E-005
                   232 -1.735471123238205E-004
                   233 -3.516520473163319E-004
                   234  1.297393307877158E-012
                   235 -2.986938777197785E-006
                   236 -1.568781388827540E-006
                   237 -1.736337509967807E-004
                   238 -3.517171652415149E-004
                   239 -1.329643527235185E-012
                   240  3.035836744081723E-006
                   241 -1.539504261667931E-006
                   242  9.772035515547166E-005
                   243 -5.965783160301549E-005
                   244 -1.919831619690493E-012
                   245 -6.506772631359173E-009
                   246  9.027708751303472E-006
 Sym= __2_A__
 Ene=   2.00000000000000     
 Spin= Alpha
 Occup=    1.00000000000000     
                     1 -4.502189460991189E-005
                     2 -7.531743959541265E-005
                     3  2.012381449577750E-003
                     4 -6.138012792652587E-007
                     5  1.204773725849072E-003
                     6 -2.619043789152613E-012
                     7  7.175060063253150E-009
                     8  2.598750346513337E-003
                     9  1.572824019545506E-012
                    10 -4.293439185936317E-009
                    11 -1.085290167317547E-004
                    12  9.039215560867815E-012
                    13  3.475223109183947E-009
                    14 -2.319392182881125E-004
                    15  6.957787284052066E-005
                    16 -3.935753057419145E-012
                    17  1.752184468304176E-010
                    18  6.274256133422159E-005
                    19 -1.332008437319835E-012
                    20 -1.920961131504700E-004
                    21  5.441646994706608E-012
                    22  1.759405172445010E-009
                    23 -3.195425620509436E-004
                    24  1.874631454988653E-013
                    25  1.937276249292441E-004
                    26  1.829768908594303E-013
                    27 -2.562820195200165E-009
                    28 -1.210241965053775E-005
                    29  6.926326135781525E-013
                    30  2.911605546623105E-012
                    31  7.077027696719700E-010
                    32   1.00103809675221     
                    33  9.048869099773212E-003
                    34  2.662237157919157E-003
                    35 -7.895773462097123E-003
                    36 -2.195628927624650E-011
                    37 -6.118473936911030E-009
                    38 -3.524572379880052E-003
                    39  3.559017897514824E-012
                    40  8.710304072451238E-010
                    41  1.290650430564188E-003
                    42  9.971571351183530E-012
                    43 -6.886789972627802E-008
                    44  3.952097468405908E-003
                    45  3.107273053657478E-004
                    46  1.721222109037489E-012
                    47 -3.235365442110173E-009
                    48 -4.760625426451922E-004
                    49  2.459470808951453E-012
                    50  4.781548750260239E-004
                    51 -8.106127410452272E-012
                    52  1.484995668873233E-008
                    53  9.628373140489678E-004
                    54  2.798307143700458E-012
                    55  3.130659945009448E-004
                    56 -3.226293470486024E-012
                    57  1.104101771392469E-009
                    58 -2.253394381115782E-004
                    59  1.791070229204527E-012
                    60 -8.417614649455543E-012
                    61  1.606115925109103E-009
                    62  9.605513342133316E-003
                    63 -2.016557031969007E-003
                    64 -2.877139434798446E-004
                    65  3.116051285512273E-003
                    66 -1.290740526689402E-011
                    67  1.904501562518231E-004
                    68 -8.805726264781931E-005
                    69  1.908162931794076E-011
                    70  5.006586973786113E-004
                    71  2.092174415972563E-005
                    72  4.841744178258582E-012
                    73 -1.933891154602933E-003
                    74  1.891034685426462E-004
                    75 -2.133309276920116E-005
                    76 -7.142715186002138E-013
                    77  2.852391308231783E-005
                    78  3.618500918584866E-005
                    79  2.475060626659968E-012
                    80  8.622421714453407E-004
                    81  6.994160877654167E-013
                    82 -4.355738196818566E-004
                    83  3.207358156722656E-006
                    84  6.768260781815549E-012
                    85  5.532962590941285E-005
                    86  2.691558987116150E-012
                    87  2.573779110491494E-005
                    88 -1.121850906965469E-004
                    89 -8.799697187146608E-012
                    90  2.576484520313834E-012
                    91  5.054633281863129E-005
                    92  9.605486460505184E-003
                    93 -2.016641721899938E-003
                    94 -2.877600082416618E-004
                    95  3.116249027254745E-003
                    96  7.296815485150116E-012
                    97 -1.904517514801755E-004
                    98 -8.808298196060089E-005
                    99 -4.024920896824067E-012
                   100 -5.006500761534793E-004
                   101  2.105673929924074E-005
                   102 -8.043487657152060E-012
                   103  1.934032992782082E-003
                   104  1.889495346389636E-004
                   105 -2.131987360117008E-005
                   106 -3.541255233394047E-012
                   107 -2.853040661442285E-005
                   108  3.618350850135838E-005
                   109 -1.614405859853862E-012
                   110  8.623182746112706E-004
                   111 -8.849511165314224E-012
                   112  4.356264279975816E-004
                   113  3.228056806419146E-006
                   114 -7.380184317255714E-012
                   115  5.531373762275739E-005
                   116  1.568759426321105E-012
                   117 -2.573673043308259E-005
                   118 -1.121822880206027E-004
                   119  5.436055172195122E-012
                   120  1.385905006119880E-012
                   121 -5.054533606345248E-005
                   122 -2.050289522838929E-004
                   123 -7.418540117376572E-004
                   124  2.467059795193351E-004
                   125 -2.480681483450383E-004
                   126  1.529751284655120E-011
                   127 -3.634370002424432E-005
                   128 -2.248941919711885E-004
                   129 -1.724660886152072E-011
                   130  2.866429459201932E-005
                   131  5.764493588013212E-004
                   132 -1.377730130056016E-011
                   133  3.447966225270469E-004
                   134  6.350773507468262E-004
                   135 -2.416488921189675E-005
                   136  1.218010125788805E-012
                   137  4.315670171675494E-005
                   138  1.595219783132768E-005
                   139 -3.129982889343933E-012
                   140 -3.184244296325525E-004
                   141 -7.395737785580710E-012
                   142 -2.461213353779463E-004
                   143 -3.399415664207122E-005
                   144 -1.615177819528283E-012
                   145 -6.630016184539631E-006
                   146 -6.453869111690762E-012
                   147 -2.706067705801898E-005
                   148 -2.958881643537976E-005
                   149 -5.569554823916055E-012
                   150 -3.872665761628870E-012
                   151 -5.748064938535250E-006
                   152 -2.047543685455361E-004
                   153 -7.409391850796649E-004
                   154  2.467937533902979E-004
                   155 -2.491186221040351E-004
                   156  3.915510703744274E-012
                   157  3.633181940045353E-005
                   158 -2.248968649807553E-004
                   159 -7.755092909634250E-012
                   160 -2.859494044307115E-005