[Molden Format]
[Atoms] AU
  N     1    7     0.0000000000    0.0000000000   -4.3829337700        
  C     2    6     0.0000000000    0.0000000000   -1.7593156300        
  C     3    6     0.0000000000   -2.2737499100   -0.4007373600        
  C     4    6     0.0000000000    2.2737499100   -0.4007373600        
  C     5    6     0.0000000000   -2.2543437700    2.2172435800        
  C     6    6     0.0000000000    2.2543437700    2.2172435800        
  C     7    6     0.0000000000    0.0000000000    3.5500473800        
  H     8    1     0.0000000000   -1.6386575800   -5.3489091500        
  H     9    1     0.0000000000    1.6386575800   -5.3489091500        
  H    10    1     0.0000000000   -4.0402001000   -1.3989337800        
  H    11    1     0.0000000000    4.0402001000   -1.3989337800        
  H    12    1     0.0000000000   -4.0211451400    3.2165913200        
  H    13    1     0.0000000000    4.0211451400    3.2165913200        
  H    14    1     0.0000000000    0.0000000000    5.5775533300        
[5D]
[7F]
[GTO]
  1  0
   s    12 1.00
  0.114200D+05  0.172695D-04
  0.171200D+04  0.134411D-03
  0.389300D+03  0.694561D-03
  0.110000D+03  0.278531D-02
  0.355700D+02  0.863457D-02
  0.125400D+02  0.199805D-01
  0.464400D+01  0.262908D-01
  0.129300D+01 -0.243845D-01
  0.511800D+00 -0.924934D-01
  0.178700D+00 -0.339683D+00
  0.246240D-01  0.345111D+00
  0.112530D-01  0.752750D+00
   s    10 1.00
  0.114200D+05  0.523000D-03
  0.171200D+04  0.404500D-02
  0.389300D+03  0.207750D-01
  0.110000D+03  0.807269D-01
  0.355700D+02  0.233074D+00
  0.125400D+02  0.433501D+00
  0.464400D+01  0.347472D+00
  0.129300D+01  0.412620D-01
  0.511800D+00 -0.850799D-02
  0.178700D+00  0.238400D-02
   s    10 1.00
  0.114200D+05 -0.115000D-03
  0.171200D+04 -0.895000D-03
  0.389300D+03 -0.462400D-02
  0.110000D+03 -0.185280D-01
  0.355700D+02 -0.573390D-01
  0.125400D+02 -0.132076D+00
  0.464400D+01 -0.172510D+00
  0.129300D+01  0.151814D+00
  0.511800D+00  0.599944D+00
  0.178700D+00  0.387462D+00
   s     1 1.00
  0.129300D+01  0.100000D+01
   s     1 1.00
  0.178700D+00  0.100000D+01
   p     5 1.00
  0.266300D+02  0.146700D-01
  0.594800D+01  0.917640D-01
  0.174200D+01  0.298683D+00
  0.555000D+00  0.498487D+00
  0.172500D+00  0.337023D+00
   p     1 1.00
  0.174200D+01  0.100000D+01
   p     1 1.00
  0.555000D+00  0.100000D+01
   d     1 1.00
  0.165400D+01  0.100000D+01
   d     1 1.00
  0.469000D+00  0.100000D+01
   f     1 1.00
  0.109300D+01  0.100000D+01
  
  2  0
   s    10 1.00
  0.823600D+04  0.531000D-03
  0.123500D+04  0.410800D-02
  0.280800D+03  0.210870D-01
  0.792700D+02  0.818530D-01
  0.255900D+02  0.234817D+00
  0.899700D+01  0.434401D+00
  0.331900D+01  0.346129D+00
  0.905900D+00  0.393780D-01
  0.364300D+00 -0.898300D-02
  0.128500D+00  0.238500D-02
   s    10 1.00
  0.823600D+04 -0.113000D-03
  0.123500D+04 -0.878000D-03
  0.280800D+03 -0.454000D-02
  0.792700D+02 -0.181330D-01
  0.255900D+02 -0.557600D-01
  0.899700D+01 -0.126895D+00
  0.331900D+01 -0.170352D+00
  0.905900D+00  0.140382D+00
  0.364300D+00  0.598684D+00
  0.128500D+00  0.395389D+00
   s     1 1.00
  0.905900D+00  0.100000D+01
   s     1 1.00
  0.364300D+00  0.100000D+01
   p     5 1.00
  0.187100D+02  0.140310D-01
  0.413300D+01  0.868660D-01
  0.120000D+01  0.290216D+00
  0.382700D+00  0.501008D+00
  0.120900D+00  0.343406D+00
   p     1 1.00
  0.382700D+00  0.100000D+01
   p     1 1.00
  0.120900D+00  0.100000D+01
   d     1 1.00
  0.109700D+01  0.100000D+01
   d     1 1.00
  0.318000D+00  0.100000D+01
   f     1 1.00
  0.761000D+00  0.100000D+01
  
  3  0
   s    10 1.00
  0.823600D+04  0.531000D-03
  0.123500D+04  0.410800D-02
  0.280800D+03  0.210870D-01
  0.792700D+02  0.818530D-01
  0.255900D+02  0.234817D+00
  0.899700D+01  0.434401D+00
  0.331900D+01  0.346129D+00
  0.905900D+00  0.393780D-01
  0.364300D+00 -0.898300D-02
  0.128500D+00  0.238500D-02
   s    10 1.00
  0.823600D+04 -0.113000D-03
  0.123500D+04 -0.878000D-03
  0.280800D+03 -0.454000D-02
  0.792700D+02 -0.181330D-01
  0.255900D+02 -0.557600D-01
  0.899700D+01 -0.126895D+00
  0.331900D+01 -0.170352D+00
  0.905900D+00  0.140382D+00
  0.364300D+00  0.598684D+00
  0.128500D+00  0.395389D+00
   s     1 1.00
  0.905900D+00  0.100000D+01
   s     1 1.00
  0.364300D+00  0.100000D+01
   p     5 1.00
  0.187100D+02  0.140310D-01
  0.413300D+01  0.868660D-01
  0.120000D+01  0.290216D+00
  0.382700D+00  0.501008D+00
  0.120900D+00  0.343406D+00
   p     1 1.00
  0.382700D+00  0.100000D+01
   p     1 1.00
  0.120900D+00  0.100000D+01
   d     1 1.00
  0.109700D+01  0.100000D+01
   d     1 1.00
  0.318000D+00  0.100000D+01
   f     1 1.00
  0.761000D+00  0.100000D+01
  
  4  0
   s    10 1.00
  0.823600D+04  0.531000D-03
  0.123500D+04  0.410800D-02
  0.280800D+03  0.210870D-01
  0.792700D+02  0.818530D-01
  0.255900D+02  0.234817D+00
  0.899700D+01  0.434401D+00
  0.331900D+01  0.346129D+00
  0.905900D+00  0.393780D-01
  0.364300D+00 -0.898300D-02
  0.128500D+00  0.238500D-02
   s    10 1.00
  0.823600D+04 -0.113000D-03
  0.123500D+04 -0.878000D-03
  0.280800D+03 -0.454000D-02
  0.792700D+02 -0.181330D-01
  0.255900D+02 -0.557600D-01
  0.899700D+01 -0.126895D+00
  0.331900D+01 -0.170352D+00
  0.905900D+00  0.140382D+00
  0.364300D+00  0.598684D+00
  0.128500D+00  0.395389D+00
   s     1 1.00
  0.905900D+00  0.100000D+01
   s     1 1.00
  0.364300D+00  0.100000D+01
   p     5 1.00
  0.187100D+02  0.140310D-01
  0.413300D+01  0.868660D-01
  0.120000D+01  0.290216D+00
  0.382700D+00  0.501008D+00
  0.120900D+00  0.343406D+00
   p     1 1.00
  0.382700D+00  0.100000D+01
   p     1 1.00
  0.120900D+00  0.100000D+01
   d     1 1.00
  0.109700D+01  0.100000D+01
   d     1 1.00
  0.318000D+00  0.100000D+01
   f     1 1.00
  0.761000D+00  0.100000D+01
  
  5  0
   s    10 1.00
  0.823600D+04  0.531000D-03
  0.123500D+04  0.410800D-02
  0.280800D+03  0.210870D-01
  0.792700D+02  0.818530D-01
  0.255900D+02  0.234817D+00
  0.899700D+01  0.434401D+00
  0.331900D+01  0.346129D+00
  0.905900D+00  0.393780D-01
  0.364300D+00 -0.898300D-02
  0.128500D+00  0.238500D-02
   s    10 1.00
  0.823600D+04 -0.113000D-03
  0.123500D+04 -0.878000D-03
  0.280800D+03 -0.454000D-02
  0.792700D+02 -0.181330D-01
  0.255900D+02 -0.557600D-01
  0.899700D+01 -0.126895D+00
  0.331900D+01 -0.170352D+00
  0.905900D+00  0.140382D+00
  0.364300D+00  0.598684D+00
  0.128500D+00  0.395389D+00
   s     1 1.00
  0.905900D+00  0.100000D+01
   s     1 1.00
  0.364300D+00  0.100000D+01
   p     5 1.00
  0.187100D+02  0.140310D-01
  0.413300D+01  0.868660D-01
  0.120000D+01  0.290216D+00
  0.382700D+00  0.501008D+00
  0.120900D+00  0.343406D+00
   p     1 1.00
  0.382700D+00  0.100000D+01
   p     1 1.00
  0.120900D+00  0.100000D+01
   d     1 1.00
  0.109700D+01  0.100000D+01
   d     1 1.00
  0.318000D+00  0.100000D+01
   f     1 1.00
  0.761000D+00  0.100000D+01
  
  6  0
   s    10 1.00
  0.823600D+04  0.531000D-03
  0.123500D+04  0.410800D-02
  0.280800D+03  0.210870D-01
  0.792700D+02  0.818530D-01
  0.255900D+02  0.234817D+00
  0.899700D+01  0.434401D+00
  0.331900D+01  0.346129D+00
  0.905900D+00  0.393780D-01
  0.364300D+00 -0.898300D-02
  0.128500D+00  0.238500D-02
   s    10 1.00
  0.823600D+04 -0.113000D-03
  0.123500D+04 -0.878000D-03
  0.280800D+03 -0.454000D-02
  0.792700D+02 -0.181330D-01
  0.255900D+02 -0.557600D-01
  0.899700D+01 -0.126895D+00
  0.331900D+01 -0.170352D+00
  0.905900D+00  0.140382D+00
  0.364300D+00  0.598684D+00
  0.128500D+00  0.395389D+00
   s     1 1.00
  0.905900D+00  0.100000D+01
   s     1 1.00
  0.364300D+00  0.100000D+01
   p     5 1.00
  0.187100D+02  0.140310D-01
  0.413300D+01  0.868660D-01
  0.120000D+01  0.290216D+00
  0.382700D+00  0.501008D+00
  0.120900D+00  0.343406D+00
   p     1 1.00
  0.382700D+00  0.100000D+01
   p     1 1.00
  0.120900D+00  0.100000D+01
   d     1 1.00
  0.109700D+01  0.100000D+01
   d     1 1.00
  0.318000D+00  0.100000D+01
   f     1 1.00
  0.761000D+00  0.100000D+01
  
  7  0
   s    10 1.00
  0.823600D+04  0.531000D-03
  0.123500D+04  0.410800D-02
  0.280800D+03  0.210870D-01
  0.792700D+02  0.818530D-01
  0.255900D+02  0.234817D+00
  0.899700D+01  0.434401D+00
  0.331900D+01  0.346129D+00
  0.905900D+00  0.393780D-01
  0.364300D+00 -0.898300D-02
  0.128500D+00  0.238500D-02
   s    10 1.00
  0.823600D+04 -0.113000D-03
  0.123500D+04 -0.878000D-03
  0.280800D+03 -0.454000D-02
  0.792700D+02 -0.181330D-01
  0.255900D+02 -0.557600D-01
  0.899700D+01 -0.126895D+00
  0.331900D+01 -0.170352D+00
  0.905900D+00  0.140382D+00
  0.364300D+00  0.598684D+00
  0.128500D+00  0.395389D+00
   s     1 1.00
  0.905900D+00  0.100000D+01
   s     1 1.00
  0.364300D+00  0.100000D+01
   p     5 1.00
  0.187100D+02  0.140310D-01
  0.413300D+01  0.868660D-01
  0.120000D+01  0.290216D+00
  0.382700D+00  0.501008D+00
  0.120900D+00  0.343406D+00
   p     1 1.00
  0.382700D+00  0.100000D+01
   p     1 1.00
  0.120900D+00  0.100000D+01
   d     1 1.00
  0.109700D+01  0.100000D+01
   d     1 1.00
  0.318000D+00  0.100000D+01
   f     1 1.00
  0.761000D+00  0.100000D+01
  
  8  0
   s     4 1.00
  0.130100D+02  0.196850D-01
  0.196200D+01  0.137977D+00
  0.444600D+00  0.478148D+00
  0.122000D+00  0.501240D+00
   s     1 1.00
  0.122000D+00  0.100000D+01
   p     1 1.00
  0.727000D+00  0.100000D+01
  
  9  0
   s     4 1.00
  0.130100D+02  0.196850D-01
  0.196200D+01  0.137977D+00
  0.444600D+00  0.478148D+00
  0.122000D+00  0.501240D+00
   s     1 1.00
  0.122000D+00  0.100000D+01
   p     1 1.00
  0.727000D+00  0.100000D+01
  
 10  0
   s     4 1.00
  0.130100D+02  0.196850D-01
  0.196200D+01  0.137977D+00
  0.444600D+00  0.478148D+00
  0.122000D+00  0.501240D+00
   s     1 1.00
  0.122000D+00  0.100000D+01
   p     1 1.00
  0.727000D+00  0.100000D+01
  
 11  0
   s     4 1.00
  0.130100D+02  0.196850D-01
  0.196200D+01  0.137977D+00
  0.444600D+00  0.478148D+00
  0.122000D+00  0.501240D+00
   s     1 1.00
  0.122000D+00  0.100000D+01
   p     1 1.00
  0.727000D+00  0.100000D+01
  
 12  0
   s     4 1.00
  0.130100D+02  0.196850D-01
  0.196200D+01  0.137977D+00
  0.444600D+00  0.478148D+00
  0.122000D+00  0.501240D+00
   s     1 1.00
  0.122000D+00  0.100000D+01
   p     1 1.00
  0.727000D+00  0.100000D+01
  
 13  0
   s     4 1.00
  0.130100D+02  0.196850D-01
  0.196200D+01  0.137977D+00
  0.444600D+00  0.478148D+00
  0.122000D+00  0.501240D+00
   s     1 1.00
  0.122000D+00  0.100000D+01
   p     1 1.00
  0.727000D+00  0.100000D+01
  
 14  0
   s     4 1.00
  0.130100D+02  0.196850D-01
  0.196200D+01  0.137977D+00
  0.444600D+00  0.478148D+00
  0.122000D+00  0.501240D+00
   s     1 1.00
  0.122000D+00  0.100000D+01
   p     1 1.00
  0.727000D+00  0.100000D+01
  
[MO]
 Sym= __1_A__
 Ene=  0.000000000000000E+000
 Spin= Alpha
 Occup=    2.00000000000000     
                     1  4.432251476079222E-005
                     2  0.998025607418889     
                     3  7.583747590354194E-003
                     4  2.109714918225516E-003
                     5  1.808010564627169E-003
                     6 -2.856031644138907E-012
                     7  2.082328881976220E-009
                     8  3.797161487467370E-003
                     9  6.585135476827568E-013
                    10  8.611965552354754E-009
                    11 -2.314461756707941E-004
                    12  2.339459281743000E-012
                    13 -4.417607193014768E-008
                    14 -4.302775889304021E-004
                    15  1.502833537926818E-004
                    16  5.129395043114692E-013
                    17  7.461846312167578E-011
                    18 -1.315113162118224E-004
                    19  4.900640560074500E-014
                    20  2.896301187959157E-005
                    21  3.002338611981893E-012
                    22 -4.371945725681645E-009
                    23  5.140312350974628E-004
                    24  3.156576738485718E-012
                    25 -1.484492527517870E-004
                    26 -1.065629592423223E-012
                    27  2.972815641634073E-010
                    28  1.019508444435194E-004
                    29 -7.208065473597820E-013
                    30 -6.904646293790251E-013
                    31  3.557088808473554E-010
                    32 -2.412326045732076E-004
                    33  2.141854136920123E-003
                    34  1.384500055608403E-005
                    35 -6.994562821388518E-005
                    36  2.348608041933660E-012
                    37  2.102721849131059E-008
                    38 -5.601820277891611E-003
                    39  2.091187548033955E-012
                    40 -7.643095363262825E-008
                    41 -2.799942960439866E-004
                    42 -6.351600074159014E-012
                    43 -4.140265343369433E-008
                    44  3.809418891278990E-003
                    45  3.343492146147656E-004
                    46  3.446160318608289E-012
                    47  5.873004439880651E-009
                    48  1.184280814454411E-004
                    49 -1.023754749891754E-012
                    50  3.154225876018630E-004
                    51 -1.277703989473339E-013
                    52 -1.155983638704092E-007
                    53 -2.766981642236096E-004
                    54  5.880882032133111E-012
                    55 -5.374911004713655E-005
                    56 -2.995241447966923E-012
                    57 -1.262193940904010E-009
                    58  8.542464746623398E-005
                    59  1.358082214486231E-012
                    60  5.071559197085188E-012
                    61  2.237620743296163E-009
                    62 -1.974803919402187E-004
                    63 -1.506048014107838E-003
                    64  2.219242151335710E-005
                    65  6.395545417092885E-004
                    66  2.451670511813351E-011
                    67 -6.898872244264459E-004
                    68  8.864964778866519E-004
                    69 -2.715586541943734E-011
                    70  5.180003357611412E-005
                    71  4.325056962182900E-004
                    72 -5.487912918951071E-012
                    73 -4.204010716203561E-004
                    74 -2.474508007900612E-004
                    75  8.229884504915786E-005
                    76  1.027349493954385E-012
                    77 -9.683990248495399E-006
                    78  3.084707986391766E-005
                    79  9.584312533145898E-014
                    80 -2.128324925020174E-005
                    81 -1.108030157833050E-011
                    82  6.639780251794047E-005
                    83 -4.187039232714258E-005
                    84  2.699243503760152E-012
                    85 -9.385449657245073E-005
                    86 -3.119225280211551E-012
                    87 -2.486655358430048E-005
                    88  2.235998362374570E-005
                    89  2.807406190341509E-012
                    90 -4.206808409847187E-014
                    91  1.009286699207693E-005
                    92 -1.974656885782766E-004
                    93 -1.505980662946818E-003
                    94  2.230781999482921E-005
                    95  6.392100133335997E-004
                    96  1.264881246974045E-011
                    97  6.899110669705853E-004
                    98  8.865883963519225E-004
                    99 -1.203896143062732E-011
                   100 -5.194410749831673E-005
                   101  4.320003494521441E-004
                   102  3.981292913590789E-012
                   103  4.199982112914096E-004
                   104 -2.474809423490904E-004
                   105  8.227692263965009E-005
                   106  6.623868370473040E-014
                   107  9.695882143615313E-006
                   108  3.084863285004974E-005
                   109 -1.229488377766622E-012
                   110 -2.161836688433121E-005
                   111  3.373668853103821E-012
                   112 -6.645652232651023E-005
                   113 -4.195232884968898E-005
                   114  6.448403035237248E-012
                   115 -9.380498750533335E-005
                   116 -1.926625427498159E-012
                   117  2.485703247774880E-005
                   118  2.236007689127206E-005
                   119 -3.752713749748176E-012
                   120  1.760611951067463E-012
                   121 -1.009143389333771E-005
                   122 -1.264280016583346E-004
                   123  5.875156299205173E-006
                   124  8.565431665509847E-005
                   125  1.861651015462431E-004
                   126 -2.544869252988306E-012
                   127  2.216304867161157E-005
                   128 -7.193190727327873E-004
                   129  6.312533661812070E-012
                   130  6.671307180594308E-005
                   131  3.012100967138768E-004
                   132  6.208762868941474E-012
                   133 -2.041352141353836E-004
                   134  5.981194619237981E-004
                   135 -1.383010300334596E-005
                   136  1.301539935242546E-012
                   137 -5.743455096048918E-007
                   138 -2.486602412822362E-006
                   139  6.069317154892559E-013
                   140 -1.553402810519184E-004
                   141 -1.204427057663466E-011
                   142  1.388792358687071E-004
                   143  2.939383616730540E-005
                   144  1.061126463351478E-012
                   145 -3.797308472989978E-005
                   146  9.242084928303912E-012
                   147  3.026583876892125E-006
                   148 -1.062099973733084E-005
                   149  4.905126122571985E-012
                   150  1.189518598442887E-012
                   151 -3.575590808897613E-006
                   152 -1.267457414824342E-004
                   153  4.750807244124728E-006
                   154  8.535293799041261E-005
                   155  1.880807988733303E-004
                   156 -1.326920393831407E-011
                   157 -2.218822217282579E-005
                   158 -7.192634736944841E-004
                   159  1.539561409361738E-011
                   160 -6.674304514562244E-005
                   161  3.008410323375405E-004
                   162 -1.297793500161493E-012
                   163  2.045653249477235E-004
                   164  5.980919246633057E-004
                   165 -1.379528584884493E-005
                   166  9.175869039717396E-013
                   167  5.786269498401934E-007
                   168 -2.513544387562626E-006
                   169  1.568539642530007E-013
                   170 -1.551856098339482E-004
                   171  5.597477235311623E-012
                   172 -1.389813473315512E-004
                   173  2.940420486817764E-005
                   174 -4.965474696323900E-012
                   175 -3.791185267551360E-005
                   176  1.575953166833454E-012
                   177 -3.010682769897456E-006
                   178 -1.064803519425112E-005
                   179 -2.690417617676064E-012
                   180  1.744691110714273E-012
                   181  3.571504086546970E-006
                   182 -8.716650626906778E-005
                   183 -2.617749418278318E-004
                   184  3.212845167258035E-005
                   185  8.179167564179620E-005
                   186  1.285921287877903E-011
                   187  1.495350792092731E-008
                   188 -7.012511244853866E-007
                   189 -1.235271401830474E-011
                   190 -1.309254147996466E-007
                   191  2.724463857944560E-005
                   192 -2.410598427889857E-012
                   193  5.674238232980017E-008
                   194 -2.191241935123487E-005
                   195  1.954697289054291E-005
                   196  1.183252499237161E-012
                   197  9.261424916650591E-009
                   198  1.008893467708591E-005
                   199  2.482610104918632E-012
                   200  6.334327135509525E-005
                   201  2.184151496210776E-012
                   202  7.237456854742835E-008
                   203  6.826170549494383E-005
                   204 -6.905450661058720E-012
                   205 -3.067207009841289E-006
                   206  4.294919038698374E-012
                   207 -7.286061352901206E-009
                   208 -4.679049193295028E-006
                   209 -2.648897849753786E-013
                   210 -3.023195420346122E-012
                   211  7.063408703363190E-009
                   212  3.833586572019382E-003
                   213 -2.363878750196608E-003
                   214  2.676790682302689E-012
                   215  4.388419544512807E-004
                   216  3.324200424275259E-004
                   217  3.833628149357366E-003
                   218 -2.363895774562759E-003
                   219 -2.786478738931964E-012
                   220 -4.388612897330490E-004
                   221  3.324300084687892E-004
                   222 -5.871996787885624E-004
                   223 -8.600561187518248E-005
                   224  1.169284437066344E-013
                   225 -1.477140057030028E-005
                   226 -4.461170844654133E-005
                   227 -5.872580295702260E-004
                   228 -8.578339538798489E-005
                   229 -2.947906542745577E-012
                   230  1.475691328677506E-005
                   231 -4.463159857167673E-005
                   232 -1.735471411556458E-004
                   233 -3.516520741134619E-004
                   234  1.297393243800077E-012
                   235 -2.986943164348161E-006
                   236 -1.568778786531111E-006
                   237 -1.736337797649433E-004
                   238 -3.517171920579454E-004
                   239 -1.329643521251830E-012
                   240  3.035841127532013E-006
                   241 -1.539501660136302E-006
                   242  9.772040021717225E-005
                   243 -5.965787469700557E-005
                   244 -1.919831595963125E-012
                   245 -6.506772128868832E-009
                   246  9.027708701803973E-006
 Sym= __2_A__
 Ene=  0.000000000000000E+000
 Spin= Alpha
 Occup=    2.00000000000000     
                     1 -4.502189637032370E-005
                     2 -7.531698230296744E-005
                     3  2.012381444628014E-003
                     4 -6.137997721099297E-007
                     5  1.204773743366279E-003
                     6 -2.619043789397094E-012
                     7  7.175059423474436E-009
                     8  2.598750351723901E-003
                     9  1.572824008727792E-012
                    10 -4.293437417164901E-009
                    11 -1.085290180103985E-004
                    12  9.039215546427371E-012
                    13  3.475219460564542E-009
                    14 -2.319392148957871E-004
                    15  6.957787241670165E-005
                    16 -3.935753055198377E-012
                    17  1.752197097400067E-010
                    18  6.274256169256766E-005
                    19 -1.332008432284375E-012
                    20 -1.920961159291280E-004
                    21  5.441647003264283E-012
                    22  1.759402283011570E-009
                    23 -3.195425606495326E-004
                    24  1.874631484510765E-013
                    25  1.937276255440738E-004
                    26  1.829768966726625E-013
                    27 -2.562820689859765E-009
                    28 -1.210241926449725E-005
                    29  6.926326079043513E-013
                    30  2.911605544357909E-012
                    31  7.077024929181224E-010
                    32   1.00103809673052     
                    33  9.048868843663557E-003
                    34  2.662237157873032E-003
                    35 -7.895773427129523E-003
                    36 -2.195628918340853E-011
                    37 -6.118351179150502E-009
                    38 -3.524572438141549E-003
                    39  3.559017901386904E-012
                    40  8.710386392498551E-010
                    41  1.290650431023302E-003
                    42  9.971571355377543E-012
                    43 -6.886794924049742E-008
                    44  3.952097438600279E-003
                    45  3.107273124069456E-004
                    46  1.721222104801943E-012
                    47 -3.235361084809517E-009
                    48 -4.760625345543952E-004
                    49  2.459470804608474E-012
                    50  4.781548678337280E-004
                    51 -8.106127402019870E-012
                    52  1.484995111461274E-008
                    53  9.628373187464437E-004
                    54  2.798307150223223E-012
                    55  3.130659915413746E-004
                    56 -3.226293478132044E-012
                    57  1.104101747243578E-009
                    58 -2.253394351698662E-004
                    59  1.791070246898840E-012
                    60 -8.417614640584689E-012
                    61  1.606116483892547E-009
                    62  9.605514554814254E-003
                    63 -2.016557104491950E-003
                    64 -2.877139394772857E-004
                    65  3.116051277856259E-003
                    66 -1.290740519519633E-011
                    67  1.904501983371688E-004
                    68 -8.805696195351336E-005
                    69  1.908162925471719E-011
                    70  5.006586860157333E-004
                    71  2.092171529743917E-005
                    72  4.841744153063299E-012
                    73 -1.933891129137873E-003
                    74  1.891034067427017E-004
                    75 -2.133308515707749E-005
                    76 -7.142715234008897E-013
                    77  2.852391313818961E-005
                    78  3.618501433477320E-005
                    79  2.475060630060063E-012
                    80  8.622421653385511E-004
                    81  6.994160788247999E-013
                    82 -4.355738018937602E-004
                    83  3.207355871923842E-006
                    84  6.768260752475047E-012
                    85  5.532962487019550E-005
                    86  2.691558980152549E-012
                    87  2.573779041896373E-005
                    88 -1.121850925093569E-004
                    89 -8.799697184218119E-012
                    90  2.576484527444997E-012
                    91  5.054633304525200E-005
                    92  9.605487694737323E-003
                    93 -2.016641794159405E-003
                    94 -2.877600041776771E-004
                    95  3.116249019418345E-003
                    96  7.296815373350015E-012
                    97 -1.904517936850245E-004
                    98 -8.808268138221755E-005
                    99 -4.024920840341280E-012
                   100 -5.006500647735996E-004
                   101  2.105671043975627E-005
                   102 -8.043487686225561E-012
                   103  1.934032967310171E-003
                   104  1.889494728636915E-004
                   105 -2.131986598452676E-005
                   106 -3.541255244298979E-012
                   107 -2.853040666374855E-005
                   108  3.618351363999216E-005
                   109 -1.614405854063177E-012
                   110  8.623182684912852E-004
                   111 -8.849511153409250E-012
                   112  4.356264101966021E-004
                   113  3.228054523117654E-006
                   114 -7.380184306937948E-012
                   115  5.531373657917162E-005
                   116  1.568759405304610E-012
                   117 -2.573672974713956E-005
                   118 -1.121822898278048E-004
                   119  5.436055169009164E-012
                   120  1.385905003499908E-012
                   121 -5.054533629100855E-005
                   122 -2.050289389474259E-004
                   123 -7.418539189192693E-004
                   124  2.467059749018884E-004
                   125 -2.480681399594282E-004
                   126  1.529751278927421E-011
                   127 -3.634367357271495E-005
                   128 -2.248944087717361E-004
                   129 -1.724660881991258E-011
                   130  2.866428702812330E-005
                   131  5.764493659782623E-004
                   132 -1.377730123661879E-011
                   133  3.447966116154000E-004
                   134  6.350773702558328E-004
                   135 -2.416488243714619E-005
                   136  1.218010123709260E-012
                   137  4.315670159575612E-005
                   138  1.595219938867215E-005
                   139 -3.129982887895072E-012
                   140 -3.184244191809193E-004
                   141 -7.395737791367891E-012
                   142 -2.461213342098072E-004
                   143 -3.399415527853156E-005
                   144 -1.615177761221579E-012
                   145 -6.630013591129564E-006
                   146 -6.453869104929528E-012
                   147 -2.706067693988987E-005
                   148 -2.958881648291408E-005
                   149 -5.569554811392228E-012
                   150 -3.872665758402988E-012
                   151 -5.748065140133038E-006
                   152 -2.047543549977602E-004
                   153 -7.409390922990889E-004
                   154  2.467937487678543E-004
                   155 -2.491186136804679E-004
                   156  3.915510587553636E-012
                   157  3.633179296269730E-005
                   158 -2.248970817342732E-004
                   159 -7.755092907858282E-012
                   160 -2.859493288509254E-005