[Molden Format]
[Atoms] AU
  N     1    7     0.0000000000   -4.2907334100    0.0000000000        
  C     2    6     0.0000000000   -1.7772236300    0.0000000000        
  C     3    6    -2.3389203600   -0.4111016300    0.0000000000        
  C     4    6     2.3389203600   -0.4111016300    0.0000000000        
  C     5    6    -2.2998668500    2.1639215300    0.0000000000        
  C     6    6     2.2998668500    2.1639215300    0.0000000000        
  C     7    6     0.0000000000    3.4755251800    0.0000000000        
  H     8    1    -2.2516208400   -5.6797945000    0.0000000000        
  H     9    1     2.0907907800   -5.5805758500    0.0000000000        
  H    10    1    -4.0745407300   -1.4447408500    0.0000000000        
  H    11    1     4.0745407300   -1.4447408500    0.0000000000        
  H    12    1    -4.0420632100    3.1963889500    0.0000000000        
  H    13    1     4.0420632100    3.1963889500    0.0000000000        
  H    14    1     0.0000000000    5.5020335600    0.0000000000        
[5D]
[7F]
[GTO]
  1  0
   s    12 1.00
  0.114200D+05  0.172695D-04
  0.171200D+04  0.134411D-03
  0.389300D+03  0.694561D-03
  0.110000D+03  0.278531D-02
  0.355700D+02  0.863457D-02
  0.125400D+02  0.199805D-01
  0.464400D+01  0.262908D-01
  0.129300D+01 -0.243845D-01
  0.511800D+00 -0.924934D-01
  0.178700D+00 -0.339683D+00
  0.246240D-01  0.345111D+00
  0.112530D-01  0.752750D+00
   s    10 1.00
  0.114200D+05  0.523000D-03
  0.171200D+04  0.404500D-02
  0.389300D+03  0.207750D-01
  0.110000D+03  0.807269D-01
  0.355700D+02  0.233074D+00
  0.125400D+02  0.433501D+00
  0.464400D+01  0.347472D+00
  0.129300D+01  0.412620D-01
  0.511800D+00 -0.850799D-02
  0.178700D+00  0.238400D-02
   s    10 1.00
  0.114200D+05 -0.115000D-03
  0.171200D+04 -0.895000D-03
  0.389300D+03 -0.462400D-02
  0.110000D+03 -0.185280D-01
  0.355700D+02 -0.573390D-01
  0.125400D+02 -0.132076D+00
  0.464400D+01 -0.172510D+00
  0.129300D+01  0.151814D+00
  0.511800D+00  0.599944D+00
  0.178700D+00  0.387462D+00
   s     1 1.00
  0.129300D+01  0.100000D+01
   s     1 1.00
  0.178700D+00  0.100000D+01
   p     5 1.00
  0.266300D+02  0.146700D-01
  0.594800D+01  0.917640D-01
  0.174200D+01  0.298683D+00
  0.555000D+00  0.498487D+00
  0.172500D+00  0.337023D+00
   p     1 1.00
  0.174200D+01  0.100000D+01
   p     1 1.00
  0.555000D+00  0.100000D+01
   d     1 1.00
  0.165400D+01  0.100000D+01
   d     1 1.00
  0.469000D+00  0.100000D+01
   f     1 1.00
  0.109300D+01  0.100000D+01
  
  2  0
   s    10 1.00
  0.823600D+04  0.531000D-03
  0.123500D+04  0.410800D-02
  0.280800D+03  0.210870D-01
  0.792700D+02  0.818530D-01
  0.255900D+02  0.234817D+00
  0.899700D+01  0.434401D+00
  0.331900D+01  0.346129D+00
  0.905900D+00  0.393780D-01
  0.364300D+00 -0.898300D-02
  0.128500D+00  0.238500D-02
   s    10 1.00
  0.823600D+04 -0.113000D-03
  0.123500D+04 -0.878000D-03
  0.280800D+03 -0.454000D-02
  0.792700D+02 -0.181330D-01
  0.255900D+02 -0.557600D-01
  0.899700D+01 -0.126895D+00
  0.331900D+01 -0.170352D+00
  0.905900D+00  0.140382D+00
  0.364300D+00  0.598684D+00
  0.128500D+00  0.395389D+00
   s     1 1.00
  0.905900D+00  0.100000D+01
   s     1 1.00
  0.364300D+00  0.100000D+01
   p     5 1.00
  0.187100D+02  0.140310D-01
  0.413300D+01  0.868660D-01
  0.120000D+01  0.290216D+00
  0.382700D+00  0.501008D+00
  0.120900D+00  0.343406D+00
   p     1 1.00
  0.382700D+00  0.100000D+01
   p     1 1.00
  0.120900D+00  0.100000D+01
   d     1 1.00
  0.109700D+01  0.100000D+01
   d     1 1.00
  0.318000D+00  0.100000D+01
   f     1 1.00
  0.761000D+00  0.100000D+01
  
  3  0
   s    10 1.00
  0.823600D+04  0.531000D-03
  0.123500D+04  0.410800D-02
  0.280800D+03  0.210870D-01
  0.792700D+02  0.818530D-01
  0.255900D+02  0.234817D+00
  0.899700D+01  0.434401D+00
  0.331900D+01  0.346129D+00
  0.905900D+00  0.393780D-01
  0.364300D+00 -0.898300D-02
  0.128500D+00  0.238500D-02
   s    10 1.00
  0.823600D+04 -0.113000D-03
  0.123500D+04 -0.878000D-03
  0.280800D+03 -0.454000D-02
  0.792700D+02 -0.181330D-01
  0.255900D+02 -0.557600D-01
  0.899700D+01 -0.126895D+00
  0.331900D+01 -0.170352D+00
  0.905900D+00  0.140382D+00
  0.364300D+00  0.598684D+00
  0.128500D+00  0.395389D+00
   s     1 1.00
  0.905900D+00  0.100000D+01
   s     1 1.00
  0.364300D+00  0.100000D+01
   p     5 1.00
  0.187100D+02  0.140310D-01
  0.413300D+01  0.868660D-01
  0.120000D+01  0.290216D+00
  0.382700D+00  0.501008D+00
  0.120900D+00  0.343406D+00
   p     1 1.00
  0.382700D+00  0.100000D+01
   p     1 1.00
  0.120900D+00  0.100000D+01
   d     1 1.00
  0.109700D+01  0.100000D+01
   d     1 1.00
  0.318000D+00  0.100000D+01
   f     1 1.00
  0.761000D+00  0.100000D+01
  
  4  0
   s    10 1.00
  0.823600D+04  0.531000D-03
  0.123500D+04  0.410800D-02
  0.280800D+03  0.210870D-01
  0.792700D+02  0.818530D-01
  0.255900D+02  0.234817D+00
  0.899700D+01  0.434401D+00
  0.331900D+01  0.346129D+00
  0.905900D+00  0.393780D-01
  0.364300D+00 -0.898300D-02
  0.128500D+00  0.238500D-02
   s    10 1.00
  0.823600D+04 -0.113000D-03
  0.123500D+04 -0.878000D-03
  0.280800D+03 -0.454000D-02
  0.792700D+02 -0.181330D-01
  0.255900D+02 -0.557600D-01
  0.899700D+01 -0.126895D+00
  0.331900D+01 -0.170352D+00
  0.905900D+00  0.140382D+00
  0.364300D+00  0.598684D+00
  0.128500D+00  0.395389D+00
   s     1 1.00
  0.905900D+00  0.100000D+01
   s     1 1.00
  0.364300D+00  0.100000D+01
   p     5 1.00
  0.187100D+02  0.140310D-01
  0.413300D+01  0.868660D-01
  0.120000D+01  0.290216D+00
  0.382700D+00  0.501008D+00
  0.120900D+00  0.343406D+00
   p     1 1.00
  0.382700D+00  0.100000D+01
   p     1 1.00
  0.120900D+00  0.100000D+01
   d     1 1.00
  0.109700D+01  0.100000D+01
   d     1 1.00
  0.318000D+00  0.100000D+01
   f     1 1.00
  0.761000D+00  0.100000D+01
  
  5  0
   s    10 1.00
  0.823600D+04  0.531000D-03
  0.123500D+04  0.410800D-02
  0.280800D+03  0.210870D-01
  0.792700D+02  0.818530D-01
  0.255900D+02  0.234817D+00
  0.899700D+01  0.434401D+00
  0.331900D+01  0.346129D+00
  0.905900D+00  0.393780D-01
  0.364300D+00 -0.898300D-02
  0.128500D+00  0.238500D-02
   s    10 1.00
  0.823600D+04 -0.113000D-03
  0.123500D+04 -0.878000D-03
  0.280800D+03 -0.454000D-02
  0.792700D+02 -0.181330D-01
  0.255900D+02 -0.557600D-01
  0.899700D+01 -0.126895D+00
  0.331900D+01 -0.170352D+00
  0.905900D+00  0.140382D+00
  0.364300D+00  0.598684D+00
  0.128500D+00  0.395389D+00
   s     1 1.00
  0.905900D+00  0.100000D+01
   s     1 1.00
  0.364300D+00  0.100000D+01
   p     5 1.00
  0.187100D+02  0.140310D-01
  0.413300D+01  0.868660D-01
  0.120000D+01  0.290216D+00
  0.382700D+00  0.501008D+00
  0.120900D+00  0.343406D+00
   p     1 1.00
  0.382700D+00  0.100000D+01
   p     1 1.00
  0.120900D+00  0.100000D+01
   d     1 1.00
  0.109700D+01  0.100000D+01
   d     1 1.00
  0.318000D+00  0.100000D+01
   f     1 1.00
  0.761000D+00  0.100000D+01
  
  6  0
   s    10 1.00
  0.823600D+04  0.531000D-03
  0.123500D+04  0.410800D-02
  0.280800D+03  0.210870D-01
  0.792700D+02  0.818530D-01
  0.255900D+02  0.234817D+00
  0.899700D+01  0.434401D+00
  0.331900D+01  0.346129D+00
  0.905900D+00  0.393780D-01
  0.364300D+00 -0.898300D-02
  0.128500D+00  0.238500D-02
   s    10 1.00
  0.823600D+04 -0.113000D-03
  0.123500D+04 -0.878000D-03
  0.280800D+03 -0.454000D-02
  0.792700D+02 -0.181330D-01
  0.255900D+02 -0.557600D-01
  0.899700D+01 -0.126895D+00
  0.331900D+01 -0.170352D+00
  0.905900D+00  0.140382D+00
  0.364300D+00  0.598684D+00
  0.128500D+00  0.395389D+00
   s     1 1.00
  0.905900D+00  0.100000D+01
   s     1 1.00
  0.364300D+00  0.100000D+01
   p     5 1.00
  0.187100D+02  0.140310D-01
  0.413300D+01  0.868660D-01
  0.120000D+01  0.290216D+00
  0.382700D+00  0.501008D+00
  0.120900D+00  0.343406D+00
   p     1 1.00
  0.382700D+00  0.100000D+01
   p     1 1.00
  0.120900D+00  0.100000D+01
   d     1 1.00
  0.109700D+01  0.100000D+01
   d     1 1.00
  0.318000D+00  0.100000D+01
   f     1 1.00
  0.761000D+00  0.100000D+01
  
  7  0
   s    10 1.00
  0.823600D+04  0.531000D-03
  0.123500D+04  0.410800D-02
  0.280800D+03  0.210870D-01
  0.792700D+02  0.818530D-01
  0.255900D+02  0.234817D+00
  0.899700D+01  0.434401D+00
  0.331900D+01  0.346129D+00
  0.905900D+00  0.393780D-01
  0.364300D+00 -0.898300D-02
  0.128500D+00  0.238500D-02
   s    10 1.00
  0.823600D+04 -0.113000D-03
  0.123500D+04 -0.878000D-03
  0.280800D+03 -0.454000D-02
  0.792700D+02 -0.181330D-01
  0.255900D+02 -0.557600D-01
  0.899700D+01 -0.126895D+00
  0.331900D+01 -0.170352D+00
  0.905900D+00  0.140382D+00
  0.364300D+00  0.598684D+00
  0.128500D+00  0.395389D+00
   s     1 1.00
  0.905900D+00  0.100000D+01
   s     1 1.00
  0.364300D+00  0.100000D+01
   p     5 1.00
  0.187100D+02  0.140310D-01
  0.413300D+01  0.868660D-01
  0.120000D+01  0.290216D+00
  0.382700D+00  0.501008D+00
  0.120900D+00  0.343406D+00
   p     1 1.00
  0.382700D+00  0.100000D+01
   p     1 1.00
  0.120900D+00  0.100000D+01
   d     1 1.00
  0.109700D+01  0.100000D+01
   d     1 1.00
  0.318000D+00  0.100000D+01
   f     1 1.00
  0.761000D+00  0.100000D+01
  
  8  0
   s     4 1.00
  0.130100D+02  0.196850D-01
  0.196200D+01  0.137977D+00
  0.444600D+00  0.478148D+00
  0.122000D+00  0.501240D+00
   s     1 1.00
  0.122000D+00  0.100000D+01
   p     1 1.00
  0.727000D+00  0.100000D+01
  
  9  0
   s     4 1.00
  0.130100D+02  0.196850D-01
  0.196200D+01  0.137977D+00
  0.444600D+00  0.478148D+00
  0.122000D+00  0.501240D+00
   s     1 1.00
  0.122000D+00  0.100000D+01
   p     1 1.00
  0.727000D+00  0.100000D+01
  
 10  0
   s     4 1.00
  0.130100D+02  0.196850D-01
  0.196200D+01  0.137977D+00
  0.444600D+00  0.478148D+00
  0.122000D+00  0.501240D+00
   s     1 1.00
  0.122000D+00  0.100000D+01
   p     1 1.00
  0.727000D+00  0.100000D+01
  
 11  0
   s     4 1.00
  0.130100D+02  0.196850D-01
  0.196200D+01  0.137977D+00
  0.444600D+00  0.478148D+00
  0.122000D+00  0.501240D+00
   s     1 1.00
  0.122000D+00  0.100000D+01
   p     1 1.00
  0.727000D+00  0.100000D+01
  
 12  0
   s     4 1.00
  0.130100D+02  0.196850D-01
  0.196200D+01  0.137977D+00
  0.444600D+00  0.478148D+00
  0.122000D+00  0.501240D+00
   s     1 1.00
  0.122000D+00  0.100000D+01
   p     1 1.00
  0.727000D+00  0.100000D+01
  
 13  0
   s     4 1.00
  0.130100D+02  0.196850D-01
  0.196200D+01  0.137977D+00
  0.444600D+00  0.478148D+00
  0.122000D+00  0.501240D+00
   s     1 1.00
  0.122000D+00  0.100000D+01
   p     1 1.00
  0.727000D+00  0.100000D+01
  
 14  0
   s     4 1.00
  0.130100D+02  0.196850D-01
  0.196200D+01  0.137977D+00
  0.444600D+00  0.478148D+00
  0.122000D+00  0.501240D+00
   s     1 1.00
  0.122000D+00  0.100000D+01
   p     1 1.00
  0.727000D+00  0.100000D+01
  
[MO]
 Sym= __1_A'_
 Ene=   1.00000000000000     
 Spin= Alpha
 Occup=    1.00000000000000     
                     1  1.182013128670743E-006
                     2  0.998741081743326     
                     3  1.481165960837741E-003
                     4  1.340952585620949E-003
                     5  4.344073681803604E-003
                     6  1.594586489844557E-003
                     7  6.323446128991533E-003
                     8  0.000000000000000E+000
                     9 -3.585945810459070E-004
                    10 -5.436344115619017E-004
                    11  0.000000000000000E+000
                    12 -1.022080610975423E-003
                    13 -1.837207342844303E-003
                    14  0.000000000000000E+000
                    15 -6.665083220484420E-005
                    16  0.000000000000000E+000
                    17  0.000000000000000E+000
                    18 -2.392271646721156E-004
                    19 -7.017558275044737E-006
                    20  2.447050567784824E-004
                    21  0.000000000000000E+000
                    22  0.000000000000000E+000
                    23 -2.646681279994906E-004
                    24  1.732294674522192E-004
                    25  0.000000000000000E+000
                    26 -1.561536844952768E-006
                    27 -5.360521448415778E-005
                    28  0.000000000000000E+000
                    29  0.000000000000000E+000
                    30  8.966484867719919E-006
                    31 -9.511830836992956E-005
                    32 -2.803416556738275E-004
                    33  1.360139192925208E-003
                    34  2.269124487123461E-004
                    35 -2.697769503603319E-004
                    36 -9.322746771994189E-005
                    37 -4.259503610908106E-003
                    38  0.000000000000000E+000
                    39  2.381842902215859E-004
                    40  6.841398643802624E-005
                    41  0.000000000000000E+000
                    42 -1.000676605500113E-003
                    43  5.223426400244245E-003
                    44  0.000000000000000E+000
                    45 -2.230854799155228E-005
                    46  0.000000000000000E+000
                    47  0.000000000000000E+000
                    48 -2.281804971512304E-004
                    49 -6.177966169061101E-006
                    50 -2.875989860293356E-004
                    51  0.000000000000000E+000
                    52  0.000000000000000E+000
                    53 -1.002973084888092E-005
                    54  3.034375459669540E-004
                    55  0.000000000000000E+000
                    56 -7.669317852217190E-006
                    57 -3.775360236752161E-005
                    58  0.000000000000000E+000
                    59  0.000000000000000E+000
                    60  1.043499479213243E-006
                    61 -1.127038211860649E-004
                    62 -3.889885203625142E-004
                    63 -1.762511888299159E-003
                    64 -1.152627240501606E-005
                    65  1.390812389106045E-003
                    66 -5.504588717377304E-004
                    67  3.989022438243395E-004
                    68  0.000000000000000E+000
                    69  1.935344689309504E-004
                    70  6.392922364021242E-004
                    71  0.000000000000000E+000
                    72 -1.373336758637986E-003
                    73  1.713268700160257E-004
                    74  0.000000000000000E+000
                    75 -3.146184342011289E-005
                    76  0.000000000000000E+000
                    77  0.000000000000000E+000
                    78 -6.794856192423450E-005
                    79 -1.641034134588046E-005
                    80 -7.478703836901813E-005
                    81  0.000000000000000E+000
                    82  0.000000000000000E+000
                    83  1.197834292080691E-005
                    84  4.484993384580875E-005
                    85  0.000000000000000E+000
                    86  1.028486398312651E-005
                    87 -4.154954801641659E-005
                    88  0.000000000000000E+000
                    89  0.000000000000000E+000
                    90 -1.949967578526554E-005
                    91 -1.195900860127385E-004
                    92 -2.227563694984729E-004
                    93 -1.225885088418194E-003
                    94  1.193349811039391E-004
                    95  3.489866895242103E-004
                    96  5.135079706838622E-004
                    97  4.905035066374485E-004
                    98  0.000000000000000E+000
                    99  1.697488887911114E-004
                   100  4.233567671145025E-004
                   101  0.000000000000000E+000
                   102  8.220733152170526E-004
                   103 -7.724927242231958E-004
                   104  0.000000000000000E+000
                   105 -1.582803268884859E-005
                   106  0.000000000000000E+000
                   107  0.000000000000000E+000
                   108 -6.143260509039073E-005
                   109 -4.270632161031042E-006
                   110  5.634843683338639E-005
                   111  0.000000000000000E+000
                   112  0.000000000000000E+000
                   113 -6.402022422934208E-005
                   114 -3.788123034100006E-005
                   115  0.000000000000000E+000
                   116 -1.936676569452256E-005
                   117 -3.656045691212494E-005
                   118  0.000000000000000E+000
                   119  0.000000000000000E+000
                   120  1.920043081202938E-005
                   121 -6.459935695009682E-005
                   122 -2.505711449421587E-004
                   123 -5.489228019409909E-004
                   124  1.353232020071246E-004
                   125  4.012060780710598E-004
                   126 -6.710712672406132E-006
                   127 -4.436628647654870E-004
                   128  0.000000000000000E+000
                   129  1.583635317131811E-004
                   130  4.458079578773264E-004
                   131  0.000000000000000E+000
                   132  4.679519096971055E-005
                   133  1.340562642398291E-003
                   134  0.000000000000000E+000
                   135  7.669590771867848E-006
                   136  0.000000000000000E+000
                   137  0.000000000000000E+000
                   138  3.147800481485072E-005
                   139 -3.030378217659163E-006
                   140  1.621448271748329E-004
                   141  0.000000000000000E+000
                   142  0.000000000000000E+000
                   143  2.522376626251204E-004
                   144  1.749417281893203E-004
                   145  0.000000000000000E+000
                   146 -8.230602841533472E-006
                   147 -4.513875598150391E-005
                   148  0.000000000000000E+000
                   149  0.000000000000000E+000
                   150 -4.564129838103214E-006
                   151 -3.645611692254908E-005
                   152 -2.098304933849271E-004
                   153 -4.182981442777483E-004
                   154  7.604251854800547E-005
                   155  4.064790327274630E-004
                   156 -1.231072507115367E-005
                   157 -4.185197463202359E-004
                   158  0.000000000000000E+000
                   159 -5.682753531082847E-005
                   160  1.971836995103972E-004
                   161  0.000000000000000E+000
                   162  4.124305297376601E-004
                   163  3.440148561016140E-004
                   164  0.000000000000000E+000
                   165  1.751638097379508E-006
                   166  0.000000000000000E+000
                   167  0.000000000000000E+000
                   168  9.481987902553607E-006
                   169  5.130928234717019E-006
                   170  9.714167546818976E-005
                   171  0.000000000000000E+000
                   172  0.000000000000000E+000
                   173  1.009325969629776E-004
                   174 -8.162534612789136E-005
                   175  0.000000000000000E+000
                   176  6.377147867876972E-006
                   177 -2.241160873263524E-005
                   178  0.000000000000000E+000
                   179  0.000000000000000E+000
                   180 -1.354778431642969E-005
                   181 -1.947929575826834E-005
                   182 -1.689166073285375E-004
                   183 -4.843766613662977E-004
                   184  5.278317634762042E-005
                   185  2.502455592045538E-004
                   186 -1.691067291375972E-005
                   187 -5.005645916507257E-005
                   188  0.000000000000000E+000
                   189  8.846398942721442E-005
                   190  5.769800565034226E-005
                   191  0.000000000000000E+000
                   192  5.605527469095374E-004
                   193 -1.167026289994610E-004
                   194  0.000000000000000E+000
                   195 -2.064257353432594E-006
                   196  0.000000000000000E+000
                   197  0.000000000000000E+000
                   198 -1.381793504245175E-005
                   199  2.811750993152387E-006
                   200  3.096938186262334E-005
                   201  0.000000000000000E+000
                   202  0.000000000000000E+000
                   203 -7.908282469647294E-005
                   204 -7.953920913974514E-005
                   205  0.000000000000000E+000
                   206 -2.656844195385212E-006
                   207 -6.664064265632244E-006
                   208  0.000000000000000E+000
                   209  0.000000000000000E+000
                   210  4.518408658612789E-006
                   211 -1.822835375854590E-006
                   212  4.352611711250297E-005
                   213 -1.477181989725459E-004
                   214  2.067065019579289E-004
                   215  1.710805860695154E-004
                   216  0.000000000000000E+000
                   217  8.380010609079142E-005
                   218 -4.422761314298421E-004
                   219 -2.756362374658472E-004
                   220  1.765408586832631E-004
                   221  0.000000000000000E+000
                   222 -3.175794112907969E-004
                   223 -6.058390893937242E-004
                   224  3.896645355251769E-006
                   225 -5.034830174792555E-005
                   226  0.000000000000000E+000
                   227 -2.467984523286642E-004
                   228 -5.181213072187235E-004
                   229 -4.692131604641028E-006
                   230 -2.949581864543475E-005
                   231  0.000000000000000E+000
                   232 -6.830414266444119E-005
                   233 -5.071558895808501E-004
                   234  4.241357503639878E-006
                   235 -2.540549229276769E-006
                   236  0.000000000000000E+000
                   237 -1.118326419951751E-004
                   238 -4.282023115483349E-004
                   239  2.058584302110120E-006
                   240  7.063681861748474E-007
                   241  0.000000000000000E+000
                   242  1.557130188410268E-005
                   243 -6.005351459217581E-005
                   244  6.361764459140248E-008
                   245  1.920590090678949E-005
                   246  0.000000000000000E+000
 Sym= __2_A'_
 Ene=   2.00000000000000     
 Spin= Alpha
 Occup=    1.00000000000000     
                     1 -5.939180898644358E-005
                     2 -3.471861272291378E-004
                     3  3.003623263646840E-003
                     4  1.606127870275788E-004
                     5  1.302293229187081E-003
                     6 -6.880516929660304E-005
                     7  3.066512216842377E-003
                     8  0.000000000000000E+000
                     9 -1.163807278181664E-005
                    10 -1.085628658033158E-004
                    11  0.000000000000000E+000
                    12  2.003626282129670E-005
                    13 -4.219552860176114E-004
                    14  0.000000000000000E+000
                    15  3.405135122978726E-005
                    16  0.000000000000000E+000
                    17  0.000000000000000E+000
                    18 -6.035083999785068E-005
                    19  3.166436293358966E-006
                    20 -1.259748067915142E-004
                    21  0.000000000000000E+000
                    22  0.000000000000000E+000
                    23  1.585614497269195E-004
                    24  2.707832128854708E-006
                    25  0.000000000000000E+000
                    26 -3.306657605812916E-006
                    27  9.313860856104058E-005
                    28  0.000000000000000E+000
                    29  0.000000000000000E+000
                    30 -2.612787756136778E-006
                    31  1.494967793815639E-004
                    32   1.00100834071787     
                    33  9.367938576391593E-003
                    34  2.742145986687247E-003
                    35 -8.063182506970887E-003
                    36 -5.964304521874109E-005
                    37 -3.950448214346364E-003
                    38  0.000000000000000E+000
                    39  5.263859380388445E-005
                    40  6.925645343763215E-004
                    41  0.000000000000000E+000
                    42  2.436094886254174E-005
                    43  4.346373438922455E-003
                    44  0.000000000000000E+000
                    45 -5.850036370682744E-004
                    46  0.000000000000000E+000
                    47  0.000000000000000E+000
                    48 -2.079544359400704E-004
                    49 -9.836606122623054E-007
                    50  5.432534451988044E-004
                    51  0.000000000000000E+000
                    52  0.000000000000000E+000
                    53 -8.869227053779526E-004
                    54  1.947395460142685E-005
                    55  0.000000000000000E+000
                    56 -1.678790305584748E-006
                    57  8.928804446927665E-005
                    58  0.000000000000000E+000
                    59  0.000000000000000E+000
                    60  1.638470581537132E-006
                    61  4.096145168714119E-004
                    62  8.760821087958644E-003
                    63 -2.094505324214750E-003
                    64 -2.839568205395129E-004
                    65  3.048212586852943E-003
                    66 -1.542304885849258E-006
                    67  8.891489909928079E-005
                    68  0.000000000000000E+000
                    69  6.811294912779707E-004
                    70  2.131066672211894E-005
                    71  0.000000000000000E+000
                    72 -2.067167777803623E-003
                    73  8.585027466495349E-005
                    74  0.000000000000000E+000
                    75  2.949893033626572E-005
                    76  0.000000000000000E+000
                    77  0.000000000000000E+000
                    78 -4.981105311956424E-006
                    79  5.996887951269280E-006
                    80 -4.049657181986639E-004
                    81  0.000000000000000E+000
                    82  0.000000000000000E+000
                    83 -6.066456556540982E-004
                    84 -3.767820826528790E-004
                    85  0.000000000000000E+000
                    86  3.387061089786782E-005
                    87 -5.809736090047911E-005
                    88  0.000000000000000E+000
                    89  0.000000000000000E+000
                    90  5.354426169366460E-005
                    91  1.396629744951890E-004
                    92  8.950125882220314E-003
                    93 -2.104126623751045E-003
                    94 -2.769727039923274E-004
                    95  3.021741055131541E-003
                    96  1.237148051623469E-005
                    97  9.481131383038752E-005
                    98  0.000000000000000E+000
                    99 -6.529992323064337E-004
                   100  4.377030286886749E-005
                   101  0.000000000000000E+000
                   102  2.067440036918674E-003
                   103  8.497695961681894E-005
                   104  0.000000000000000E+000
                   105  3.138046338855177E-005
                   106  0.000000000000000E+000
                   107  0.000000000000000E+000
                   108 -6.107756355377002E-006
                   109 -8.564005130688429E-006
                   110 -4.043431123863238E-004
                   111  0.000000000000000E+000
                   112  0.000000000000000E+000
                   113 -6.197049802752750E-004
                   114  3.700085326480873E-004
                   115  0.000000000000000E+000
                   116 -3.396011151895310E-005
                   117 -5.860117046525727E-005
                   118  0.000000000000000E+000
                   119  0.000000000000000E+000
                   120 -5.295678787124544E-005
                   121  1.391312189440775E-004
                   122 -1.870306930075044E-004
                   123 -6.949619068026888E-004
                   124  2.268415008525734E-004
                   125 -1.112203560720286E-004
                   126 -3.679745969940585E-006
                   127 -3.320065973349484E-004
                   128  0.000000000000000E+000
                   129 -5.094658924813540E-005
                   130  5.414578163446530E-004
                   131  0.000000000000000E+000
                   132  3.214455344253838E-004
                   133  7.583162043757752E-004
                   134  0.000000000000000E+000
                   135  1.922871692390235E-005
                   136  0.000000000000000E+000
                   137  0.000000000000000E+000
                   138  3.698326248707124E-006
                   139  5.315256371581641E-005
                   140  1.351709931454756E-004
                   141  0.000000000000000E+000
                   142  0.000000000000000E+000
                   143  2.486780518707760E-004
                   144 -1.902738567807262E-004
                   145  0.000000000000000E+000
                   146  6.667173489476837E-006
                   147 -3.281007261189576E-005
                   148  0.000000000000000E+000
                   149  0.000000000000000E+000
                   150 -4.605433047668439E-005
                   151  2.762893373805375E-005
                   152 -1.728667399291604E-004
                   153 -6.924323952588828E-004
                   154  2.283129440395346E-004
                   155 -1.220709952777390E-004
                   156  3.390481632637861E-006
                   157 -3.346493181386504E-004
                   158  0.000000000000000E+000
                   159  4.559156609297886E-005
                   160  5.527060378332966E-004