[Molden Format]
[Atoms] AU
  N     1    7    -0.1128869000   -4.3598204900    0.0000000000        
  C     2    6     0.0331465600   -1.8110394600    0.0000000000        
  C     3    6    -2.2889565500   -0.4292526100    0.0000000000        
  C     4    6     2.3335564500   -0.3907234000    0.0000000000        
  C     5    6    -2.2785492100    2.1543278900    0.0000000000        
  C     6    6     2.3004388000    2.1862336300    0.0000000000        
  C     7    6     0.0035862500    3.4880417700    0.0000000000        
  H     8    1    -6.3902663900   -8.5707045500    0.0000000000        
  H     9    1     1.6899127000   -5.1121731100    0.0000000000        
  H    10    1    -4.0240040400   -1.4738320500    0.0000000000        
  H    11    1     4.0963084700   -1.3979484800    0.0000000000        
  H    12    1    -4.0310847100    3.1769871600    0.0000000000        
  H    13    1     4.0389530700    3.2330460400    0.0000000000        
  H    14    1    -0.0095293100    5.5163510000    0.0000000000        
[5D]
[7F]
[GTO]
  1  0
   s    12 1.00
  0.114200D+05  0.172695D-04
  0.171200D+04  0.134411D-03
  0.389300D+03  0.694561D-03
  0.110000D+03  0.278531D-02
  0.355700D+02  0.863457D-02
  0.125400D+02  0.199805D-01
  0.464400D+01  0.262908D-01
  0.129300D+01 -0.243845D-01
  0.511800D+00 -0.924934D-01
  0.178700D+00 -0.339683D+00
  0.246240D-01  0.345111D+00
  0.112530D-01  0.752750D+00
   s    10 1.00
  0.114200D+05  0.523000D-03
  0.171200D+04  0.404500D-02
  0.389300D+03  0.207750D-01
  0.110000D+03  0.807269D-01
  0.355700D+02  0.233074D+00
  0.125400D+02  0.433501D+00
  0.464400D+01  0.347472D+00
  0.129300D+01  0.412620D-01
  0.511800D+00 -0.850799D-02
  0.178700D+00  0.238400D-02
   s    10 1.00
  0.114200D+05 -0.115000D-03
  0.171200D+04 -0.895000D-03
  0.389300D+03 -0.462400D-02
  0.110000D+03 -0.185280D-01
  0.355700D+02 -0.573390D-01
  0.125400D+02 -0.132076D+00
  0.464400D+01 -0.172510D+00
  0.129300D+01  0.151814D+00
  0.511800D+00  0.599944D+00
  0.178700D+00  0.387462D+00
   s     1 1.00
  0.129300D+01  0.100000D+01
   s     1 1.00
  0.178700D+00  0.100000D+01
   p     5 1.00
  0.266300D+02  0.146700D-01
  0.594800D+01  0.917640D-01
  0.174200D+01  0.298683D+00
  0.555000D+00  0.498487D+00
  0.172500D+00  0.337023D+00
   p     1 1.00
  0.174200D+01  0.100000D+01
   p     1 1.00
  0.555000D+00  0.100000D+01
   d     1 1.00
  0.165400D+01  0.100000D+01
   d     1 1.00
  0.469000D+00  0.100000D+01
   f     1 1.00
  0.109300D+01  0.100000D+01
  
  2  0
   s    10 1.00
  0.823600D+04  0.531000D-03
  0.123500D+04  0.410800D-02
  0.280800D+03  0.210870D-01
  0.792700D+02  0.818530D-01
  0.255900D+02  0.234817D+00
  0.899700D+01  0.434401D+00
  0.331900D+01  0.346129D+00
  0.905900D+00  0.393780D-01
  0.364300D+00 -0.898300D-02
  0.128500D+00  0.238500D-02
   s    10 1.00
  0.823600D+04 -0.113000D-03
  0.123500D+04 -0.878000D-03
  0.280800D+03 -0.454000D-02
  0.792700D+02 -0.181330D-01
  0.255900D+02 -0.557600D-01
  0.899700D+01 -0.126895D+00
  0.331900D+01 -0.170352D+00
  0.905900D+00  0.140382D+00
  0.364300D+00  0.598684D+00
  0.128500D+00  0.395389D+00
   s     1 1.00
  0.905900D+00  0.100000D+01
   s     1 1.00
  0.364300D+00  0.100000D+01
   p     5 1.00
  0.187100D+02  0.140310D-01
  0.413300D+01  0.868660D-01
  0.120000D+01  0.290216D+00
  0.382700D+00  0.501008D+00
  0.120900D+00  0.343406D+00
   p     1 1.00
  0.382700D+00  0.100000D+01
   p     1 1.00
  0.120900D+00  0.100000D+01
   d     1 1.00
  0.109700D+01  0.100000D+01
   d     1 1.00
  0.318000D+00  0.100000D+01
   f     1 1.00
  0.761000D+00  0.100000D+01
  
  3  0
   s    10 1.00
  0.823600D+04  0.531000D-03
  0.123500D+04  0.410800D-02
  0.280800D+03  0.210870D-01
  0.792700D+02  0.818530D-01
  0.255900D+02  0.234817D+00
  0.899700D+01  0.434401D+00
  0.331900D+01  0.346129D+00
  0.905900D+00  0.393780D-01
  0.364300D+00 -0.898300D-02
  0.128500D+00  0.238500D-02
   s    10 1.00
  0.823600D+04 -0.113000D-03
  0.123500D+04 -0.878000D-03
  0.280800D+03 -0.454000D-02
  0.792700D+02 -0.181330D-01
  0.255900D+02 -0.557600D-01
  0.899700D+01 -0.126895D+00
  0.331900D+01 -0.170352D+00
  0.905900D+00  0.140382D+00
  0.364300D+00  0.598684D+00
  0.128500D+00  0.395389D+00
   s     1 1.00
  0.905900D+00  0.100000D+01
   s     1 1.00
  0.364300D+00  0.100000D+01
   p     5 1.00
  0.187100D+02  0.140310D-01
  0.413300D+01  0.868660D-01
  0.120000D+01  0.290216D+00
  0.382700D+00  0.501008D+00
  0.120900D+00  0.343406D+00
   p     1 1.00
  0.382700D+00  0.100000D+01
   p     1 1.00
  0.120900D+00  0.100000D+01
   d     1 1.00
  0.109700D+01  0.100000D+01
   d     1 1.00
  0.318000D+00  0.100000D+01
   f     1 1.00
  0.761000D+00  0.100000D+01
  
  4  0
   s    10 1.00
  0.823600D+04  0.531000D-03
  0.123500D+04  0.410800D-02
  0.280800D+03  0.210870D-01
  0.792700D+02  0.818530D-01
  0.255900D+02  0.234817D+00
  0.899700D+01  0.434401D+00
  0.331900D+01  0.346129D+00
  0.905900D+00  0.393780D-01
  0.364300D+00 -0.898300D-02
  0.128500D+00  0.238500D-02
   s    10 1.00
  0.823600D+04 -0.113000D-03
  0.123500D+04 -0.878000D-03
  0.280800D+03 -0.454000D-02
  0.792700D+02 -0.181330D-01
  0.255900D+02 -0.557600D-01
  0.899700D+01 -0.126895D+00
  0.331900D+01 -0.170352D+00
  0.905900D+00  0.140382D+00
  0.364300D+00  0.598684D+00
  0.128500D+00  0.395389D+00
   s     1 1.00
  0.905900D+00  0.100000D+01
   s     1 1.00
  0.364300D+00  0.100000D+01
   p     5 1.00
  0.187100D+02  0.140310D-01
  0.413300D+01  0.868660D-01
  0.120000D+01  0.290216D+00
  0.382700D+00  0.501008D+00
  0.120900D+00  0.343406D+00
   p     1 1.00
  0.382700D+00  0.100000D+01
   p     1 1.00
  0.120900D+00  0.100000D+01
   d     1 1.00
  0.109700D+01  0.100000D+01
   d     1 1.00
  0.318000D+00  0.100000D+01
   f     1 1.00
  0.761000D+00  0.100000D+01
  
  5  0
   s    10 1.00
  0.823600D+04  0.531000D-03
  0.123500D+04  0.410800D-02
  0.280800D+03  0.210870D-01
  0.792700D+02  0.818530D-01
  0.255900D+02  0.234817D+00
  0.899700D+01  0.434401D+00
  0.331900D+01  0.346129D+00
  0.905900D+00  0.393780D-01
  0.364300D+00 -0.898300D-02
  0.128500D+00  0.238500D-02
   s    10 1.00
  0.823600D+04 -0.113000D-03
  0.123500D+04 -0.878000D-03
  0.280800D+03 -0.454000D-02
  0.792700D+02 -0.181330D-01
  0.255900D+02 -0.557600D-01
  0.899700D+01 -0.126895D+00
  0.331900D+01 -0.170352D+00
  0.905900D+00  0.140382D+00
  0.364300D+00  0.598684D+00
  0.128500D+00  0.395389D+00
   s     1 1.00
  0.905900D+00  0.100000D+01
   s     1 1.00
  0.364300D+00  0.100000D+01
   p     5 1.00
  0.187100D+02  0.140310D-01
  0.413300D+01  0.868660D-01
  0.120000D+01  0.290216D+00
  0.382700D+00  0.501008D+00
  0.120900D+00  0.343406D+00
   p     1 1.00
  0.382700D+00  0.100000D+01
   p     1 1.00
  0.120900D+00  0.100000D+01
   d     1 1.00
  0.109700D+01  0.100000D+01
   d     1 1.00
  0.318000D+00  0.100000D+01
   f     1 1.00
  0.761000D+00  0.100000D+01
  
  6  0
   s    10 1.00
  0.823600D+04  0.531000D-03
  0.123500D+04  0.410800D-02
  0.280800D+03  0.210870D-01
  0.792700D+02  0.818530D-01
  0.255900D+02  0.234817D+00
  0.899700D+01  0.434401D+00
  0.331900D+01  0.346129D+00
  0.905900D+00  0.393780D-01
  0.364300D+00 -0.898300D-02
  0.128500D+00  0.238500D-02
   s    10 1.00
  0.823600D+04 -0.113000D-03
  0.123500D+04 -0.878000D-03
  0.280800D+03 -0.454000D-02
  0.792700D+02 -0.181330D-01
  0.255900D+02 -0.557600D-01
  0.899700D+01 -0.126895D+00
  0.331900D+01 -0.170352D+00
  0.905900D+00  0.140382D+00
  0.364300D+00  0.598684D+00
  0.128500D+00  0.395389D+00
   s     1 1.00
  0.905900D+00  0.100000D+01
   s     1 1.00
  0.364300D+00  0.100000D+01
   p     5 1.00
  0.187100D+02  0.140310D-01
  0.413300D+01  0.868660D-01
  0.120000D+01  0.290216D+00
  0.382700D+00  0.501008D+00
  0.120900D+00  0.343406D+00
   p     1 1.00
  0.382700D+00  0.100000D+01
   p     1 1.00
  0.120900D+00  0.100000D+01
   d     1 1.00
  0.109700D+01  0.100000D+01
   d     1 1.00
  0.318000D+00  0.100000D+01
   f     1 1.00
  0.761000D+00  0.100000D+01
  
  7  0
   s    10 1.00
  0.823600D+04  0.531000D-03
  0.123500D+04  0.410800D-02
  0.280800D+03  0.210870D-01
  0.792700D+02  0.818530D-01
  0.255900D+02  0.234817D+00
  0.899700D+01  0.434401D+00
  0.331900D+01  0.346129D+00
  0.905900D+00  0.393780D-01
  0.364300D+00 -0.898300D-02
  0.128500D+00  0.238500D-02
   s    10 1.00
  0.823600D+04 -0.113000D-03
  0.123500D+04 -0.878000D-03
  0.280800D+03 -0.454000D-02
  0.792700D+02 -0.181330D-01
  0.255900D+02 -0.557600D-01
  0.899700D+01 -0.126895D+00
  0.331900D+01 -0.170352D+00
  0.905900D+00  0.140382D+00
  0.364300D+00  0.598684D+00
  0.128500D+00  0.395389D+00
   s     1 1.00
  0.905900D+00  0.100000D+01
   s     1 1.00
  0.364300D+00  0.100000D+01
   p     5 1.00
  0.187100D+02  0.140310D-01
  0.413300D+01  0.868660D-01
  0.120000D+01  0.290216D+00
  0.382700D+00  0.501008D+00
  0.120900D+00  0.343406D+00
   p     1 1.00
  0.382700D+00  0.100000D+01
   p     1 1.00
  0.120900D+00  0.100000D+01
   d     1 1.00
  0.109700D+01  0.100000D+01
   d     1 1.00
  0.318000D+00  0.100000D+01
   f     1 1.00
  0.761000D+00  0.100000D+01
  
  8  0
   s     4 1.00
  0.130100D+02  0.196850D-01
  0.196200D+01  0.137977D+00
  0.444600D+00  0.478148D+00
  0.122000D+00  0.501240D+00
   s     1 1.00
  0.122000D+00  0.100000D+01
   p     1 1.00
  0.727000D+00  0.100000D+01
  
  9  0
   s     4 1.00
  0.130100D+02  0.196850D-01
  0.196200D+01  0.137977D+00
  0.444600D+00  0.478148D+00
  0.122000D+00  0.501240D+00
   s     1 1.00
  0.122000D+00  0.100000D+01
   p     1 1.00
  0.727000D+00  0.100000D+01
  
 10  0
   s     4 1.00
  0.130100D+02  0.196850D-01
  0.196200D+01  0.137977D+00
  0.444600D+00  0.478148D+00
  0.122000D+00  0.501240D+00
   s     1 1.00
  0.122000D+00  0.100000D+01
   p     1 1.00
  0.727000D+00  0.100000D+01
  
 11  0
   s     4 1.00
  0.130100D+02  0.196850D-01
  0.196200D+01  0.137977D+00
  0.444600D+00  0.478148D+00
  0.122000D+00  0.501240D+00
   s     1 1.00
  0.122000D+00  0.100000D+01
   p     1 1.00
  0.727000D+00  0.100000D+01
  
 12  0
   s     4 1.00
  0.130100D+02  0.196850D-01
  0.196200D+01  0.137977D+00
  0.444600D+00  0.478148D+00
  0.122000D+00  0.501240D+00
   s     1 1.00
  0.122000D+00  0.100000D+01
   p     1 1.00
  0.727000D+00  0.100000D+01
  
 13  0
   s     4 1.00
  0.130100D+02  0.196850D-01
  0.196200D+01  0.137977D+00
  0.444600D+00  0.478148D+00
  0.122000D+00  0.501240D+00
   s     1 1.00
  0.122000D+00  0.100000D+01
   p     1 1.00
  0.727000D+00  0.100000D+01
  
 14  0
   s     4 1.00
  0.130100D+02  0.196850D-01
  0.196200D+01  0.137977D+00
  0.444600D+00  0.478148D+00
  0.122000D+00  0.501240D+00
   s     1 1.00
  0.122000D+00  0.100000D+01
   p     1 1.00
  0.727000D+00  0.100000D+01
  
[MO]
 Sym= __1_A'_
 Ene=  0.000000000000000E+000
 Spin= Alpha
 Occup=    2.00000000000000     
                     1  1.383659993327041E-004
                     2  0.998338714546607     
                     3 -2.632670244683207E-003
                     4  1.839120077345529E-003
                     5  6.599817282422418E-003
                     6  2.831345384353682E-003
                     7  5.958047316067614E-003
                     8  0.000000000000000E+000
                     9 -6.940699506357857E-004
                    10 -7.260239541265837E-004
                    11  0.000000000000000E+000
                    12 -2.485395835165846E-003
                    13 -1.909351879915774E-003
                    14  0.000000000000000E+000
                    15 -2.689254417661083E-005
                    16  0.000000000000000E+000
                    17  0.000000000000000E+000
                    18 -1.534458256597572E-004
                    19 -5.775982545860205E-005
                    20  8.894406002810164E-005
                    21  0.000000000000000E+000
                    22  0.000000000000000E+000
                    23 -2.063771672826676E-004
                    24  5.029458628167844E-004
                    25  0.000000000000000E+000
                    26 -5.673512302074024E-006
                    27 -4.874668807087098E-005
                    28  0.000000000000000E+000
                    29  0.000000000000000E+000
                    30  3.808710956396779E-005
                    31 -1.077931185179910E-004
                    32 -4.005369151090496E-004
                    33  1.403263360847953E-004
                    34  3.157877972150312E-004
                    35 -5.577930435949880E-005
                    36 -4.992861525860201E-005
                    37 -2.732531896316460E-003
                    38  0.000000000000000E+000
                    39  3.750635440765275E-004
                    40  2.016565915321833E-004
                    41  0.000000000000000E+000
                    42 -2.067341882548038E-003
                    43  5.137160593264134E-003
                    44  0.000000000000000E+000
                    45  1.621437200987895E-006
                    46  0.000000000000000E+000
                    47  0.000000000000000E+000
                    48 -1.373015556249863E-004
                    49  2.051478698642323E-005
                    50 -2.006690874425949E-004
                    51  0.000000000000000E+000
                    52  0.000000000000000E+000
                    53  4.850777910551490E-005
                    54  7.744691083542538E-004
                    55  0.000000000000000E+000
                    56 -3.002568141334427E-006
                    57 -7.061547587971657E-005
                    58  0.000000000000000E+000
                    59  0.000000000000000E+000
                    60  2.478799289351032E-005
                    61 -1.226536636302285E-004
                    62 -5.639105548878672E-004
                    63 -2.259789525850400E-003
                    64 -8.522234545562056E-005
                    65  2.270127717687476E-003
                    66 -5.260427687709854E-004
                    67  1.620864865789538E-004
                    68  0.000000000000000E+000
                    69  3.892015146261558E-004
                    70  8.936326277617483E-004
                    71  0.000000000000000E+000
                    72 -1.698980891309156E-003
                    73  6.873961587502602E-004
                    74  0.000000000000000E+000
                    75 -4.305268267013801E-005
                    76  0.000000000000000E+000
                    77  0.000000000000000E+000
                    78 -6.496807142919240E-005
                    79 -2.009240964285027E-005
                    80 -1.327566547842880E-004
                    81  0.000000000000000E+000
                    82  0.000000000000000E+000
                    83  4.093696950604886E-005
                    84  1.639789378047053E-005
                    85  0.000000000000000E+000
                    86  8.187397103726138E-006
                    87 -4.623696910651758E-005
                    88  0.000000000000000E+000
                    89  0.000000000000000E+000
                    90 -2.462333619267360E-005
                    91 -1.539772951800741E-004
                    92 -1.827934169083943E-004
                    93 -6.680604930686261E-004
                    94  1.562705441410923E-004
                    95 -5.006816798037584E-005
                    96  2.251529359957626E-004
                    97  9.294500069026818E-006
                    98  0.000000000000000E+000
                    99  3.375333783827415E-004
                   100  3.960349444466244E-004
                   101  0.000000000000000E+000
                   102  6.545765370952178E-004
                   103 -1.785938410385420E-003
                   104  0.000000000000000E+000
                   105 -1.197585246587212E-005
                   106  0.000000000000000E+000
                   107  0.000000000000000E+000
                   108 -4.662496641702354E-005
                   109 -1.323820822172069E-005
                   110  8.465748858925484E-005
                   111  0.000000000000000E+000
                   112  0.000000000000000E+000
                   113 -1.666839048941218E-004
                   114  8.539630551485133E-005
                   115  0.000000000000000E+000
                   116 -1.986354197846863E-005
                   117 -2.258312763552337E-005
                   118  0.000000000000000E+000
                   119  0.000000000000000E+000
                   120 -1.215047140194562E-005
                   121 -3.720948991706450E-005
                   122 -2.428458961390226E-004
                   123 -5.863435846451179E-004
                   124  1.654399284912040E-004
                   125  3.285711819088811E-004
                   126 -3.313986502312215E-005
                   127 -3.431323422352744E-004
                   128  0.000000000000000E+000
                   129  2.464729797320422E-004
                   130  6.540869446010320E-004
                   131  0.000000000000000E+000
                   132  3.872476749110479E-004
                   133  2.031514541897228E-003
                   134  0.000000000000000E+000
                   135  1.325279261627598E-005
                   136  0.000000000000000E+000
                   137  0.000000000000000E+000
                   138  4.569444735770128E-005
                   139 -1.651158321641393E-006
                   140  2.051938791309843E-004
                   141  0.000000000000000E+000
                   142  0.000000000000000E+000
                   143  4.054772635312234E-004
                   144  2.393023062074261E-004
                   145  0.000000000000000E+000
                   146 -1.258102046246635E-005
                   147 -6.522027566361210E-005
                   148  0.000000000000000E+000
                   149  0.000000000000000E+000
                   150 -1.355456852002943E-005
                   151 -5.333882423825591E-005
                   152 -1.300158191608932E-004
                   153 -3.528024596021271E-004
                   154  5.510098330863531E-005
                   155  1.884319745274607E-004
                   156  1.028243993036280E-005
                   157 -8.943534347887989E-005
                   158  0.000000000000000E+000
                   159  1.208809808289491E-005
                   160  6.205628434793192E-005
                   161  0.000000000000000E+000
                   162  7.313239049506059E-004
                   163 -3.654056121349007E-004
                   164  0.000000000000000E+000
                   165  1.900702165633354E-006
                   166  0.000000000000000E+000
                   167  0.000000000000000E+000
                   168  3.080938998133468E-006
                   169  9.665005016081038E-006
                   170  1.077651087078723E-004
                   171  0.000000000000000E+000
                   172  0.000000000000000E+000
                   173  5.573418942928088E-005
                   174  2.663353687558920E-005
                   175  0.000000000000000E+000
                   176  3.052435534407448E-006
                   177 -1.494644124424650E-005
                   178  0.000000000000000E+000
                   179  0.000000000000000E+000
                   180 -2.077234696266486E-005
                   181 -3.041234336875020E-005
                   182 -1.341129644944713E-004
                   183 -3.901626735198470E-004
                   184  3.317164181842095E-005
                   185  1.850148985184115E-004
                   186 -5.069587153751948E-005
                   187 -6.474528724747528E-005
                   188  0.000000000000000E+000
                   189  2.741469430669483E-004
                   190  1.255883478143424E-004
                   191  0.000000000000000E+000
                   192  1.349767477096223E-003
                   193 -3.496533315979211E-004
                   194  0.000000000000000E+000
                   195  1.755996286447511E-006
                   196  0.000000000000000E+000
                   197  0.000000000000000E+000
                   198 -3.759273414202168E-006
                   199  4.129701756174931E-006
                   200 -7.292111398174211E-006
                   201  0.000000000000000E+000
                   202  0.000000000000000E+000
                   203 -8.275647851849414E-005
                   204 -2.041226800290421E-004
                   205  0.000000000000000E+000
                   206 -1.055785001259864E-005
                   207 -4.527559923267068E-006
                   208  0.000000000000000E+000
                   209  0.000000000000000E+000
                   210  7.517862021967360E-006
                   211 -2.948850951381244E-006
                   212 -2.322942051784920E-005
                   213  1.726681776395199E-005
                   214  8.848326819308533E-007
                   215  1.539386367918821E-006
                   216  0.000000000000000E+000
                   217 -8.627712623295467E-004
                   218 -6.602881532225915E-004
                   219 -2.398231390366517E-004
                   220  6.482785659535688E-005
                   221  0.000000000000000E+000
                   222 -2.105666841533953E-004
                   223 -5.570859958474773E-004
                   224  2.486412757106674E-005
                   225 -5.823840439407308E-005
                   226  0.000000000000000E+000
                   227  6.814899382624978E-005
                   228 -7.087028402459818E-004
                   229 -4.602680012253567E-005
                   230 -1.333983211988032E-005
                   231  0.000000000000000E+000
                   232  4.192639052150456E-006
                   233 -5.351997572420282E-004
                   234  1.257685613531604E-005
                   235 -3.735576342223221E-006
                   236  0.000000000000000E+000
                   237  7.756374526152711E-006
                   238 -3.715745893468949E-004
                   239 -6.126065207337956E-006
                   240 -1.601898957612152E-006
                   241  0.000000000000000E+000
                   242 -6.420171008227220E-005
                   243  9.894139190323021E-005
                   244  2.423739702832228E-007
                   245  3.152353386038999E-005
                   246  0.000000000000000E+000
 Sym= __2_A'_
 Ene=  0.000000000000000E+000
 Spin= Alpha
 Occup=    2.00000000000000     
                     1  2.482783081238162E-005
                     2  2.824624896793382E-004
                     3 -3.567568029433664E-003
                     4 -9.736192061365167E-005
                     5 -1.468458994074624E-003
                     6  9.696566596683133E-004
                     7 -3.873712699576995E-003
                     8  0.000000000000000E+000
                     9 -7.827469556053631E-006
                    10  8.743055427333236E-005
                    11  0.000000000000000E+000
                    12 -3.079434512913952E-005
                    13  2.330429822757252E-004
                    14  0.000000000000000E+000
                    15 -1.830667615829075E-005
                    16  0.000000000000000E+000
                    17  0.000000000000000E+000
                    18  7.994994022163928E-005
                    19 -3.322427030279765E-005
                    20  1.471593456534062E-004
                    21  0.000000000000000E+000
                    22  0.000000000000000E+000
                    23 -2.853405157208124E-005
                    24  1.545595835792250E-004
                    25  0.000000000000000E+000
                    26  1.261098787868064E-005
                    27 -8.151545682820352E-005
                    28  0.000000000000000E+000
                    29  0.000000000000000E+000
                    30  7.349161587119143E-005
                    31 -1.346315804002336E-004
                    32  -1.00075387837077     
                    33 -9.327677997318536E-003
                    34 -2.842311844385058E-003
                    35  8.140641317190766E-003
                    36  3.936328314253884E-004
                    37  4.431188697902033E-003
                    38  0.000000000000000E+000
                    39  2.216252461762133E-004
                    40 -3.710004184591941E-004
                    41  0.000000000000000E+000
                    42 -2.712772506497899E-005
                    43 -4.451864852634814E-003
                    44  0.000000000000000E+000
                    45  5.177358385011572E-004
                    46  0.000000000000000E+000
                    47  0.000000000000000E+000
                    48  2.106983635973518E-004
                    49 -5.025325442178542E-005
                    50 -5.628863336444573E-004
                    51  0.000000000000000E+000
                    52  0.000000000000000E+000
                    53  6.914616962450180E-004
                    54  4.872969682007223E-004
                    55  0.000000000000000E+000
                    56 -2.209131412745859E-005
                    57 -9.948615860611719E-005
                    58  0.000000000000000E+000
                    59  0.000000000000000E+000
                    60  4.343018354072995E-005
                    61 -3.758676636095180E-004
                    62 -1.430380977950059E-002
                    63  2.269708322077578E-003
                    64  2.076767204091637E-004
                    65 -2.655802018785548E-003
                    66  1.235715553936454E-004
                    67 -3.472899331762507E-004
                    68  0.000000000000000E+000
                    69 -4.486347701669696E-004
                    70 -1.468128600985767E-004
                    71  0.000000000000000E+000
                    72  2.068533512332358E-003
                    73 -2.559755803253782E-004
                    74  0.000000000000000E+000
                    75 -3.852418894700499E-005
                    76  0.000000000000000E+000
                    77  0.000000000000000E+000
                    78  2.868994755057554E-005
                    79 -5.793001967574822E-006
                    80  4.191963462416600E-004
                    81  0.000000000000000E+000
                    82  0.000000000000000E+000
                    83  7.171690407008186E-004
                    84  2.391604048728455E-004
                    85  0.000000000000000E+000
                    86 -3.126533605950590E-005
                    87  5.681321952036687E-005
                    88  0.000000000000000E+000
                    89  0.000000000000000E+000
                    90 -5.361292424734043E-005
                    91 -1.531782751316639E-004
                    92 -1.848313603972339E-002
                    93  2.357106585088403E-003
                    94  2.990452402515434E-004
                    95 -3.287662714996348E-003
                    96 -5.610992960929679E-004
                    97 -5.417049365391229E-004
                    98  0.000000000000000E+000
                    99  9.975181158059557E-004
                   100  1.003667866078200E-005
                   101  0.000000000000000E+000
                   102 -1.788807272944679E-003
                   103  5.668496622917185E-005
                   104  0.000000000000000E+000
                   105 -2.282197325550921E-005
                   106  0.000000000000000E+000
                   107  0.000000000000000E+000
                   108  2.605142162035398E-005
                   109  2.538391195975203E-006
                   110  4.162295756981364E-004
                   111  0.000000000000000E+000
                   112  0.000000000000000E+000
                   113  3.977096925374384E-004
                   114 -2.442231994143325E-004
                   115  0.000000000000000E+000
                   116  3.664627801249697E-005
                   117  7.570185643391211E-005
                   118  0.000000000000000E+000
                   119  0.000000000000000E+000
                   120  1.066812403921018E-005
                   121 -1.348550371075286E-004
                   122 -1.659903884548282E-004
                   123  5.713610880746334E-004
                   124 -2.242677033586188E-004
                   125  1.101948576185422E-004
                   126  1.161716599034958E-005
                   127  5.668361904319440E-004
                   128  0.000000000000000E+000
                   129  6.397897308468759E-005
                   130 -6.274204915933067E-004
                   131  0.000000000000000E+000
                   132 -3.283440397675318E-004
                   133 -9.517871478098289E-004
                   134  0.000000000000000E+000
                   135 -1.723515720169044E-005
                   136  0.000000000000000E+000
                   137  0.000000000000000E+000
                   138  6.511829478449500E-007
                   139 -4.881620127232024E-005
                   140 -1.224269383802410E-004
                   141  0.000000000000000E+000
                   142  0.000000000000000E+000
                   143 -2.574216497268672E-004
                   144  1.000392458486659E-004
                   145  0.000000000000000E+000
                   146 -8.891676389631967E-006
                   147  3.431438780253550E-005
                   148  0.000000000000000E+000
                   149  0.000000000000000E+000
                   150  4.631033644645294E-005
                   151 -3.944199794120353E-005
                   152 -5.772019185553059E-004
                   153  5.099875071420409E-004
                   154 -2.294773750026184E-004
                   155  3.625662134529536E-005
                   156  7.330195418216689E-005
                   157  6.622351732359404E-004
                   158  0.000000000000000E+000
                   159 -1.433232278099896E-004
                   160 -5.690883324492839E-004