[Molden Format]
[Atoms] AU
  N     1    7     0.0000000000   -4.2907334100    0.0000000000        
  C     2    6     0.0000000000   -1.7772236300    0.0000000000        
  C     3    6    -2.3389203600   -0.4111016300    0.0000000000        
  C     4    6     2.3389203600   -0.4111016300    0.0000000000        
  C     5    6    -2.2998668500    2.1639215300    0.0000000000        
  C     6    6     2.2998668500    2.1639215300    0.0000000000        
  C     7    6     0.0000000000    3.4755251800    0.0000000000        
  H     8    1    -2.5732809600   -5.8782317900    0.0000000000        
  H     9    1     1.7691306600   -5.3821385500    0.0000000000        
  H    10    1    -4.0745407300   -1.4447408500    0.0000000000        
  H    11    1     4.0745407300   -1.4447408500    0.0000000000        
  H    12    1    -4.0420632100    3.1963889500    0.0000000000        
  H    13    1     4.0420632100    3.1963889500    0.0000000000        
  H    14    1     0.0000000000    5.5020335600    0.0000000000        
[5D]
[7F]
[GTO]
  1  0
   s    12 1.00
  0.114200D+05  0.172695D-04
  0.171200D+04  0.134411D-03
  0.389300D+03  0.694561D-03
  0.110000D+03  0.278531D-02
  0.355700D+02  0.863457D-02
  0.125400D+02  0.199805D-01
  0.464400D+01  0.262908D-01
  0.129300D+01 -0.243845D-01
  0.511800D+00 -0.924934D-01
  0.178700D+00 -0.339683D+00
  0.246240D-01  0.345111D+00
  0.112530D-01  0.752750D+00
   s    10 1.00
  0.114200D+05  0.523000D-03
  0.171200D+04  0.404500D-02
  0.389300D+03  0.207750D-01
  0.110000D+03  0.807269D-01
  0.355700D+02  0.233074D+00
  0.125400D+02  0.433501D+00
  0.464400D+01  0.347472D+00
  0.129300D+01  0.412620D-01
  0.511800D+00 -0.850799D-02
  0.178700D+00  0.238400D-02
   s    10 1.00
  0.114200D+05 -0.115000D-03
  0.171200D+04 -0.895000D-03
  0.389300D+03 -0.462400D-02
  0.110000D+03 -0.185280D-01
  0.355700D+02 -0.573390D-01
  0.125400D+02 -0.132076D+00
  0.464400D+01 -0.172510D+00
  0.129300D+01  0.151814D+00
  0.511800D+00  0.599944D+00
  0.178700D+00  0.387462D+00
   s     1 1.00
  0.129300D+01  0.100000D+01
   s     1 1.00
  0.178700D+00  0.100000D+01
   p     5 1.00
  0.266300D+02  0.146700D-01
  0.594800D+01  0.917640D-01
  0.174200D+01  0.298683D+00
  0.555000D+00  0.498487D+00
  0.172500D+00  0.337023D+00
   p     1 1.00
  0.174200D+01  0.100000D+01
   p     1 1.00
  0.555000D+00  0.100000D+01
   d     1 1.00
  0.165400D+01  0.100000D+01
   d     1 1.00
  0.469000D+00  0.100000D+01
   f     1 1.00
  0.109300D+01  0.100000D+01
  
  2  0
   s    10 1.00
  0.823600D+04  0.531000D-03
  0.123500D+04  0.410800D-02
  0.280800D+03  0.210870D-01
  0.792700D+02  0.818530D-01
  0.255900D+02  0.234817D+00
  0.899700D+01  0.434401D+00
  0.331900D+01  0.346129D+00
  0.905900D+00  0.393780D-01
  0.364300D+00 -0.898300D-02
  0.128500D+00  0.238500D-02
   s    10 1.00
  0.823600D+04 -0.113000D-03
  0.123500D+04 -0.878000D-03
  0.280800D+03 -0.454000D-02
  0.792700D+02 -0.181330D-01
  0.255900D+02 -0.557600D-01
  0.899700D+01 -0.126895D+00
  0.331900D+01 -0.170352D+00
  0.905900D+00  0.140382D+00
  0.364300D+00  0.598684D+00
  0.128500D+00  0.395389D+00
   s     1 1.00
  0.905900D+00  0.100000D+01
   s     1 1.00
  0.364300D+00  0.100000D+01
   p     5 1.00
  0.187100D+02  0.140310D-01
  0.413300D+01  0.868660D-01
  0.120000D+01  0.290216D+00
  0.382700D+00  0.501008D+00
  0.120900D+00  0.343406D+00
   p     1 1.00
  0.382700D+00  0.100000D+01
   p     1 1.00
  0.120900D+00  0.100000D+01
   d     1 1.00
  0.109700D+01  0.100000D+01
   d     1 1.00
  0.318000D+00  0.100000D+01
   f     1 1.00
  0.761000D+00  0.100000D+01
  
  3  0
   s    10 1.00
  0.823600D+04  0.531000D-03
  0.123500D+04  0.410800D-02
  0.280800D+03  0.210870D-01
  0.792700D+02  0.818530D-01
  0.255900D+02  0.234817D+00
  0.899700D+01  0.434401D+00
  0.331900D+01  0.346129D+00
  0.905900D+00  0.393780D-01
  0.364300D+00 -0.898300D-02
  0.128500D+00  0.238500D-02
   s    10 1.00
  0.823600D+04 -0.113000D-03
  0.123500D+04 -0.878000D-03
  0.280800D+03 -0.454000D-02
  0.792700D+02 -0.181330D-01
  0.255900D+02 -0.557600D-01
  0.899700D+01 -0.126895D+00
  0.331900D+01 -0.170352D+00
  0.905900D+00  0.140382D+00
  0.364300D+00  0.598684D+00
  0.128500D+00  0.395389D+00
   s     1 1.00
  0.905900D+00  0.100000D+01
   s     1 1.00
  0.364300D+00  0.100000D+01
   p     5 1.00
  0.187100D+02  0.140310D-01
  0.413300D+01  0.868660D-01
  0.120000D+01  0.290216D+00
  0.382700D+00  0.501008D+00
  0.120900D+00  0.343406D+00
   p     1 1.00
  0.382700D+00  0.100000D+01
   p     1 1.00
  0.120900D+00  0.100000D+01
   d     1 1.00
  0.109700D+01  0.100000D+01
   d     1 1.00
  0.318000D+00  0.100000D+01
   f     1 1.00
  0.761000D+00  0.100000D+01
  
  4  0
   s    10 1.00
  0.823600D+04  0.531000D-03
  0.123500D+04  0.410800D-02
  0.280800D+03  0.210870D-01
  0.792700D+02  0.818530D-01
  0.255900D+02  0.234817D+00
  0.899700D+01  0.434401D+00
  0.331900D+01  0.346129D+00
  0.905900D+00  0.393780D-01
  0.364300D+00 -0.898300D-02
  0.128500D+00  0.238500D-02
   s    10 1.00
  0.823600D+04 -0.113000D-03
  0.123500D+04 -0.878000D-03
  0.280800D+03 -0.454000D-02
  0.792700D+02 -0.181330D-01
  0.255900D+02 -0.557600D-01
  0.899700D+01 -0.126895D+00
  0.331900D+01 -0.170352D+00
  0.905900D+00  0.140382D+00
  0.364300D+00  0.598684D+00
  0.128500D+00  0.395389D+00
   s     1 1.00
  0.905900D+00  0.100000D+01
   s     1 1.00
  0.364300D+00  0.100000D+01
   p     5 1.00
  0.187100D+02  0.140310D-01
  0.413300D+01  0.868660D-01
  0.120000D+01  0.290216D+00
  0.382700D+00  0.501008D+00
  0.120900D+00  0.343406D+00
   p     1 1.00
  0.382700D+00  0.100000D+01
   p     1 1.00
  0.120900D+00  0.100000D+01
   d     1 1.00
  0.109700D+01  0.100000D+01
   d     1 1.00
  0.318000D+00  0.100000D+01
   f     1 1.00
  0.761000D+00  0.100000D+01
  
  5  0
   s    10 1.00
  0.823600D+04  0.531000D-03
  0.123500D+04  0.410800D-02
  0.280800D+03  0.210870D-01
  0.792700D+02  0.818530D-01
  0.255900D+02  0.234817D+00
  0.899700D+01  0.434401D+00
  0.331900D+01  0.346129D+00
  0.905900D+00  0.393780D-01
  0.364300D+00 -0.898300D-02
  0.128500D+00  0.238500D-02
   s    10 1.00
  0.823600D+04 -0.113000D-03
  0.123500D+04 -0.878000D-03
  0.280800D+03 -0.454000D-02
  0.792700D+02 -0.181330D-01
  0.255900D+02 -0.557600D-01
  0.899700D+01 -0.126895D+00
  0.331900D+01 -0.170352D+00
  0.905900D+00  0.140382D+00
  0.364300D+00  0.598684D+00
  0.128500D+00  0.395389D+00
   s     1 1.00
  0.905900D+00  0.100000D+01
   s     1 1.00
  0.364300D+00  0.100000D+01
   p     5 1.00
  0.187100D+02  0.140310D-01
  0.413300D+01  0.868660D-01
  0.120000D+01  0.290216D+00
  0.382700D+00  0.501008D+00
  0.120900D+00  0.343406D+00
   p     1 1.00
  0.382700D+00  0.100000D+01
   p     1 1.00
  0.120900D+00  0.100000D+01
   d     1 1.00
  0.109700D+01  0.100000D+01
   d     1 1.00
  0.318000D+00  0.100000D+01
   f     1 1.00
  0.761000D+00  0.100000D+01
  
  6  0
   s    10 1.00
  0.823600D+04  0.531000D-03
  0.123500D+04  0.410800D-02
  0.280800D+03  0.210870D-01
  0.792700D+02  0.818530D-01
  0.255900D+02  0.234817D+00
  0.899700D+01  0.434401D+00
  0.331900D+01  0.346129D+00
  0.905900D+00  0.393780D-01
  0.364300D+00 -0.898300D-02
  0.128500D+00  0.238500D-02
   s    10 1.00
  0.823600D+04 -0.113000D-03
  0.123500D+04 -0.878000D-03
  0.280800D+03 -0.454000D-02
  0.792700D+02 -0.181330D-01
  0.255900D+02 -0.557600D-01
  0.899700D+01 -0.126895D+00
  0.331900D+01 -0.170352D+00
  0.905900D+00  0.140382D+00
  0.364300D+00  0.598684D+00
  0.128500D+00  0.395389D+00
   s     1 1.00
  0.905900D+00  0.100000D+01
   s     1 1.00
  0.364300D+00  0.100000D+01
   p     5 1.00
  0.187100D+02  0.140310D-01
  0.413300D+01  0.868660D-01
  0.120000D+01  0.290216D+00
  0.382700D+00  0.501008D+00
  0.120900D+00  0.343406D+00
   p     1 1.00
  0.382700D+00  0.100000D+01
   p     1 1.00
  0.120900D+00  0.100000D+01
   d     1 1.00
  0.109700D+01  0.100000D+01
   d     1 1.00
  0.318000D+00  0.100000D+01
   f     1 1.00
  0.761000D+00  0.100000D+01
  
  7  0
   s    10 1.00
  0.823600D+04  0.531000D-03
  0.123500D+04  0.410800D-02
  0.280800D+03  0.210870D-01
  0.792700D+02  0.818530D-01
  0.255900D+02  0.234817D+00
  0.899700D+01  0.434401D+00
  0.331900D+01  0.346129D+00
  0.905900D+00  0.393780D-01
  0.364300D+00 -0.898300D-02
  0.128500D+00  0.238500D-02
   s    10 1.00
  0.823600D+04 -0.113000D-03
  0.123500D+04 -0.878000D-03
  0.280800D+03 -0.454000D-02
  0.792700D+02 -0.181330D-01
  0.255900D+02 -0.557600D-01
  0.899700D+01 -0.126895D+00
  0.331900D+01 -0.170352D+00
  0.905900D+00  0.140382D+00
  0.364300D+00  0.598684D+00
  0.128500D+00  0.395389D+00
   s     1 1.00
  0.905900D+00  0.100000D+01
   s     1 1.00
  0.364300D+00  0.100000D+01
   p     5 1.00
  0.187100D+02  0.140310D-01
  0.413300D+01  0.868660D-01
  0.120000D+01  0.290216D+00
  0.382700D+00  0.501008D+00
  0.120900D+00  0.343406D+00
   p     1 1.00
  0.382700D+00  0.100000D+01
   p     1 1.00
  0.120900D+00  0.100000D+01
   d     1 1.00
  0.109700D+01  0.100000D+01
   d     1 1.00
  0.318000D+00  0.100000D+01
   f     1 1.00
  0.761000D+00  0.100000D+01
  
  8  0
   s     4 1.00
  0.130100D+02  0.196850D-01
  0.196200D+01  0.137977D+00
  0.444600D+00  0.478148D+00
  0.122000D+00  0.501240D+00
   s     1 1.00
  0.122000D+00  0.100000D+01
   p     1 1.00
  0.727000D+00  0.100000D+01
  
  9  0
   s     4 1.00
  0.130100D+02  0.196850D-01
  0.196200D+01  0.137977D+00
  0.444600D+00  0.478148D+00
  0.122000D+00  0.501240D+00
   s     1 1.00
  0.122000D+00  0.100000D+01
   p     1 1.00
  0.727000D+00  0.100000D+01
  
 10  0
   s     4 1.00
  0.130100D+02  0.196850D-01
  0.196200D+01  0.137977D+00
  0.444600D+00  0.478148D+00
  0.122000D+00  0.501240D+00
   s     1 1.00
  0.122000D+00  0.100000D+01
   p     1 1.00
  0.727000D+00  0.100000D+01
  
 11  0
   s     4 1.00
  0.130100D+02  0.196850D-01
  0.196200D+01  0.137977D+00
  0.444600D+00  0.478148D+00
  0.122000D+00  0.501240D+00
   s     1 1.00
  0.122000D+00  0.100000D+01
   p     1 1.00
  0.727000D+00  0.100000D+01
  
 12  0
   s     4 1.00
  0.130100D+02  0.196850D-01
  0.196200D+01  0.137977D+00
  0.444600D+00  0.478148D+00
  0.122000D+00  0.501240D+00
   s     1 1.00
  0.122000D+00  0.100000D+01
   p     1 1.00
  0.727000D+00  0.100000D+01
  
 13  0
   s     4 1.00
  0.130100D+02  0.196850D-01
  0.196200D+01  0.137977D+00
  0.444600D+00  0.478148D+00
  0.122000D+00  0.501240D+00
   s     1 1.00
  0.122000D+00  0.100000D+01
   p     1 1.00
  0.727000D+00  0.100000D+01
  
 14  0
   s     4 1.00
  0.130100D+02  0.196850D-01
  0.196200D+01  0.137977D+00
  0.444600D+00  0.478148D+00
  0.122000D+00  0.501240D+00
   s     1 1.00
  0.122000D+00  0.100000D+01
   p     1 1.00
  0.727000D+00  0.100000D+01
  
[MO]
 Sym= __1_a__
 Ene=  0.000000000000000E+000
 Spin= Alpha
 Occup=    2.00000000000000     
                     1  5.924286295589490E-005
                     2  0.998489908285584     
                     3  2.105759123174400E-003
                     4  1.646411569826720E-003
                     5  4.534325147673540E-003
                     6  3.091649345167840E-003
                     7  5.878993598929540E-003
                     8 -9.432599393564909E-012
                     9 -6.530166432094520E-004
                    10 -4.347006565642110E-004
                    11  4.484681375693880E-012
                    12 -2.273508522779380E-003
                    13 -1.367760402860830E-003
                    14 -1.805526193250440E-012
                    15 -1.026758182525991E-004
                    16 -3.800082399376000E-013
                    17  1.872775199246990E-014
                    18 -2.178168729669740E-004
                    19 -6.563833327822170E-005
                    20  2.249458536542389E-004
                    21 -1.521223152344360E-012
                    22 -5.383327841528810E-012
                    23 -2.437946280228400E-004
                    24  5.560815850356830E-004
                    25 -6.201101344106524E-013
                    26  5.999331974674480E-006
                    27 -5.843280399254097E-005
                    28  2.921829936959340E-013
                    29 -1.375082253265760E-013
                    30  2.003694770037192E-005
                    31 -1.075657154764593E-004
                    32 -3.043214348134720E-004
                    33  1.444210915699960E-003
                    34  2.380545492599020E-004
                    35 -2.517351634425860E-004
                    36 -1.656611859713070E-004
                    37 -4.761152611561910E-003
                    38  9.443882200304939E-012
                    39  4.877243332992450E-004
                    40  2.047312248045420E-004
                    41 -7.124582962069180E-012
                    42 -2.012998884365520E-003
                    43  5.127344157442700E-003
                    44  8.833595758065310E-012
                    45 -2.382119772088694E-005
                    46  1.007880038122330E-012
                    47  2.206811359983240E-012
                    48 -2.444465383538160E-004
                    49 -1.308028583921470E-005
                    50 -2.783667729099619E-004
                    51 -1.982831822584470E-012
                    52 -7.454764395944559E-012
                    53  6.530249221553501E-005
                    54  7.881843460992630E-004
                    55  3.345317105394629E-013
                    56 -1.513070932596048E-005
                    57 -4.460869570342581E-005
                    58 -3.692294364961260E-012
                    59  8.179745807736520E-013
                    60 -7.017931020762573E-006
                    61 -1.202585925865073E-004
                    62 -4.572678886332550E-004
                    63 -2.133909446088800E-003
                    64 -8.656099509307710E-005
                    65  1.963330585211160E-003
                    66 -6.860589700310710E-004
                    67  4.890025450138410E-004
                    68 -3.396054585190750E-012
                    69  4.405481586528080E-004
                    70  7.765076281350020E-004
                    71 -2.382087798874550E-012
                    72 -1.590818585321080E-003
                    73  6.651431436808120E-004
                    74 -2.856387454854530E-012
                    75 -3.910012778096792E-005
                    76 -5.405593637020040E-013
                    77 -3.578752069247490E-012
                    78 -8.206427628948500E-005
                    79 -3.046267481993800E-005
                    80 -1.355080812139006E-004
                    81 -3.675135388471510E-012
                    82  2.528705428120780E-012
                    83  1.013624869514986E-004
                    84  1.033881969886140E-004
                    85  3.292485174606347E-012
                    86  1.009710964191938E-005
                    87 -4.617282622929906E-005
                    88  2.142726721330300E-012
                    89  2.558305130015030E-013
                    90 -1.917484281796020E-005
                    91 -1.472551634926945E-004
                    92 -1.229703630910230E-004
                    93 -9.865957457058741E-004
                    94  2.059169710066740E-004
                    95 -3.286425471601240E-004
                    96  5.567361143822600E-004
                    97  6.423204376076440E-004
                    98  1.816793509106130E-013
                    99  4.264494272836740E-004
                   100  3.363211958977880E-004
                   101 -1.398968450842110E-012
                   102  4.721058777515130E-004
                   103 -1.288254877315110E-003
                   104 -1.185333123440630E-011
                   105 -2.257443339514880E-006
                   106 -1.100589953138720E-012
                   107  2.967227281289760E-013
                   108 -6.682852182603940E-005
                   109 -1.754804806455960E-005
                   110  1.248187579670301E-004
                   111  4.612952350099530E-012
                   112 -6.440601833754150E-012
                   113 -1.239543512642888E-004
                   114 -6.613639553558500E-005
                   115  9.632475890523042E-013
                   116 -2.418798913208015E-005
                   117 -3.110314066019094E-005
                   118  2.120749021381520E-012
                   119 -1.002740705761710E-012
                   120  1.475578777395566E-005
                   121 -2.822450629362179E-005
                   122 -2.517551304762440E-004
                   123 -4.942870586177290E-004
                   124  1.664688557142170E-004
                   125  3.488044429770300E-004
                   126 -6.792619054503720E-006
                   127 -5.415392146522620E-004
                   128  7.421208943907460E-012
                   129  1.702192486409120E-004
                   130  5.770975237770290E-004
                   131 -1.831705513484110E-013
                   132  3.126604608958270E-004
                   133  1.846561390919200E-003
                   134  7.482748872543960E-013
                   135  1.266663150421662E-005
                   136 -2.355443469162010E-012
                   137 -1.550717217075860E-012
                   138  4.145432660361560E-005
                   139  3.757463165176830E-007
                   140  1.916116562821400E-004
                   141  1.145991383258240E-011
                   142  1.228500796932560E-012
                   143  3.340218754951920E-004
                   144  2.438579491472300E-004
                   145  2.762678066883992E-012
                   146 -8.253546582905397E-006
                   147 -5.787661713822763E-005
                   148  2.413483032660500E-012
                   149  1.694533776802590E-012
                   150 -1.787930081759033E-005
                   151 -4.672411763573655E-005
                   152 -1.715980618657760E-004
                   153 -2.472676101024490E-004
                   154  3.960804355153640E-005
                   155  3.648067564235300E-004
                   156 -2.755253051753290E-005
                   157 -4.764423311883430E-004
                   158  1.462604008730440E-011
                   159  9.573494638081071E-006
                   160  6.615439022528220E-005
                   161 -1.165826862694080E-011
                   162  6.641077078059690E-004
                   163 -1.818600379896970E-004
                   164 -2.328640525440540E-012
                   165 -2.003539720862943E-006
                   166 -7.899546936883230E-013
                   167 -2.186743832879690E-013
                   168 -6.026968471210160E-006
                   169  4.498999043507180E-006
                   170  5.977033901844497E-005
                   171  2.097610505081460E-012
                   172 -7.215392603157350E-012
                   173  2.102766770526120E-005
                   174 -3.868362098846290E-005
                   175 -7.077952942544104E-013
                   176  4.502224842073108E-006
                   177 -9.144769365589992E-006
                   178 -5.881359064971980E-013
                   179 -4.145571883989480E-013
                   180 -2.184884675317267E-005
                   181 -8.921671846747640E-006
                   182 -1.595244155755640E-004
                   183 -4.514281591945260E-004
                   184  4.648988188152340E-005
                   185  2.273190150264340E-004
                   186 -3.448072251154580E-005
                   187 -5.376378615759360E-005
                   188  1.700195802376070E-012
                   189  1.802475747960130E-004
                   190  5.789810779079000E-005
                   191 -9.088844551438711E-012
                   192  1.146314816975890E-003
                   193 -1.304163292339140E-004
                   194  4.722804506317810E-014
                   195 -1.299508560774287E-006
                   196 -1.559504203718270E-012
                   197  1.700496056858390E-012
                   198 -1.402631408511608E-005
                   199  6.323878186821560E-006
                   200  2.043852302864261E-005
                   201  9.101375303457880E-012
                   202  2.811917159074840E-012
                   203 -8.188399050382740E-005
                   204 -1.588416047267560E-004
                   205 -2.142385020456559E-013
                   206 -4.783670737890861E-006
                   207 -5.754596230885387E-006
                   208  1.419560179313224E-012
                   209 -4.713830136397070E-012
                   210  9.126658281797860E-006
                   211 -4.530859973503932E-006
                   212  5.498415290920790E-005
                   213  2.541116918074130E-005
                   214  1.255888235162220E-004
                   215  1.335346276266580E-004
                   216  5.127920891514750E-014
                   217  8.395804908690510E-004
                   218 -1.217557856778890E-003
                   219 -4.174734983602790E-004
                   220  2.217467411474300E-004
                   221  1.111772948239890E-012
                   222 -4.374968137706110E-004
                   223 -5.915920648831820E-004
                   224  4.162631783239260E-006
                   225 -6.690604278332510E-005
                   226 -2.785188361156440E-012
                   227 -2.691914318934680E-004
                   228 -4.243874708629210E-004
                   229 -3.775363697269530E-006
                   230 -1.719919140713960E-005
                   231 -9.863373254437059E-013
                   232 -7.731840230517709E-005
                   233 -5.347531495967970E-004
                   234  5.008290207837480E-006
                   235 -1.172555003915520E-006
                   236  3.952558089509580E-012
                   237 -1.636701610436320E-004
                   238 -3.948070055595940E-004
                   239  6.824719955474460E-006
                   240  3.319734560213930E-006
                   241  3.075286629376770E-012
                   242  1.644843178571030E-005
                   243 -4.434633241820420E-005
                   244 -5.434880845698160E-007
                   245  2.074097676973670E-005
                   246 -1.012486083427830E-012
 Sym= __2_a__
 Ene=  0.000000000000000E+000
 Spin= Alpha
 Occup=    2.00000000000000     
                     1 -4.988537038518710E-005
                     2 -3.343442050588070E-004
                     3  2.748091979449760E-003
                     4  1.520032564736450E-004
                     5  1.338394051515540E-003
                     6 -2.793566522841460E-004
                     7  2.982002235945150E-003
                     8  1.489533794371160E-011
                     9 -5.934560473189060E-005
                    10 -1.045010298430950E-004
                    11 -6.882432772683970E-012
                    12  9.622784610440311E-005
                    13 -4.420985452002250E-004
                    14 -6.856535423173750E-012
                    15  3.480605115427300E-005
                    16  5.496060570878300E-013
                    17 -7.063875885560810E-013
                    18 -5.133330032805900E-005
                    19  6.360977729130880E-006
                    20 -1.242562967348076E-004
                    21 -7.387769353022920E-013
                    22  4.632531734961980E-012
                    23  1.776768732782176E-004
                    24 -4.795023761518630E-006
                    25  3.054468604833590E-012
                    26 -1.596632321073760E-005
                    27  9.001223110042138E-005
                    28  3.888390349985500E-013
                    29  1.424307026837850E-012
                    30 -1.594520941326752E-005
                    31  1.450223458377717E-004
                    32   1.00102221671479     
                    33  9.329930407884920E-003
                    34  2.725487093587480E-003
                    35 -8.105328464649290E-003
                    36 -1.066922095340080E-004
                    37 -3.609147028819230E-003
                    38 -9.390130329656160E-013
                    39  1.210263663075620E-004
                    40  4.493208711895960E-004
                    41 -1.502929608782370E-012
                    42  5.167273335088270E-005
                    43  4.233615724964090E-003
                    44  1.362030125455360E-012
                    45 -5.697467423801569E-004
                    46  2.213997176873780E-013
                    47  2.666173387130660E-012
                    48 -1.991921851530976E-004
                    49 -5.476871718497220E-006
                    50  5.481793959053876E-004
                    51  3.254190204672250E-013
                    52 -1.167013602884060E-013
                    53 -9.195988198704660E-004
                    54  6.457368154603670E-005
                    55 -1.367453593887400E-012
                    56 -3.500243155808744E-006
                    57  9.354364716642788E-005
                    58  2.568530181685120E-012
                    59 -1.254569033727850E-012
                    60  8.557024580327869E-007
                    61  4.034170756161083E-004
                    62  9.089600194500650E-003
                    63 -2.087424755308930E-003
                    64 -2.954180734815500E-004
                    65  3.082283604833810E-003
                    66 -1.344614071923370E-005
                    67  9.907835593746479E-005
                    68  3.102479541403800E-013
                    69  7.371261383510130E-004
                    70 -1.746107888414530E-005
                    71 -2.566744627731600E-012
                    72 -2.054807441492610E-003
                    73  6.692904508513760E-005
                    74 -4.606368619163350E-012
                    75  2.600241613334589E-005
                    76 -1.859814879398170E-012
                    77  1.426182498299290E-012
                    78 -2.569422589702500E-006
                    79  1.191404095365200E-006
                    80 -4.085537649083795E-004
                    81 -6.619785744032540E-013
                    82 -5.925066493027220E-012
                    83 -5.830754734756920E-004
                    84 -3.812656413957580E-004
                    85 -1.087678872255638E-012
                    86  3.347160336483504E-005
                    87 -5.875728629482007E-005
                    88 -2.479360574344780E-012
                    89  2.348148460172190E-012
                    90  5.234385124529934E-005
                    91  1.409653483150775E-004
                    92  9.774019037386950E-003
                    93 -2.070139230437960E-003
                    94 -2.821124207152130E-004
                    95  3.027838641820010E-003
                    96  4.828857311395100E-006
                    97  7.101596144733800E-005
                    98 -2.903917973847960E-012
                    99 -6.609922271523530E-004
                   100  4.363853958863510E-005
                   101  1.698373536738230E-012
                   102  2.051933713992890E-003
                   103  6.935469719292169E-005
                   104  1.052643550042210E-012
                   105  3.038671082715279E-005
                   106  3.053023918987240E-012
                   107 -2.978550487846580E-013
                   108 -4.089476406356360E-006
                   109 -7.529891234801600E-006
                   110 -4.112779039775230E-004
                   111 -6.218932716425370E-012
                   112  4.631487403401440E-012
                   113 -6.209155316425080E-004
                   114  3.729311150086760E-004
                   115  1.094154560257359E-012
                   116 -3.209784266151746E-005
                   117 -5.929920358899611E-005
                   118 -6.382728295540360E-013
                   119 -8.450030865976450E-013
                   120 -5.002996510876364E-005
                   121  1.372226905701138E-004
                   122 -1.607356740269420E-004
                   123 -6.784309198211280E-004
                   124  2.234288570969910E-004
                   125 -9.682384832961571E-005
                   126 -3.208275103779530E-006
                   127 -3.305183193348050E-004
                   128 -2.175926293651440E-012
                   129 -6.110798472365350E-005
                   130  5.305460788916530E-004
                   131  6.522605420973760E-012
                   132  3.137095156200800E-004
                   133  7.542384080326590E-004
                   134  7.458114111381580E-012
                   135  1.845618521060786E-005
                   136  8.041653811172480E-013
                   137  2.337545225559880E-013
                   138  3.624777516606860E-006
                   139  5.258533739689940E-005
                   140  1.365503480128499E-004
                   141  2.640678064448820E-012
                   142 -6.328116029663750E-012
                   143  2.397241235598320E-004
                   144 -1.811476400499400E-004
                   145 -3.702018603559401E-012
                   146  7.232077488490769E-006
                   147 -3.357679773640262E-005
                   148 -2.044773849517980E-012
                   149  7.009050320617670E-013
                   150 -4.774500727367520E-005
                   151  2.874650613132806E-005
                   152 -1.389359898202540E-004
                   153 -6.839402412734670E-004
                   154  2.292537944635940E-004
                   155 -1.330983664084230E-004
                   156  2.217234140375050E-006
                   157 -3.247737174136400E-004
                   158  3.727890569253510E-012
                   159  4.335423208204280E-005
                   160  5.639336318804281E-004