[Molden Format]
[Atoms] AU
  N     1    7    -0.0549152700   -4.2735198100    0.0000000000        
  C     2    6     0.0285601200   -1.8174976400    0.0000000000        
  C     3    6    -2.3131921400   -0.4324575600    0.0000000000        
  C     4    6     2.3522761600   -0.4028048800    0.0000000000        
  C     5    6    -2.2938027600    2.1470365800    0.0000000000        
  C     6    6     2.3041986000    2.1755488800    0.0000000000        
  C     7    6    -0.0049720700    3.4825826200    0.0000000000        
  H     8    1    -2.1769651400   -5.5418543200    0.0000000000        
  H     9    1     1.5806400400   -5.2571445400    0.0000000000        
  H    10    1    -4.0388598200   -1.4897553600    0.0000000000        
  H    11    1     4.1080261500   -1.4188426600    0.0000000000        
  H    12    1    -4.0494181600    3.1676862300    0.0000000000        
  H    13    1     4.0453705100    3.2198404700    0.0000000000        
  H    14    1    -0.0153123300    5.5120621100    0.0000000000        
[5D]
[7F]
[GTO]
  1  0
   s    12 1.00
  0.114200D+05  0.172695D-04
  0.171200D+04  0.134411D-03
  0.389300D+03  0.694561D-03
  0.110000D+03  0.278531D-02
  0.355700D+02  0.863457D-02
  0.125400D+02  0.199805D-01
  0.464400D+01  0.262908D-01
  0.129300D+01 -0.243845D-01
  0.511800D+00 -0.924934D-01
  0.178700D+00 -0.339683D+00
  0.246240D-01  0.345111D+00
  0.112530D-01  0.752750D+00
   s    10 1.00
  0.114200D+05  0.523000D-03
  0.171200D+04  0.404500D-02
  0.389300D+03  0.207750D-01
  0.110000D+03  0.807269D-01
  0.355700D+02  0.233074D+00
  0.125400D+02  0.433501D+00
  0.464400D+01  0.347472D+00
  0.129300D+01  0.412620D-01
  0.511800D+00 -0.850799D-02
  0.178700D+00  0.238400D-02
   s    10 1.00
  0.114200D+05 -0.115000D-03
  0.171200D+04 -0.895000D-03
  0.389300D+03 -0.462400D-02
  0.110000D+03 -0.185280D-01
  0.355700D+02 -0.573390D-01
  0.125400D+02 -0.132076D+00
  0.464400D+01 -0.172510D+00
  0.129300D+01  0.151814D+00
  0.511800D+00  0.599944D+00
  0.178700D+00  0.387462D+00
   s     1 1.00
  0.129300D+01  0.100000D+01
   s     1 1.00
  0.178700D+00  0.100000D+01
   p     5 1.00
  0.266300D+02  0.146700D-01
  0.594800D+01  0.917640D-01
  0.174200D+01  0.298683D+00
  0.555000D+00  0.498487D+00
  0.172500D+00  0.337023D+00
   p     1 1.00
  0.174200D+01  0.100000D+01
   p     1 1.00
  0.555000D+00  0.100000D+01
   d     1 1.00
  0.165400D+01  0.100000D+01
   d     1 1.00
  0.469000D+00  0.100000D+01
   f     1 1.00
  0.109300D+01  0.100000D+01
  
  2  0
   s    10 1.00
  0.823600D+04  0.531000D-03
  0.123500D+04  0.410800D-02
  0.280800D+03  0.210870D-01
  0.792700D+02  0.818530D-01
  0.255900D+02  0.234817D+00
  0.899700D+01  0.434401D+00
  0.331900D+01  0.346129D+00
  0.905900D+00  0.393780D-01
  0.364300D+00 -0.898300D-02
  0.128500D+00  0.238500D-02
   s    10 1.00
  0.823600D+04 -0.113000D-03
  0.123500D+04 -0.878000D-03
  0.280800D+03 -0.454000D-02
  0.792700D+02 -0.181330D-01
  0.255900D+02 -0.557600D-01
  0.899700D+01 -0.126895D+00
  0.331900D+01 -0.170352D+00
  0.905900D+00  0.140382D+00
  0.364300D+00  0.598684D+00
  0.128500D+00  0.395389D+00
   s     1 1.00
  0.905900D+00  0.100000D+01
   s     1 1.00
  0.364300D+00  0.100000D+01
   p     5 1.00
  0.187100D+02  0.140310D-01
  0.413300D+01  0.868660D-01
  0.120000D+01  0.290216D+00
  0.382700D+00  0.501008D+00
  0.120900D+00  0.343406D+00
   p     1 1.00
  0.382700D+00  0.100000D+01
   p     1 1.00
  0.120900D+00  0.100000D+01
   d     1 1.00
  0.109700D+01  0.100000D+01
   d     1 1.00
  0.318000D+00  0.100000D+01
   f     1 1.00
  0.761000D+00  0.100000D+01
  
  3  0
   s    10 1.00
  0.823600D+04  0.531000D-03
  0.123500D+04  0.410800D-02
  0.280800D+03  0.210870D-01
  0.792700D+02  0.818530D-01
  0.255900D+02  0.234817D+00
  0.899700D+01  0.434401D+00
  0.331900D+01  0.346129D+00
  0.905900D+00  0.393780D-01
  0.364300D+00 -0.898300D-02
  0.128500D+00  0.238500D-02
   s    10 1.00
  0.823600D+04 -0.113000D-03
  0.123500D+04 -0.878000D-03
  0.280800D+03 -0.454000D-02
  0.792700D+02 -0.181330D-01
  0.255900D+02 -0.557600D-01
  0.899700D+01 -0.126895D+00
  0.331900D+01 -0.170352D+00
  0.905900D+00  0.140382D+00
  0.364300D+00  0.598684D+00
  0.128500D+00  0.395389D+00
   s     1 1.00
  0.905900D+00  0.100000D+01
   s     1 1.00
  0.364300D+00  0.100000D+01
   p     5 1.00
  0.187100D+02  0.140310D-01
  0.413300D+01  0.868660D-01
  0.120000D+01  0.290216D+00
  0.382700D+00  0.501008D+00
  0.120900D+00  0.343406D+00
   p     1 1.00
  0.382700D+00  0.100000D+01
   p     1 1.00
  0.120900D+00  0.100000D+01
   d     1 1.00
  0.109700D+01  0.100000D+01
   d     1 1.00
  0.318000D+00  0.100000D+01
   f     1 1.00
  0.761000D+00  0.100000D+01
  
  4  0
   s    10 1.00
  0.823600D+04  0.531000D-03
  0.123500D+04  0.410800D-02
  0.280800D+03  0.210870D-01
  0.792700D+02  0.818530D-01
  0.255900D+02  0.234817D+00
  0.899700D+01  0.434401D+00
  0.331900D+01  0.346129D+00
  0.905900D+00  0.393780D-01
  0.364300D+00 -0.898300D-02
  0.128500D+00  0.238500D-02
   s    10 1.00
  0.823600D+04 -0.113000D-03
  0.123500D+04 -0.878000D-03
  0.280800D+03 -0.454000D-02
  0.792700D+02 -0.181330D-01
  0.255900D+02 -0.557600D-01
  0.899700D+01 -0.126895D+00
  0.331900D+01 -0.170352D+00
  0.905900D+00  0.140382D+00
  0.364300D+00  0.598684D+00
  0.128500D+00  0.395389D+00
   s     1 1.00
  0.905900D+00  0.100000D+01
   s     1 1.00
  0.364300D+00  0.100000D+01
   p     5 1.00
  0.187100D+02  0.140310D-01
  0.413300D+01  0.868660D-01
  0.120000D+01  0.290216D+00
  0.382700D+00  0.501008D+00
  0.120900D+00  0.343406D+00
   p     1 1.00
  0.382700D+00  0.100000D+01
   p     1 1.00
  0.120900D+00  0.100000D+01
   d     1 1.00
  0.109700D+01  0.100000D+01
   d     1 1.00
  0.318000D+00  0.100000D+01
   f     1 1.00
  0.761000D+00  0.100000D+01
  
  5  0
   s    10 1.00
  0.823600D+04  0.531000D-03
  0.123500D+04  0.410800D-02
  0.280800D+03  0.210870D-01
  0.792700D+02  0.818530D-01
  0.255900D+02  0.234817D+00
  0.899700D+01  0.434401D+00
  0.331900D+01  0.346129D+00
  0.905900D+00  0.393780D-01
  0.364300D+00 -0.898300D-02
  0.128500D+00  0.238500D-02
   s    10 1.00
  0.823600D+04 -0.113000D-03
  0.123500D+04 -0.878000D-03
  0.280800D+03 -0.454000D-02
  0.792700D+02 -0.181330D-01
  0.255900D+02 -0.557600D-01
  0.899700D+01 -0.126895D+00
  0.331900D+01 -0.170352D+00
  0.905900D+00  0.140382D+00
  0.364300D+00  0.598684D+00
  0.128500D+00  0.395389D+00
   s     1 1.00
  0.905900D+00  0.100000D+01
   s     1 1.00
  0.364300D+00  0.100000D+01
   p     5 1.00
  0.187100D+02  0.140310D-01
  0.413300D+01  0.868660D-01
  0.120000D+01  0.290216D+00
  0.382700D+00  0.501008D+00
  0.120900D+00  0.343406D+00
   p     1 1.00
  0.382700D+00  0.100000D+01
   p     1 1.00
  0.120900D+00  0.100000D+01
   d     1 1.00
  0.109700D+01  0.100000D+01
   d     1 1.00
  0.318000D+00  0.100000D+01
   f     1 1.00
  0.761000D+00  0.100000D+01
  
  6  0
   s    10 1.00
  0.823600D+04  0.531000D-03
  0.123500D+04  0.410800D-02
  0.280800D+03  0.210870D-01
  0.792700D+02  0.818530D-01
  0.255900D+02  0.234817D+00
  0.899700D+01  0.434401D+00
  0.331900D+01  0.346129D+00
  0.905900D+00  0.393780D-01
  0.364300D+00 -0.898300D-02
  0.128500D+00  0.238500D-02
   s    10 1.00
  0.823600D+04 -0.113000D-03
  0.123500D+04 -0.878000D-03
  0.280800D+03 -0.454000D-02
  0.792700D+02 -0.181330D-01
  0.255900D+02 -0.557600D-01
  0.899700D+01 -0.126895D+00
  0.331900D+01 -0.170352D+00
  0.905900D+00  0.140382D+00
  0.364300D+00  0.598684D+00
  0.128500D+00  0.395389D+00
   s     1 1.00
  0.905900D+00  0.100000D+01
   s     1 1.00
  0.364300D+00  0.100000D+01
   p     5 1.00
  0.187100D+02  0.140310D-01
  0.413300D+01  0.868660D-01
  0.120000D+01  0.290216D+00
  0.382700D+00  0.501008D+00
  0.120900D+00  0.343406D+00
   p     1 1.00
  0.382700D+00  0.100000D+01
   p     1 1.00
  0.120900D+00  0.100000D+01
   d     1 1.00
  0.109700D+01  0.100000D+01
   d     1 1.00
  0.318000D+00  0.100000D+01
   f     1 1.00
  0.761000D+00  0.100000D+01
  
  7  0
   s    10 1.00
  0.823600D+04  0.531000D-03
  0.123500D+04  0.410800D-02
  0.280800D+03  0.210870D-01
  0.792700D+02  0.818530D-01
  0.255900D+02  0.234817D+00
  0.899700D+01  0.434401D+00
  0.331900D+01  0.346129D+00
  0.905900D+00  0.393780D-01
  0.364300D+00 -0.898300D-02
  0.128500D+00  0.238500D-02
   s    10 1.00
  0.823600D+04 -0.113000D-03
  0.123500D+04 -0.878000D-03
  0.280800D+03 -0.454000D-02
  0.792700D+02 -0.181330D-01
  0.255900D+02 -0.557600D-01
  0.899700D+01 -0.126895D+00
  0.331900D+01 -0.170352D+00
  0.905900D+00  0.140382D+00
  0.364300D+00  0.598684D+00
  0.128500D+00  0.395389D+00
   s     1 1.00
  0.905900D+00  0.100000D+01
   s     1 1.00
  0.364300D+00  0.100000D+01
   p     5 1.00
  0.187100D+02  0.140310D-01
  0.413300D+01  0.868660D-01
  0.120000D+01  0.290216D+00
  0.382700D+00  0.501008D+00
  0.120900D+00  0.343406D+00
   p     1 1.00
  0.382700D+00  0.100000D+01
   p     1 1.00
  0.120900D+00  0.100000D+01
   d     1 1.00
  0.109700D+01  0.100000D+01
   d     1 1.00
  0.318000D+00  0.100000D+01
   f     1 1.00
  0.761000D+00  0.100000D+01
  
  8  0
   s     4 1.00
  0.130100D+02  0.196850D-01
  0.196200D+01  0.137977D+00
  0.444600D+00  0.478148D+00
  0.122000D+00  0.501240D+00
   s     1 1.00
  0.122000D+00  0.100000D+01
   p     1 1.00
  0.727000D+00  0.100000D+01
  
  9  0
   s     4 1.00
  0.130100D+02  0.196850D-01
  0.196200D+01  0.137977D+00
  0.444600D+00  0.478148D+00
  0.122000D+00  0.501240D+00
   s     1 1.00
  0.122000D+00  0.100000D+01
   p     1 1.00
  0.727000D+00  0.100000D+01
  
 10  0
   s     4 1.00
  0.130100D+02  0.196850D-01
  0.196200D+01  0.137977D+00
  0.444600D+00  0.478148D+00
  0.122000D+00  0.501240D+00
   s     1 1.00
  0.122000D+00  0.100000D+01
   p     1 1.00
  0.727000D+00  0.100000D+01
  
 11  0
   s     4 1.00
  0.130100D+02  0.196850D-01
  0.196200D+01  0.137977D+00
  0.444600D+00  0.478148D+00
  0.122000D+00  0.501240D+00
   s     1 1.00
  0.122000D+00  0.100000D+01
   p     1 1.00
  0.727000D+00  0.100000D+01
  
 12  0
   s     4 1.00
  0.130100D+02  0.196850D-01
  0.196200D+01  0.137977D+00
  0.444600D+00  0.478148D+00
  0.122000D+00  0.501240D+00
   s     1 1.00
  0.122000D+00  0.100000D+01
   p     1 1.00
  0.727000D+00  0.100000D+01
  
 13  0
   s     4 1.00
  0.130100D+02  0.196850D-01
  0.196200D+01  0.137977D+00
  0.444600D+00  0.478148D+00
  0.122000D+00  0.501240D+00
   s     1 1.00
  0.122000D+00  0.100000D+01
   p     1 1.00
  0.727000D+00  0.100000D+01
  
 14  0
   s     4 1.00
  0.130100D+02  0.196850D-01
  0.196200D+01  0.137977D+00
  0.444600D+00  0.478148D+00
  0.122000D+00  0.501240D+00
   s     1 1.00
  0.122000D+00  0.100000D+01
   p     1 1.00
  0.727000D+00  0.100000D+01
  
[MO]
 Sym= __1_A'_
 Ene=  0.000000000000000E+000
 Spin= Alpha
 Occup=    2.00000000000000     
                     1 -3.364567913061672E-006
                     2  0.998501294378336     
                     3 -3.854082161533840E-004
                     4  1.866947799482995E-003
                     5  3.543416219543322E-003
                     6  9.632424525918231E-004
                     7  4.555383433378233E-003
                     8  0.000000000000000E+000
                     9 -1.317775329419952E-004
                    10 -6.167375301279858E-005
                    11  0.000000000000000E+000
                    12 -6.706745816840688E-004
                    13 -5.876742415545581E-004
                    14  0.000000000000000E+000
                    15 -1.321422039065053E-004
                    16  0.000000000000000E+000
                    17  0.000000000000000E+000
                    18 -2.190665126318724E-004
                    19 -4.100533894492455E-005
                    20  3.433958092650129E-004
                    21  0.000000000000000E+000
                    22  0.000000000000000E+000
                    23 -2.069981506391902E-004
                    24  7.663606395372180E-005
                    25  0.000000000000000E+000
                    26 -1.787993567183071E-005
                    27 -4.583173214149694E-005
                    28  0.000000000000000E+000
                    29  0.000000000000000E+000
                    30  1.130651857103860E-005
                    31 -1.155387206386967E-004
                    32 -2.283278994907322E-004
                    33  1.410132542106160E-003
                    34  1.924180995736729E-004
                    35 -5.582614021848517E-005
                    36 -9.472208217085330E-005
                    37 -3.818364489283861E-003
                    38  0.000000000000000E+000
                    39  2.620069959627900E-005
                    40  5.974211443929651E-005
                    41  0.000000000000000E+000
                    42 -3.941224062656525E-004
                    43  4.060628892776108E-003
                    44  0.000000000000000E+000
                    45 -3.082680150123891E-006
                    46  0.000000000000000E+000
                    47  0.000000000000000E+000
                    48 -1.839229687658312E-004
                    49 -2.975235021530732E-006
                    50 -2.975241571811415E-004
                    51  0.000000000000000E+000
                    52  0.000000000000000E+000
                    53  7.510288967388716E-005
                    54  1.067900462503522E-004
                    55  0.000000000000000E+000
                    56 -2.455318925565101E-006
                    57 -5.980104809019810E-005
                    58  0.000000000000000E+000
                    59  0.000000000000000E+000
                    60  3.974625328820724E-005
                    61 -1.527531732424524E-004
                    62 -2.420356448395965E-004
                    63 -1.150084164718403E-003
                    64 -1.246956520287684E-005
                    65  8.782694781784608E-004
                    66 -4.191946903075109E-004
                    67  1.899704411113441E-004
                    68  0.000000000000000E+000
                    69  2.387379440377687E-005
                    70  6.875962368451895E-004
                    71  0.000000000000000E+000
                    72 -1.039012599352998E-003
                    73  9.895974512207024E-005
                    74  0.000000000000000E+000
                    75 -2.361104551317096E-005
                    76  0.000000000000000E+000
                    77  0.000000000000000E+000
                    78 -4.207504490296412E-005
                    79 -7.184780134902023E-006
                    80 -5.219488572817479E-005
                    81  0.000000000000000E+000
                    82  0.000000000000000E+000
                    83 -5.235423552211820E-005
                    84  5.218815005620360E-005
                    85  0.000000000000000E+000
                    86  1.564421231444329E-005
                    87 -4.059290776117562E-005
                    88  0.000000000000000E+000
                    89  0.000000000000000E+000
                    90 -4.632027026233014E-005
                    91 -1.070707080278343E-004
                    92 -2.042600925544608E-004
                    93 -1.040913576663278E-003
                    94  6.698846251029360E-005
                    95  4.600353466606564E-004
                    96  4.118554562777180E-004
                    97  2.790190839927487E-004
                    98  0.000000000000000E+000
                    99  6.141943223457092E-005
                   100  4.584765350363662E-004
                   101  0.000000000000000E+000
                   102  5.711357568623505E-004
                   103 -4.999582640626105E-004
                   104  0.000000000000000E+000
                   105 -1.753168011161356E-005
                   106  0.000000000000000E+000
                   107  0.000000000000000E+000
                   108 -6.155419831650647E-005
                   109  6.254883610565355E-006
                   110  2.900398651440888E-006
                   111  0.000000000000000E+000
                   112  0.000000000000000E+000
                   113  3.136604206377676E-005
                   114 -2.859971066332981E-005
                   115  0.000000000000000E+000
                   116 -1.859907424983264E-005
                   117 -2.867170240831831E-005
                   118  0.000000000000000E+000
                   119  0.000000000000000E+000
                   120  5.674792140611757E-006
                   121 -8.394154297616463E-005
                   122 -1.567259507380253E-004
                   123 -3.272826314541968E-004
                   124  1.297292788193590E-004
                   125  7.410694424729679E-005
                   126 -7.211446620671043E-006
                   127 -3.049060583821673E-004
                   128  0.000000000000000E+000
                   129  1.266539418501508E-004
                   130  4.395843628482283E-004
                   131  0.000000000000000E+000
                   132  7.361583801523417E-005
                   133  8.853228852174630E-004
                   134  0.000000000000000E+000
                   135  1.568489194600439E-005
                   136  0.000000000000000E+000
                   137  0.000000000000000E+000
                   138  3.207849694662184E-005
                   139 -5.805315639488341E-006
                   140  1.201040027352314E-004
                   141  0.000000000000000E+000
                   142  0.000000000000000E+000
                   143  2.288988923425066E-004
                   144  1.125619567378936E-004
                   145  0.000000000000000E+000
                   146 -9.377426831952787E-006
                   147 -3.789798174668618E-005
                   148  0.000000000000000E+000
                   149  0.000000000000000E+000
                   150  1.313517796950922E-005
                   151 -3.510091634850457E-005
                   152 -1.407490391549460E-004
                   153 -2.777897118641912E-004
                   154  8.662308108105684E-005
                   155  2.004881516705789E-004
                   156 -4.675322164574331E-006
                   157 -2.756715268969798E-004
                   158  0.000000000000000E+000
                   159 -5.341611343379399E-005
                   160  1.869895369699948E-004
                   161  0.000000000000000E+000
                   162  3.614152486773292E-004
                   163  4.110909870225888E-004
                   164  0.000000000000000E+000
                   165  6.647771595940691E-006
                   166  0.000000000000000E+000
                   167  0.000000000000000E+000
                   168  1.837661440171152E-005
                   169  6.361106713232011E-006
                   170  1.170992473545750E-004
                   171  0.000000000000000E+000
                   172  0.000000000000000E+000
                   173  1.136006114961565E-004
                   174 -8.063454822071417E-005
                   175  0.000000000000000E+000
                   176  4.346996546576867E-006
                   177 -2.597423786551038E-005
                   178  0.000000000000000E+000
                   179  0.000000000000000E+000
                   180 -6.642413285855452E-006
                   181 -3.305435400001468E-005
                   182 -1.118301782548529E-004
                   183 -3.048559773858415E-004
                   184  3.023158970122645E-005
                   185  1.582091688102680E-004
                   186 -1.646157583113417E-005
                   187 -5.565312779366423E-005
                   188  0.000000000000000E+000
                   189  8.401988623612409E-005
                   190  5.037404404699216E-005
                   191  0.000000000000000E+000
                   192  2.942228037982371E-004
                   193 -7.217747207897411E-005
                   194  0.000000000000000E+000
                   195 -1.591747811071610E-006
                   196  0.000000000000000E+000
                   197  0.000000000000000E+000
                   198 -9.658654812092937E-006
                   199 -3.314178706016971E-007
                   200  1.037965111968176E-005
                   201  0.000000000000000E+000
                   202  0.000000000000000E+000
                   203 -5.736406519431814E-005
                   204 -5.301874945855571E-005
                   205  0.000000000000000E+000
                   206 -3.808481968341318E-006
                   207 -4.422842412524847E-006
                   208  0.000000000000000E+000
                   209  0.000000000000000E+000
                   210 -2.704119297585681E-006
                   211 -6.592308623504142E-006
                   212 -2.449626107971015E-004
                   213 -2.377020663720261E-004
                   214  2.143241390715702E-004
                   215  1.847516246373025E-004
                   216  0.000000000000000E+000
                   217  2.377154489004435E-004
                   218 -7.477391826152525E-004
                   219 -1.680855106780324E-004
                   220  1.640782069916703E-004
                   221  0.000000000000000E+000
                   222 -2.013523103583365E-004
                   223 -4.788104522089673E-004
                   224 -5.107967533481376E-006
                   225 -2.675430815577396E-005
                   226  0.000000000000000E+000
                   227 -2.095893771635175E-004
                   228 -3.115833451824096E-004
                   229 -1.520471492001371E-005
                   230 -4.186041647232349E-005
                   231  0.000000000000000E+000
                   232 -5.740299516735217E-005
                   233 -3.503808116939120E-004
                   234  6.734049534313033E-006
                   235  2.834757104137847E-006
                   236  0.000000000000000E+000
                   237 -3.816207709728402E-005
                   238 -4.230366863174168E-004
                   239 -7.961768061845948E-006
                   240 -3.368171529563348E-006
                   241  0.000000000000000E+000
                   242 -1.650950484968560E-005
                   243 -5.952676473507901E-005
                   244  1.731556584336307E-006
                   245  1.751598779947082E-005
                   246  0.000000000000000E+000
 Sym= __2_A'_
 Ene=  0.000000000000000E+000
 Spin= Alpha
 Occup=    2.00000000000000     
                     1 -5.393054487637705E-005
                     2 -3.793417571314028E-004
                     3  2.715625658269351E-003
                     4  1.560023977643693E-004
                     5  1.386783788419529E-003
                     6 -1.539027082774761E-004
                     7  3.227192299383140E-003
                     8  0.000000000000000E+000
                     9 -8.033501917208935E-006
                    10 -8.036931858939732E-005
                    11  0.000000000000000E+000
                    12  1.350379129308412E-005
                    13 -5.918190183392643E-004
                    14  0.000000000000000E+000
                    15  4.138204104248586E-005
                    16  0.000000000000000E+000
                    17  0.000000000000000E+000
                    18 -5.547355864384212E-005
                    19  5.498710301835821E-006
                    20 -1.216836051122927E-004
                    21  0.000000000000000E+000
                    22  0.000000000000000E+000
                    23  3.309731834957274E-004
                    24 -9.178987466224449E-005
                    25  0.000000000000000E+000
                    26 -1.186288531985475E-005
                    27  1.068584826117027E-004
                    28  0.000000000000000E+000
                    29  0.000000000000000E+000
                    30 -4.717323475196064E-005
                    31  1.403877960716985E-004
                    32   1.00096318614180     
                    33  9.425474551554311E-003
                    34  2.804082752606538E-003
                    35 -7.795264851344448E-003
                    36 -1.248216485681196E-005
                    37 -4.571246397806253E-003
                    38  0.000000000000000E+000
                    39 -1.648317094308924E-004
                    40  1.050293179901745E-003
                    41  0.000000000000000E+000
                    42 -8.393008069628035E-005
                    43  4.700914475772483E-003
                    44  0.000000000000000E+000
                    45 -6.306062274902267E-004
                    46  0.000000000000000E+000
                    47  0.000000000000000E+000
                    48 -3.026280859626378E-004
                    49  3.725378210671766E-005
                    50  4.965195705816429E-004
                    51  0.000000000000000E+000
                    52  0.000000000000000E+000
                    53 -7.432299175015952E-004
                    54 -2.744096112489799E-004
                    55  0.000000000000000E+000
                    56  1.119971024802224E-005
                    57  9.910950272846021E-005
                    58  0.000000000000000E+000
                    59  0.000000000000000E+000
                    60 -3.117911521883078E-005
                    61  4.633983691920998E-004
                    62  6.770399756236472E-003
                    63 -2.128392731098794E-003
                    64 -2.204400489914924E-004
                    65  2.764262274449082E-003
                    66  4.033955250738548E-005
                    67  3.831625318639540E-007
                    68  0.000000000000000E+000
                    69  4.836417757524400E-004
                    70  1.457975861972647E-004
                    71  0.000000000000000E+000
                    72 -2.198339685148183E-003
                    73  2.669940673336286E-004
                    74  0.000000000000000E+000
                    75  4.068103473153543E-005
                    76  0.000000000000000E+000
                    77  0.000000000000000E+000
                    78 -8.516593384780839E-006
                    79  1.404953174064787E-005
                    80 -3.848227478290678E-004
                    81  0.000000000000000E+000
                    82  0.000000000000000E+000
                    83 -6.584865338270615E-004
                    84 -2.821157890477089E-004
                    85  0.000000000000000E+000
                    86  3.142125452218350E-005
                    87 -5.491123564621158E-005
                    88  0.000000000000000E+000
                    89  0.000000000000000E+000
                    90  5.985696521923161E-005
                    91  1.545742834496908E-004
                    92  7.317435837723109E-003
                    93 -2.176050214744436E-003
                    94 -2.831995533596727E-004
                    95  3.141952406752609E-003
                    96  1.777551773612765E-005
                    97 -5.855755944202621E-006
                    98  0.000000000000000E+000
                    99 -7.835123263795910E-004
                   100  7.350375551652738E-005
                   101  0.000000000000000E+000
                   102  1.964115708243401E-003
                   103  9.210966773613922E-005
                   104  0.000000000000000E+000
                   105  3.164654068518471E-005
                   106  0.000000000000000E+000
                   107  0.000000000000000E+000
                   108 -3.533382381282416E-006
                   109 -4.647424233175886E-006
                   110 -3.992977974807882E-004
                   111  0.000000000000000E+000
                   112  0.000000000000000E+000
                   113 -4.930994494304818E-004
                   114  2.957327931391782E-004
                   115  0.000000000000000E+000
                   116 -3.002470234590265E-005
                   117 -6.398199083339164E-005
                   118  0.000000000000000E+000
                   119  0.000000000000000E+000
                   120 -3.208211650618118E-005
                   121  1.455994245297751E-004
                   122 -2.655919105237335E-004
                   123 -7.906850117754431E-004
                   124  2.238058330160338E-004
                   125 -6.308995151369634E-005
                   126 -2.337249799671268E-006
                   127 -2.811811656452547E-004
                   128  0.000000000000000E+000
                   129 -6.393590142647748E-005
                   130  5.618083817670235E-004
                   131  0.000000000000000E+000
                   132  3.730061349938878E-004
                   133  8.999800269269991E-004
                   134  0.000000000000000E+000
                   135  1.736046302315555E-005
                   136  0.000000000000000E+000
                   137  0.000000000000000E+000
                   138  1.897526549955099E-006
                   139  4.850071572172243E-005
                   140  1.266398321008099E-004
                   141  0.000000000000000E+000
                   142  0.000000000000000E+000
                   143  2.621292929911536E-004
                   144 -1.471946364704891E-004
                   145  0.000000000000000E+000
                   146  8.838681667434316E-006
                   147 -3.331859959556804E-005
                   148  0.000000000000000E+000
                   149  0.000000000000000E+000
                   150 -4.752115155734715E-005
                   151  3.492431658100365E-005
                   152 -2.301911836738711E-004
                   153 -7.750610808132591E-004
                   154  2.309796264308922E-004
                   155 -3.658019150173256E-005
                   156 -1.050217527522953E-005
                   157 -2.828426880168293E-004
                   158  0.000000000000000E+000
                   159  9.639486549319977E-005
                   160  5.375662781439898E-004