[Molden Format]
[Atoms] AU
  N     1    7    -0.0549152700   -4.2735198100    0.0000000000        
  C     2    6     0.0285601200   -1.8174976400    0.0000000000        
  C     3    6    -2.3131921400   -0.4324575600    0.0000000000        
  C     4    6     2.3522761600   -0.4028048800    0.0000000000        
  C     5    6    -2.2938027600    2.1470365800    0.0000000000        
  C     6    6     2.3041986000    2.1755488800    0.0000000000        
  C     7    6    -0.0049720700    3.4825826200    0.0000000000        
  H     8    1    -2.1769651400   -5.5418543200    0.0000000000        
  H     9    1     1.5806400400   -5.2571445400    0.0000000000        
  H    10    1    -4.0388598200   -1.4897553600    0.0000000000        
  H    11    1     4.1080261500   -1.4188426600    0.0000000000        
  H    12    1    -4.0494181600    3.1676862300    0.0000000000        
  H    13    1     4.0453705100    3.2198404700    0.0000000000        
  H    14    1    -0.0153123300    5.5120621100    0.0000000000        
[5D]
[7F]
[GTO]
  1  0
   s    12 1.00
  0.114200D+05  0.172695D-04
  0.171200D+04  0.134411D-03
  0.389300D+03  0.694561D-03
  0.110000D+03  0.278531D-02
  0.355700D+02  0.863457D-02
  0.125400D+02  0.199805D-01
  0.464400D+01  0.262908D-01
  0.129300D+01 -0.243845D-01
  0.511800D+00 -0.924934D-01
  0.178700D+00 -0.339683D+00
  0.246240D-01  0.345111D+00
  0.112530D-01  0.752750D+00
   s    10 1.00
  0.114200D+05  0.523000D-03
  0.171200D+04  0.404500D-02
  0.389300D+03  0.207750D-01
  0.110000D+03  0.807269D-01
  0.355700D+02  0.233074D+00
  0.125400D+02  0.433501D+00
  0.464400D+01  0.347472D+00
  0.129300D+01  0.412620D-01
  0.511800D+00 -0.850799D-02
  0.178700D+00  0.238400D-02
   s    10 1.00
  0.114200D+05 -0.115000D-03
  0.171200D+04 -0.895000D-03
  0.389300D+03 -0.462400D-02
  0.110000D+03 -0.185280D-01
  0.355700D+02 -0.573390D-01
  0.125400D+02 -0.132076D+00
  0.464400D+01 -0.172510D+00
  0.129300D+01  0.151814D+00
  0.511800D+00  0.599944D+00
  0.178700D+00  0.387462D+00
   s     1 1.00
  0.129300D+01  0.100000D+01
   s     1 1.00
  0.178700D+00  0.100000D+01
   p     5 1.00
  0.266300D+02  0.146700D-01
  0.594800D+01  0.917640D-01
  0.174200D+01  0.298683D+00
  0.555000D+00  0.498487D+00
  0.172500D+00  0.337023D+00
   p     1 1.00
  0.174200D+01  0.100000D+01
   p     1 1.00
  0.555000D+00  0.100000D+01
   d     1 1.00
  0.165400D+01  0.100000D+01
   d     1 1.00
  0.469000D+00  0.100000D+01
   f     1 1.00
  0.109300D+01  0.100000D+01
  
  2  0
   s    10 1.00
  0.823600D+04  0.531000D-03
  0.123500D+04  0.410800D-02
  0.280800D+03  0.210870D-01
  0.792700D+02  0.818530D-01
  0.255900D+02  0.234817D+00
  0.899700D+01  0.434401D+00
  0.331900D+01  0.346129D+00
  0.905900D+00  0.393780D-01
  0.364300D+00 -0.898300D-02
  0.128500D+00  0.238500D-02
   s    10 1.00
  0.823600D+04 -0.113000D-03
  0.123500D+04 -0.878000D-03
  0.280800D+03 -0.454000D-02
  0.792700D+02 -0.181330D-01
  0.255900D+02 -0.557600D-01
  0.899700D+01 -0.126895D+00
  0.331900D+01 -0.170352D+00
  0.905900D+00  0.140382D+00
  0.364300D+00  0.598684D+00
  0.128500D+00  0.395389D+00
   s     1 1.00
  0.905900D+00  0.100000D+01
   s     1 1.00
  0.364300D+00  0.100000D+01
   p     5 1.00
  0.187100D+02  0.140310D-01
  0.413300D+01  0.868660D-01
  0.120000D+01  0.290216D+00
  0.382700D+00  0.501008D+00
  0.120900D+00  0.343406D+00
   p     1 1.00
  0.382700D+00  0.100000D+01
   p     1 1.00
  0.120900D+00  0.100000D+01
   d     1 1.00
  0.109700D+01  0.100000D+01
   d     1 1.00
  0.318000D+00  0.100000D+01
   f     1 1.00
  0.761000D+00  0.100000D+01
  
  3  0
   s    10 1.00
  0.823600D+04  0.531000D-03
  0.123500D+04  0.410800D-02
  0.280800D+03  0.210870D-01
  0.792700D+02  0.818530D-01
  0.255900D+02  0.234817D+00
  0.899700D+01  0.434401D+00
  0.331900D+01  0.346129D+00
  0.905900D+00  0.393780D-01
  0.364300D+00 -0.898300D-02
  0.128500D+00  0.238500D-02
   s    10 1.00
  0.823600D+04 -0.113000D-03
  0.123500D+04 -0.878000D-03
  0.280800D+03 -0.454000D-02
  0.792700D+02 -0.181330D-01
  0.255900D+02 -0.557600D-01
  0.899700D+01 -0.126895D+00
  0.331900D+01 -0.170352D+00
  0.905900D+00  0.140382D+00
  0.364300D+00  0.598684D+00
  0.128500D+00  0.395389D+00
   s     1 1.00
  0.905900D+00  0.100000D+01
   s     1 1.00
  0.364300D+00  0.100000D+01
   p     5 1.00
  0.187100D+02  0.140310D-01
  0.413300D+01  0.868660D-01
  0.120000D+01  0.290216D+00
  0.382700D+00  0.501008D+00
  0.120900D+00  0.343406D+00
   p     1 1.00
  0.382700D+00  0.100000D+01
   p     1 1.00
  0.120900D+00  0.100000D+01
   d     1 1.00
  0.109700D+01  0.100000D+01
   d     1 1.00
  0.318000D+00  0.100000D+01
   f     1 1.00
  0.761000D+00  0.100000D+01
  
  4  0
   s    10 1.00
  0.823600D+04  0.531000D-03
  0.123500D+04  0.410800D-02
  0.280800D+03  0.210870D-01
  0.792700D+02  0.818530D-01
  0.255900D+02  0.234817D+00
  0.899700D+01  0.434401D+00
  0.331900D+01  0.346129D+00
  0.905900D+00  0.393780D-01
  0.364300D+00 -0.898300D-02
  0.128500D+00  0.238500D-02
   s    10 1.00
  0.823600D+04 -0.113000D-03
  0.123500D+04 -0.878000D-03
  0.280800D+03 -0.454000D-02
  0.792700D+02 -0.181330D-01
  0.255900D+02 -0.557600D-01
  0.899700D+01 -0.126895D+00
  0.331900D+01 -0.170352D+00
  0.905900D+00  0.140382D+00
  0.364300D+00  0.598684D+00
  0.128500D+00  0.395389D+00
   s     1 1.00
  0.905900D+00  0.100000D+01
   s     1 1.00
  0.364300D+00  0.100000D+01
   p     5 1.00
  0.187100D+02  0.140310D-01
  0.413300D+01  0.868660D-01
  0.120000D+01  0.290216D+00
  0.382700D+00  0.501008D+00
  0.120900D+00  0.343406D+00
   p     1 1.00
  0.382700D+00  0.100000D+01
   p     1 1.00
  0.120900D+00  0.100000D+01
   d     1 1.00
  0.109700D+01  0.100000D+01
   d     1 1.00
  0.318000D+00  0.100000D+01
   f     1 1.00
  0.761000D+00  0.100000D+01
  
  5  0
   s    10 1.00
  0.823600D+04  0.531000D-03
  0.123500D+04  0.410800D-02
  0.280800D+03  0.210870D-01
  0.792700D+02  0.818530D-01
  0.255900D+02  0.234817D+00
  0.899700D+01  0.434401D+00
  0.331900D+01  0.346129D+00
  0.905900D+00  0.393780D-01
  0.364300D+00 -0.898300D-02
  0.128500D+00  0.238500D-02
   s    10 1.00
  0.823600D+04 -0.113000D-03
  0.123500D+04 -0.878000D-03
  0.280800D+03 -0.454000D-02
  0.792700D+02 -0.181330D-01
  0.255900D+02 -0.557600D-01
  0.899700D+01 -0.126895D+00
  0.331900D+01 -0.170352D+00
  0.905900D+00  0.140382D+00
  0.364300D+00  0.598684D+00
  0.128500D+00  0.395389D+00
   s     1 1.00
  0.905900D+00  0.100000D+01
   s     1 1.00
  0.364300D+00  0.100000D+01
   p     5 1.00
  0.187100D+02  0.140310D-01
  0.413300D+01  0.868660D-01
  0.120000D+01  0.290216D+00
  0.382700D+00  0.501008D+00
  0.120900D+00  0.343406D+00
   p     1 1.00
  0.382700D+00  0.100000D+01
   p     1 1.00
  0.120900D+00  0.100000D+01
   d     1 1.00
  0.109700D+01  0.100000D+01
   d     1 1.00
  0.318000D+00  0.100000D+01
   f     1 1.00
  0.761000D+00  0.100000D+01
  
  6  0
   s    10 1.00
  0.823600D+04  0.531000D-03
  0.123500D+04  0.410800D-02
  0.280800D+03  0.210870D-01
  0.792700D+02  0.818530D-01
  0.255900D+02  0.234817D+00
  0.899700D+01  0.434401D+00
  0.331900D+01  0.346129D+00
  0.905900D+00  0.393780D-01
  0.364300D+00 -0.898300D-02
  0.128500D+00  0.238500D-02
   s    10 1.00
  0.823600D+04 -0.113000D-03
  0.123500D+04 -0.878000D-03
  0.280800D+03 -0.454000D-02
  0.792700D+02 -0.181330D-01
  0.255900D+02 -0.557600D-01
  0.899700D+01 -0.126895D+00
  0.331900D+01 -0.170352D+00
  0.905900D+00  0.140382D+00
  0.364300D+00  0.598684D+00
  0.128500D+00  0.395389D+00
   s     1 1.00
  0.905900D+00  0.100000D+01
   s     1 1.00
  0.364300D+00  0.100000D+01
   p     5 1.00
  0.187100D+02  0.140310D-01
  0.413300D+01  0.868660D-01
  0.120000D+01  0.290216D+00
  0.382700D+00  0.501008D+00
  0.120900D+00  0.343406D+00
   p     1 1.00
  0.382700D+00  0.100000D+01
   p     1 1.00
  0.120900D+00  0.100000D+01
   d     1 1.00
  0.109700D+01  0.100000D+01
   d     1 1.00
  0.318000D+00  0.100000D+01
   f     1 1.00
  0.761000D+00  0.100000D+01
  
  7  0
   s    10 1.00
  0.823600D+04  0.531000D-03
  0.123500D+04  0.410800D-02
  0.280800D+03  0.210870D-01
  0.792700D+02  0.818530D-01
  0.255900D+02  0.234817D+00
  0.899700D+01  0.434401D+00
  0.331900D+01  0.346129D+00
  0.905900D+00  0.393780D-01
  0.364300D+00 -0.898300D-02
  0.128500D+00  0.238500D-02
   s    10 1.00
  0.823600D+04 -0.113000D-03
  0.123500D+04 -0.878000D-03
  0.280800D+03 -0.454000D-02
  0.792700D+02 -0.181330D-01
  0.255900D+02 -0.557600D-01
  0.899700D+01 -0.126895D+00
  0.331900D+01 -0.170352D+00
  0.905900D+00  0.140382D+00
  0.364300D+00  0.598684D+00
  0.128500D+00  0.395389D+00
   s     1 1.00
  0.905900D+00  0.100000D+01
   s     1 1.00
  0.364300D+00  0.100000D+01
   p     5 1.00
  0.187100D+02  0.140310D-01
  0.413300D+01  0.868660D-01
  0.120000D+01  0.290216D+00
  0.382700D+00  0.501008D+00
  0.120900D+00  0.343406D+00
   p     1 1.00
  0.382700D+00  0.100000D+01
   p     1 1.00
  0.120900D+00  0.100000D+01
   d     1 1.00
  0.109700D+01  0.100000D+01
   d     1 1.00
  0.318000D+00  0.100000D+01
   f     1 1.00
  0.761000D+00  0.100000D+01
  
  8  0
   s     4 1.00
  0.130100D+02  0.196850D-01
  0.196200D+01  0.137977D+00
  0.444600D+00  0.478148D+00
  0.122000D+00  0.501240D+00
   s     1 1.00
  0.122000D+00  0.100000D+01
   p     1 1.00
  0.727000D+00  0.100000D+01
  
  9  0
   s     4 1.00
  0.130100D+02  0.196850D-01
  0.196200D+01  0.137977D+00
  0.444600D+00  0.478148D+00
  0.122000D+00  0.501240D+00
   s     1 1.00
  0.122000D+00  0.100000D+01
   p     1 1.00
  0.727000D+00  0.100000D+01
  
 10  0
   s     4 1.00
  0.130100D+02  0.196850D-01
  0.196200D+01  0.137977D+00
  0.444600D+00  0.478148D+00
  0.122000D+00  0.501240D+00
   s     1 1.00
  0.122000D+00  0.100000D+01
   p     1 1.00
  0.727000D+00  0.100000D+01
  
 11  0
   s     4 1.00
  0.130100D+02  0.196850D-01
  0.196200D+01  0.137977D+00
  0.444600D+00  0.478148D+00
  0.122000D+00  0.501240D+00
   s     1 1.00
  0.122000D+00  0.100000D+01
   p     1 1.00
  0.727000D+00  0.100000D+01
  
 12  0
   s     4 1.00
  0.130100D+02  0.196850D-01
  0.196200D+01  0.137977D+00
  0.444600D+00  0.478148D+00
  0.122000D+00  0.501240D+00
   s     1 1.00
  0.122000D+00  0.100000D+01
   p     1 1.00
  0.727000D+00  0.100000D+01
  
 13  0
   s     4 1.00
  0.130100D+02  0.196850D-01
  0.196200D+01  0.137977D+00
  0.444600D+00  0.478148D+00
  0.122000D+00  0.501240D+00
   s     1 1.00
  0.122000D+00  0.100000D+01
   p     1 1.00
  0.727000D+00  0.100000D+01
  
 14  0
   s     4 1.00
  0.130100D+02  0.196850D-01
  0.196200D+01  0.137977D+00
  0.444600D+00  0.478148D+00
  0.122000D+00  0.501240D+00
   s     1 1.00
  0.122000D+00  0.100000D+01
   p     1 1.00
  0.727000D+00  0.100000D+01
  
[MO]
 Sym= __1_A'_
 Ene=   1.00000000000000     
 Spin= Alpha
 Occup=    1.00000000000000     
                     1 -3.364567881764679E-006
                     2  0.998501294378221     
                     3 -3.854082156091698E-004
                     4  1.866947799443022E-003
                     5  3.543416219031790E-003
                     6  9.632424538016584E-004
                     7  4.555383433929528E-003
                     8  0.000000000000000E+000
                     9 -1.317775329489786E-004
                    10 -6.167375294571217E-005
                    11  0.000000000000000E+000
                    12 -6.706745817105192E-004
                    13 -5.876742414889574E-004
                    14  0.000000000000000E+000
                    15 -1.321422039225700E-004
                    16  0.000000000000000E+000
                    17  0.000000000000000E+000
                    18 -2.190665126348408E-004
                    19 -4.100533874245309E-005
                    20  3.433958092164328E-004
                    21  0.000000000000000E+000
                    22  0.000000000000000E+000
                    23 -2.069981508004220E-004
                    24  7.663606465611921E-005
                    25  0.000000000000000E+000
                    26 -1.787993569835713E-005
                    27 -4.583173217551046E-005
                    28  0.000000000000000E+000
                    29  0.000000000000000E+000
                    30  1.130651868660980E-005
                    31 -1.155387206274177E-004
                    32 -2.283279068169880E-004
                    33  1.410132555578425E-003
                    34  1.924180993768861E-004
                    35 -5.582614059956993E-005
                    36 -9.472205981787269E-005
                    37 -3.818364484373011E-003
                    38  0.000000000000000E+000
                    39  2.620069865700431E-005
                    40  5.974211444671392E-005
                    41  0.000000000000000E+000
                    42 -3.941224118836688E-004
                    43  4.060628892519710E-003
                    44  0.000000000000000E+000
                    45 -3.082680351321134E-006
                    46  0.000000000000000E+000
                    47  0.000000000000000E+000
                    48 -1.839229685952590E-004
                    49 -2.975234441024944E-006
                    50 -2.975241575969470E-004
                    51  0.000000000000000E+000
                    52  0.000000000000000E+000
                    53  7.510288990836248E-005
                    54  1.067900474861583E-004
                    55  0.000000000000000E+000
                    56 -2.455319120806839E-006
                    57 -5.980104814400108E-005
                    58  0.000000000000000E+000
                    59  0.000000000000000E+000
                    60  3.974625330772244E-005
                    61 -1.527531730156922E-004
                    62 -2.420356455038765E-004
                    63 -1.150084170096423E-003
                    64 -1.246956507427240E-005
                    65  8.782694789542335E-004
                    66 -4.191946968378287E-004
                    67  1.899704452127184E-004
                    68  0.000000000000000E+000
                    69  2.387379493455235E-005
                    70  6.875962370489749E-004
                    71  0.000000000000000E+000
                    72 -1.039012600406475E-003
                    73  9.895974485162536E-005
                    74  0.000000000000000E+000
                    75 -2.361104545514659E-005
                    76  0.000000000000000E+000
                    77  0.000000000000000E+000
                    78 -4.207504486352100E-005
                    79 -7.184779852701788E-006
                    80 -5.219488565396775E-005
                    81  0.000000000000000E+000
                    82  0.000000000000000E+000
                    83 -5.235423537799866E-005
                    84  5.218815037147868E-005
                    85  0.000000000000000E+000
                    86  1.564421237477430E-005
                    87 -4.059290782468912E-005
                    88  0.000000000000000E+000
                    89  0.000000000000000E+000
                    90 -4.632027034932443E-005
                    91 -1.070707079631804E-004
                    92 -2.042600928706450E-004
                    93 -1.040913565630528E-003
                    94  6.698846233537843E-005
                    95  4.600353460556703E-004
                    96  4.118554385656335E-004
                    97  2.790190724064584E-004
                    98  0.000000000000000E+000
                    99  6.141943363434047E-005
                   100  4.584765361003735E-004
                   101  0.000000000000000E+000
                   102  5.711357604493103E-004
                   103 -4.999582612600017E-004
                   104  0.000000000000000E+000
                   105 -1.753168031381569E-005
                   106  0.000000000000000E+000
                   107  0.000000000000000E+000
                   108 -6.155419806269638E-005
                   109  6.254884235104644E-006
                   110  2.900398265071505E-006
                   111  0.000000000000000E+000
                   112  0.000000000000000E+000
                   113  3.136604195477552E-005
                   114 -2.859971013006409E-005
                   115  0.000000000000000E+000
                   116 -1.859907409449270E-005
                   117 -2.867170229922557E-005
                   118  0.000000000000000E+000
                   119  0.000000000000000E+000
                   120  5.674792070107044E-006
                   121 -8.394154319699509E-005
                   122 -1.567259507991144E-004
                   123 -3.272826314615467E-004
                   124  1.297292788747832E-004
                   125  7.410694452270881E-005
                   126 -7.211446016236600E-006
                   127 -3.049060592262221E-004
                   128  0.000000000000000E+000
                   129  1.266539417925736E-004
                   130  4.395843630430473E-004
                   131  0.000000000000000E+000
                   132  7.361583851478227E-005
                   133  8.853228861707617E-004
                   134  0.000000000000000E+000
                   135  1.568489193854351E-005
                   136  0.000000000000000E+000
                   137  0.000000000000000E+000
                   138  3.207849691639252E-005
                   139 -5.805315536001142E-006
                   140  1.201040027469333E-004
                   141  0.000000000000000E+000
                   142  0.000000000000000E+000
                   143  2.288988925126444E-004
                   144  1.125619568297844E-004
                   145  0.000000000000000E+000
                   146 -9.377426833227469E-006
                   147 -3.789798175320221E-005
                   148  0.000000000000000E+000
                   149  0.000000000000000E+000
                   150  1.313517794363430E-005
                   151 -3.510091633879816E-005
                   152 -1.407490394023327E-004
                   153 -2.777897155046043E-004
                   154  8.662308122908960E-005
                   155  2.004881518319301E-004
                   156 -4.675321941192682E-006
                   157 -2.756715229124352E-004
                   158  0.000000000000000E+000
                   159 -5.341611361469554E-005
                   160  1.869895369805330E-004
                   161  0.000000000000000E+000
                   162  3.614152494997402E-004
                   163  4.110909874941357E-004
                   164  0.000000000000000E+000
                   165  6.647771648724834E-006
                   166  0.000000000000000E+000
                   167  0.000000000000000E+000
                   168  1.837661452621699E-005
                   169  6.361106985843649E-006
                   170  1.170992474535979E-004
                   171  0.000000000000000E+000
                   172  0.000000000000000E+000
                   173  1.136006115981720E-004
                   174 -8.063454793055122E-005
                   175  0.000000000000000E+000
                   176  4.346996556356322E-006
                   177 -2.597423790551375E-005
                   178  0.000000000000000E+000
                   179  0.000000000000000E+000
                   180 -6.642413392015456E-006
                   181 -3.305435405672178E-005
                   182 -1.118301783882706E-004
                   183 -3.048559783334812E-004
                   184  3.023158973383893E-005
                   185  1.582091691643768E-004
                   186 -1.646157676990876E-005
                   187 -5.565312786495998E-005
                   188  0.000000000000000E+000
                   189  8.401988622915459E-005
                   190  5.037404405887660E-005
                   191  0.000000000000000E+000
                   192  2.942228037516527E-004
                   193 -7.217747207416995E-005
                   194  0.000000000000000E+000
                   195 -1.591747810930623E-006
                   196  0.000000000000000E+000
                   197  0.000000000000000E+000
                   198 -9.658654788044809E-006
                   199 -3.314178382318270E-007
                   200  1.037965107635677E-005
                   201  0.000000000000000E+000
                   202  0.000000000000000E+000
                   203 -5.736406527868290E-005
                   204 -5.301874937862624E-005
                   205  0.000000000000000E+000
                   206 -3.808481963643762E-006
                   207 -4.422842408708605E-006
                   208  0.000000000000000E+000
                   209  0.000000000000000E+000
                   210 -2.704119285228259E-006
                   211 -6.592308632997365E-006
                   212 -2.449626091030283E-004
                   213 -2.377020654639186E-004
                   214  2.143241390649336E-004
                   215  1.847516246402624E-004
                   216  0.000000000000000E+000
                   217  2.377154480420765E-004
                   218 -7.477391831888303E-004
                   219 -1.680855107497129E-004
                   220  1.640782070677739E-004
                   221  0.000000000000000E+000
                   222 -2.013523075747544E-004
                   223 -4.788104530788603E-004
                   224 -5.107967542335281E-006
                   225 -2.675430803563556E-005
                   226  0.000000000000000E+000
                   227 -2.095893828094808E-004
                   228 -3.115833451829691E-004
                   229 -1.520471487282796E-005
                   230 -4.186041677665404E-005
                   231  0.000000000000000E+000
                   232 -5.740299657547095E-005
                   233 -3.503808120137417E-004
                   234  6.734049466450328E-006
                   235  2.834757116820286E-006
                   236  0.000000000000000E+000
                   237 -3.816207455948546E-005
                   238 -4.230366868965907E-004
                   239 -7.961768147480638E-006
                   240 -3.368171483227742E-006
                   241  0.000000000000000E+000
                   242 -1.650950530936983E-005
                   243 -5.952676496451892E-005
                   244  1.731556578036657E-006
                   245  1.751598784067319E-005
                   246  0.000000000000000E+000
 Sym= __2_A'_
 Ene=   2.00000000000000     
 Spin= Alpha
 Occup=    1.00000000000000     
                     1 -5.393054481610336E-005
                     2 -3.793417502592746E-004
                     3  2.715625658007351E-003
                     4  1.560023977762229E-004
                     5  1.386783789106387E-003
                     6 -1.539027073742836E-004
                     7  3.227192299635659E-003
                     8  0.000000000000000E+000
                     9 -8.033501937666799E-006
                    10 -8.036931859598536E-005
                    11  0.000000000000000E+000
                    12  1.350379128474952E-005
                    13 -5.918190182738586E-004
                    14  0.000000000000000E+000
                    15  4.138204105849164E-005
                    16  0.000000000000000E+000
                    17  0.000000000000000E+000
                    18 -5.547355863975916E-005
                    19  5.498710467621099E-006
                    20 -1.216836051768420E-004
                    21  0.000000000000000E+000
                    22  0.000000000000000E+000
                    23  3.309731835576584E-004
                    24 -9.178987405849492E-005
                    25  0.000000000000000E+000
                    26 -1.186288534141775E-005
                    27  1.068584825900531E-004
                    28  0.000000000000000E+000
                    29  0.000000000000000E+000
                    30 -4.717323465425936E-005
                    31  1.403877961151295E-004
                    32   1.00096318614767     
                    33  9.425474552734051E-003
                    34  2.804082752936994E-003
                    35 -7.795264853331751E-003
                    36 -1.248214619742596E-005
                    37 -4.571246398010084E-003
                    38  0.000000000000000E+000
                    39 -1.648317103735359E-004
                    40  1.050293179524709E-003
                    41  0.000000000000000E+000
                    42 -8.393008524023159E-005
                    43  4.700914475910039E-003
                    44  0.000000000000000E+000
                    45 -6.306062275167696E-004
                    46  0.000000000000000E+000
                    47  0.000000000000000E+000
                    48 -3.026280860299150E-004
                    49  3.725378259214811E-005
                    50  4.965195709553004E-004
                    51  0.000000000000000E+000
                    52  0.000000000000000E+000
                    53 -7.432299180031780E-004
                    54 -2.744096101913827E-004
                    55  0.000000000000000E+000
                    56  1.119971007849209E-005
                    57  9.910950270652867E-005
                    58  0.000000000000000E+000
                    59  0.000000000000000E+000
                    60 -3.117911520077182E-005
                    61  4.633983693023480E-004
                    62  6.770399454040775E-003
                    63 -2.128392740966670E-003
                    64 -2.204400498939629E-004
                    65  2.764262277809151E-003
                    66  4.033954348732866E-005
                    67  3.831711284032986E-007
                    68  0.000000000000000E+000
                    69  4.836417768404708E-004
                    70  1.457975854570291E-004
                    71  0.000000000000000E+000
                    72 -2.198339684388559E-003
                    73  2.669940653585283E-004
                    74  0.000000000000000E+000
                    75  4.068103495979208E-005
                    76  0.000000000000000E+000
                    77  0.000000000000000E+000
                    78 -8.516593478370144E-006
                    79  1.404953209518778E-005
                    80 -3.848227478597712E-004
                    81  0.000000000000000E+000
                    82  0.000000000000000E+000
                    83 -6.584865338556404E-004
                    84 -2.821157889547926E-004
                    85  0.000000000000000E+000
                    86  3.142125456603918E-005
                    87 -5.491123572564211E-005
                    88  0.000000000000000E+000
                    89  0.000000000000000E+000
                    90  5.985696515424427E-005
                    91  1.545742836665045E-004
                    92  7.317435425963565E-003
                    93 -2.176050211419033E-003
                    94 -2.831995548407035E-004
                    95  3.141952409866549E-003
                    96  1.777550622003673E-005
                    97 -5.855759715931203E-006
                    98  0.000000000000000E+000
                    99 -7.835123259294736E-004
                   100  7.350375534024648E-005
                   101  0.000000000000000E+000
                   102  1.964115709833199E-003
                   103  9.210966823305433E-005
                   104  0.000000000000000E+000
                   105  3.164654073012009E-005
                   106  0.000000000000000E+000
                   107  0.000000000000000E+000
                   108 -3.533382301298270E-006
                   109 -4.647423838916502E-006
                   110 -3.992977979573593E-004
                   111  0.000000000000000E+000
                   112  0.000000000000000E+000
                   113 -4.930994496914030E-004
                   114  2.957327938653942E-004
                   115  0.000000000000000E+000
                   116 -3.002470219644688E-005
                   117 -6.398199077175069E-005
                   118  0.000000000000000E+000
                   119  0.000000000000000E+000
                   120 -3.208211657188605E-005
                   121  1.455994245189735E-004
                   122 -2.655919107581711E-004
                   123 -7.906850088852673E-004
                   124  2.238058330736369E-004
                   125 -6.308995264435929E-005
                   126 -2.337249045385556E-006
                   127 -2.811811689043699E-004
                   128  0.000000000000000E+000
                   129 -6.393590166331625E-005
                   130  5.618083820297466E-004
                   131  0.000000000000000E+000
                   132  3.730061355771166E-004
                   133  8.999800268077160E-004
                   134  0.000000000000000E+000
                   135  1.736046296740214E-005
                   136  0.000000000000000E+000
                   137  0.000000000000000E+000
                   138  1.897526437739346E-006
                   139  4.850071587499565E-005
                   140  1.266398321889195E-004
                   141  0.000000000000000E+000
                   142  0.000000000000000E+000
                   143  2.621292929826420E-004
                   144 -1.471946365548299E-004
                   145  0.000000000000000E+000
                   146  8.838681676026787E-006
                   147 -3.331859954207751E-005
                   148  0.000000000000000E+000
                   149  0.000000000000000E+000
                   150 -4.752115161410524E-005
                   151  3.492431664331291E-005
                   152 -2.301911953181644E-004
                   153 -7.750610807768993E-004
                   154  2.309796265668021E-004
                   155 -3.658019287757996E-005
                   156 -1.050217568793760E-005
                   157 -2.828426878965922E-004
                   158  0.000000000000000E+000
                   159  9.639486560024267E-005
                   160  5.375662783472631E-004