[Molden Format]
[Atoms] AU
  N     1    7     0.0000000000   -4.2907334100    0.0000000000        
  C     2    6     0.0000000000   -1.7772236300    0.0000000000        
  C     3    6    -2.3389203600   -0.4111016300    0.0000000000        
  C     4    6     2.3389203600   -0.4111016300    0.0000000000        
  C     5    6    -2.2998668500    2.1639215300    0.0000000000        
  C     6    6     2.2998668500    2.1639215300    0.0000000000        
  C     7    6     0.0000000000    3.4755251800    0.0000000000        
  H     8    1    -4.1815815700   -6.8704182800    0.0000000000        
  H     9    1     1.6528040300   -5.3103747800    0.0000000000        
  H    10    1    -4.0745407300   -1.4447408500    0.0000000000        
  H    11    1     4.0745407300   -1.4447408500    0.0000000000        
  H    12    1    -4.0420632100    3.1963889500    0.0000000000        
  H    13    1     4.0420632100    3.1963889500    0.0000000000        
  H    14    1     0.0000000000    5.5020335600    0.0000000000        
[5D]
[7F]
[GTO]
  1  0
   s    12 1.00
  0.114200D+05  0.172695D-04
  0.171200D+04  0.134411D-03
  0.389300D+03  0.694561D-03
  0.110000D+03  0.278531D-02
  0.355700D+02  0.863457D-02
  0.125400D+02  0.199805D-01
  0.464400D+01  0.262908D-01
  0.129300D+01 -0.243845D-01
  0.511800D+00 -0.924934D-01
  0.178700D+00 -0.339683D+00
  0.246240D-01  0.345111D+00
  0.112530D-01  0.752750D+00
   s    10 1.00
  0.114200D+05  0.523000D-03
  0.171200D+04  0.404500D-02
  0.389300D+03  0.207750D-01
  0.110000D+03  0.807269D-01
  0.355700D+02  0.233074D+00
  0.125400D+02  0.433501D+00
  0.464400D+01  0.347472D+00
  0.129300D+01  0.412620D-01
  0.511800D+00 -0.850799D-02
  0.178700D+00  0.238400D-02
   s    10 1.00
  0.114200D+05 -0.115000D-03
  0.171200D+04 -0.895000D-03
  0.389300D+03 -0.462400D-02
  0.110000D+03 -0.185280D-01
  0.355700D+02 -0.573390D-01
  0.125400D+02 -0.132076D+00
  0.464400D+01 -0.172510D+00
  0.129300D+01  0.151814D+00
  0.511800D+00  0.599944D+00
  0.178700D+00  0.387462D+00
   s     1 1.00
  0.129300D+01  0.100000D+01
   s     1 1.00
  0.178700D+00  0.100000D+01
   p     5 1.00
  0.266300D+02  0.146700D-01
  0.594800D+01  0.917640D-01
  0.174200D+01  0.298683D+00
  0.555000D+00  0.498487D+00
  0.172500D+00  0.337023D+00
   p     1 1.00
  0.174200D+01  0.100000D+01
   p     1 1.00
  0.555000D+00  0.100000D+01
   d     1 1.00
  0.165400D+01  0.100000D+01
   d     1 1.00
  0.469000D+00  0.100000D+01
   f     1 1.00
  0.109300D+01  0.100000D+01
  
  2  0
   s    10 1.00
  0.823600D+04  0.531000D-03
  0.123500D+04  0.410800D-02
  0.280800D+03  0.210870D-01
  0.792700D+02  0.818530D-01
  0.255900D+02  0.234817D+00
  0.899700D+01  0.434401D+00
  0.331900D+01  0.346129D+00
  0.905900D+00  0.393780D-01
  0.364300D+00 -0.898300D-02
  0.128500D+00  0.238500D-02
   s    10 1.00
  0.823600D+04 -0.113000D-03
  0.123500D+04 -0.878000D-03
  0.280800D+03 -0.454000D-02
  0.792700D+02 -0.181330D-01
  0.255900D+02 -0.557600D-01
  0.899700D+01 -0.126895D+00
  0.331900D+01 -0.170352D+00
  0.905900D+00  0.140382D+00
  0.364300D+00  0.598684D+00
  0.128500D+00  0.395389D+00
   s     1 1.00
  0.905900D+00  0.100000D+01
   s     1 1.00
  0.364300D+00  0.100000D+01
   p     5 1.00
  0.187100D+02  0.140310D-01
  0.413300D+01  0.868660D-01
  0.120000D+01  0.290216D+00
  0.382700D+00  0.501008D+00
  0.120900D+00  0.343406D+00
   p     1 1.00
  0.382700D+00  0.100000D+01
   p     1 1.00
  0.120900D+00  0.100000D+01
   d     1 1.00
  0.109700D+01  0.100000D+01
   d     1 1.00
  0.318000D+00  0.100000D+01
   f     1 1.00
  0.761000D+00  0.100000D+01
  
  3  0
   s    10 1.00
  0.823600D+04  0.531000D-03
  0.123500D+04  0.410800D-02
  0.280800D+03  0.210870D-01
  0.792700D+02  0.818530D-01
  0.255900D+02  0.234817D+00
  0.899700D+01  0.434401D+00
  0.331900D+01  0.346129D+00
  0.905900D+00  0.393780D-01
  0.364300D+00 -0.898300D-02
  0.128500D+00  0.238500D-02
   s    10 1.00
  0.823600D+04 -0.113000D-03
  0.123500D+04 -0.878000D-03
  0.280800D+03 -0.454000D-02
  0.792700D+02 -0.181330D-01
  0.255900D+02 -0.557600D-01
  0.899700D+01 -0.126895D+00
  0.331900D+01 -0.170352D+00
  0.905900D+00  0.140382D+00
  0.364300D+00  0.598684D+00
  0.128500D+00  0.395389D+00
   s     1 1.00
  0.905900D+00  0.100000D+01
   s     1 1.00
  0.364300D+00  0.100000D+01
   p     5 1.00
  0.187100D+02  0.140310D-01
  0.413300D+01  0.868660D-01
  0.120000D+01  0.290216D+00
  0.382700D+00  0.501008D+00
  0.120900D+00  0.343406D+00
   p     1 1.00
  0.382700D+00  0.100000D+01
   p     1 1.00
  0.120900D+00  0.100000D+01
   d     1 1.00
  0.109700D+01  0.100000D+01
   d     1 1.00
  0.318000D+00  0.100000D+01
   f     1 1.00
  0.761000D+00  0.100000D+01
  
  4  0
   s    10 1.00
  0.823600D+04  0.531000D-03
  0.123500D+04  0.410800D-02
  0.280800D+03  0.210870D-01
  0.792700D+02  0.818530D-01
  0.255900D+02  0.234817D+00
  0.899700D+01  0.434401D+00
  0.331900D+01  0.346129D+00
  0.905900D+00  0.393780D-01
  0.364300D+00 -0.898300D-02
  0.128500D+00  0.238500D-02
   s    10 1.00
  0.823600D+04 -0.113000D-03
  0.123500D+04 -0.878000D-03
  0.280800D+03 -0.454000D-02
  0.792700D+02 -0.181330D-01
  0.255900D+02 -0.557600D-01
  0.899700D+01 -0.126895D+00
  0.331900D+01 -0.170352D+00
  0.905900D+00  0.140382D+00
  0.364300D+00  0.598684D+00
  0.128500D+00  0.395389D+00
   s     1 1.00
  0.905900D+00  0.100000D+01
   s     1 1.00
  0.364300D+00  0.100000D+01
   p     5 1.00
  0.187100D+02  0.140310D-01
  0.413300D+01  0.868660D-01
  0.120000D+01  0.290216D+00
  0.382700D+00  0.501008D+00
  0.120900D+00  0.343406D+00
   p     1 1.00
  0.382700D+00  0.100000D+01
   p     1 1.00
  0.120900D+00  0.100000D+01
   d     1 1.00
  0.109700D+01  0.100000D+01
   d     1 1.00
  0.318000D+00  0.100000D+01
   f     1 1.00
  0.761000D+00  0.100000D+01
  
  5  0
   s    10 1.00
  0.823600D+04  0.531000D-03
  0.123500D+04  0.410800D-02
  0.280800D+03  0.210870D-01
  0.792700D+02  0.818530D-01
  0.255900D+02  0.234817D+00
  0.899700D+01  0.434401D+00
  0.331900D+01  0.346129D+00
  0.905900D+00  0.393780D-01
  0.364300D+00 -0.898300D-02
  0.128500D+00  0.238500D-02
   s    10 1.00
  0.823600D+04 -0.113000D-03
  0.123500D+04 -0.878000D-03
  0.280800D+03 -0.454000D-02
  0.792700D+02 -0.181330D-01
  0.255900D+02 -0.557600D-01
  0.899700D+01 -0.126895D+00
  0.331900D+01 -0.170352D+00
  0.905900D+00  0.140382D+00
  0.364300D+00  0.598684D+00
  0.128500D+00  0.395389D+00
   s     1 1.00
  0.905900D+00  0.100000D+01
   s     1 1.00
  0.364300D+00  0.100000D+01
   p     5 1.00
  0.187100D+02  0.140310D-01
  0.413300D+01  0.868660D-01
  0.120000D+01  0.290216D+00
  0.382700D+00  0.501008D+00
  0.120900D+00  0.343406D+00
   p     1 1.00
  0.382700D+00  0.100000D+01
   p     1 1.00
  0.120900D+00  0.100000D+01
   d     1 1.00
  0.109700D+01  0.100000D+01
   d     1 1.00
  0.318000D+00  0.100000D+01
   f     1 1.00
  0.761000D+00  0.100000D+01
  
  6  0
   s    10 1.00
  0.823600D+04  0.531000D-03
  0.123500D+04  0.410800D-02
  0.280800D+03  0.210870D-01
  0.792700D+02  0.818530D-01
  0.255900D+02  0.234817D+00
  0.899700D+01  0.434401D+00
  0.331900D+01  0.346129D+00
  0.905900D+00  0.393780D-01
  0.364300D+00 -0.898300D-02
  0.128500D+00  0.238500D-02
   s    10 1.00
  0.823600D+04 -0.113000D-03
  0.123500D+04 -0.878000D-03
  0.280800D+03 -0.454000D-02
  0.792700D+02 -0.181330D-01
  0.255900D+02 -0.557600D-01
  0.899700D+01 -0.126895D+00
  0.331900D+01 -0.170352D+00
  0.905900D+00  0.140382D+00
  0.364300D+00  0.598684D+00
  0.128500D+00  0.395389D+00
   s     1 1.00
  0.905900D+00  0.100000D+01
   s     1 1.00
  0.364300D+00  0.100000D+01
   p     5 1.00
  0.187100D+02  0.140310D-01
  0.413300D+01  0.868660D-01
  0.120000D+01  0.290216D+00
  0.382700D+00  0.501008D+00
  0.120900D+00  0.343406D+00
   p     1 1.00
  0.382700D+00  0.100000D+01
   p     1 1.00
  0.120900D+00  0.100000D+01
   d     1 1.00
  0.109700D+01  0.100000D+01
   d     1 1.00
  0.318000D+00  0.100000D+01
   f     1 1.00
  0.761000D+00  0.100000D+01
  
  7  0
   s    10 1.00
  0.823600D+04  0.531000D-03
  0.123500D+04  0.410800D-02
  0.280800D+03  0.210870D-01
  0.792700D+02  0.818530D-01
  0.255900D+02  0.234817D+00
  0.899700D+01  0.434401D+00
  0.331900D+01  0.346129D+00
  0.905900D+00  0.393780D-01
  0.364300D+00 -0.898300D-02
  0.128500D+00  0.238500D-02
   s    10 1.00
  0.823600D+04 -0.113000D-03
  0.123500D+04 -0.878000D-03
  0.280800D+03 -0.454000D-02
  0.792700D+02 -0.181330D-01
  0.255900D+02 -0.557600D-01
  0.899700D+01 -0.126895D+00
  0.331900D+01 -0.170352D+00
  0.905900D+00  0.140382D+00
  0.364300D+00  0.598684D+00
  0.128500D+00  0.395389D+00
   s     1 1.00
  0.905900D+00  0.100000D+01
   s     1 1.00
  0.364300D+00  0.100000D+01
   p     5 1.00
  0.187100D+02  0.140310D-01
  0.413300D+01  0.868660D-01
  0.120000D+01  0.290216D+00
  0.382700D+00  0.501008D+00
  0.120900D+00  0.343406D+00
   p     1 1.00
  0.382700D+00  0.100000D+01
   p     1 1.00
  0.120900D+00  0.100000D+01
   d     1 1.00
  0.109700D+01  0.100000D+01
   d     1 1.00
  0.318000D+00  0.100000D+01
   f     1 1.00
  0.761000D+00  0.100000D+01
  
  8  0
   s     4 1.00
  0.130100D+02  0.196850D-01
  0.196200D+01  0.137977D+00
  0.444600D+00  0.478148D+00
  0.122000D+00  0.501240D+00
   s     1 1.00
  0.122000D+00  0.100000D+01
   p     1 1.00
  0.727000D+00  0.100000D+01
  
  9  0
   s     4 1.00
  0.130100D+02  0.196850D-01
  0.196200D+01  0.137977D+00
  0.444600D+00  0.478148D+00
  0.122000D+00  0.501240D+00
   s     1 1.00
  0.122000D+00  0.100000D+01
   p     1 1.00
  0.727000D+00  0.100000D+01
  
 10  0
   s     4 1.00
  0.130100D+02  0.196850D-01
  0.196200D+01  0.137977D+00
  0.444600D+00  0.478148D+00
  0.122000D+00  0.501240D+00
   s     1 1.00
  0.122000D+00  0.100000D+01
   p     1 1.00
  0.727000D+00  0.100000D+01
  
 11  0
   s     4 1.00
  0.130100D+02  0.196850D-01
  0.196200D+01  0.137977D+00
  0.444600D+00  0.478148D+00
  0.122000D+00  0.501240D+00
   s     1 1.00
  0.122000D+00  0.100000D+01
   p     1 1.00
  0.727000D+00  0.100000D+01
  
 12  0
   s     4 1.00
  0.130100D+02  0.196850D-01
  0.196200D+01  0.137977D+00
  0.444600D+00  0.478148D+00
  0.122000D+00  0.501240D+00
   s     1 1.00
  0.122000D+00  0.100000D+01
   p     1 1.00
  0.727000D+00  0.100000D+01
  
 13  0
   s     4 1.00
  0.130100D+02  0.196850D-01
  0.196200D+01  0.137977D+00
  0.444600D+00  0.478148D+00
  0.122000D+00  0.501240D+00
   s     1 1.00
  0.122000D+00  0.100000D+01
   p     1 1.00
  0.727000D+00  0.100000D+01
  
 14  0
   s     4 1.00
  0.130100D+02  0.196850D-01
  0.196200D+01  0.137977D+00
  0.444600D+00  0.478148D+00
  0.122000D+00  0.501240D+00
   s     1 1.00
  0.122000D+00  0.100000D+01
   p     1 1.00
  0.727000D+00  0.100000D+01
  
[MO]
 Sym= __1_a__
 Ene=  0.000000000000000E+000
 Spin= Alpha
 Occup=    2.00000000000000     
                     1  1.054367773856260E-004
                     2  0.998351092261092     
                     3 -4.378985413083500E-003
                     4  1.972046347759740E-003
                     5  6.484722681549620E-003
                     6  2.749700814771210E-003
                     7  5.448636861755580E-003
                     8  0.000000000000000E+000
                     9 -7.717981424901440E-004
                    10 -5.865854550634731E-004
                    11  0.000000000000000E+000
                    12 -2.564135419704380E-003
                    13 -1.580621687207510E-003
                    14  0.000000000000000E+000
                    15 -4.528890301098422E-005
                    16  0.000000000000000E+000
                    17  0.000000000000000E+000
                    18 -1.757056356724332E-004
                    19 -6.948423659003020E-005
                    20  1.534147585732307E-004
                    21  0.000000000000000E+000
                    22  0.000000000000000E+000
                    23 -1.283663630765214E-004
                    24  5.782251957737710E-004
                    25  0.000000000000000E+000
                    26  4.580159160860813E-006
                    27 -4.614847420527378E-005
                    28  0.000000000000000E+000
                    29  0.000000000000000E+000
                    30  1.735289705771562E-005
                    31 -9.393485163750348E-005
                    32 -2.658704836058160E-004
                    33  2.555062007803670E-004
                    34  3.060530773383430E-004
                    35 -5.108339811584120E-005
                    36 -3.869792708821410E-005
                    37 -2.033374332019040E-003
                    38  0.000000000000000E+000
                    39  4.976430696608590E-004
                    40  7.012301505578550E-005
                    41  0.000000000000000E+000
                    42 -2.340805754905050E-003
                    43  4.747239481605670E-003
                    44  0.000000000000000E+000
                    45  1.013019279627081E-005
                    46  0.000000000000000E+000
                    47  0.000000000000000E+000
                    48 -1.035502828643584E-004
                    49  1.467280779153100E-005
                    50 -1.669589215087610E-004
                    51  0.000000000000000E+000
                    52  0.000000000000000E+000
                    53  1.513846420384382E-004
                    54  8.189237920504600E-004
                    55  0.000000000000000E+000
                    56 -9.591359130815987E-006
                    57 -9.013340269621909E-005
                    58  0.000000000000000E+000
                    59  0.000000000000000E+000
                    60 -2.199730327965480E-005
                    61 -1.481586838554363E-004
                    62 -5.574793460231010E-004
                    63 -2.063389372646450E-003
                    64 -1.050484474418030E-004
                    65  2.289639163338890E-003
                    66 -3.591654084371940E-004
                    67 -5.115939297299120E-005
                    68  0.000000000000000E+000
                    69  4.609371301035280E-004
                    70  8.786759090224260E-004
                    71  0.000000000000000E+000
                    72 -1.745693812991760E-003
                    73  7.146585316082391E-004
                    74  0.000000000000000E+000
                    75 -4.906018281559703E-005
                    76  0.000000000000000E+000
                    77  0.000000000000000E+000
                    78 -5.676837291798340E-005
                    79 -3.319462127633070E-005
                    80 -1.613025053639663E-004
                    81  0.000000000000000E+000
                    82  0.000000000000000E+000
                    83  1.058613779849560E-004
                    84  4.236947493553310E-005
                    85  0.000000000000000E+000
                    86  5.412103242292827E-006
                    87 -4.086876687964799E-005
                    88  0.000000000000000E+000
                    89  0.000000000000000E+000
                    90 -1.693179721111818E-005
                    91 -1.627192242409652E-004
                    92 -1.024349730289820E-004
                    93 -2.507407284452930E-004
                    94  1.957312046405960E-004
                    95 -3.969830067443420E-004
                    96  5.797653575985670E-005
                    97 -1.755503466451460E-004
                    98  0.000000000000000E+000
                    99  4.104485980815080E-004
                   100  3.012081066874670E-004
                   101  0.000000000000000E+000
                   102  5.686627441646741E-004
                   103 -1.449661402275710E-003
                   104  0.000000000000000E+000
                   105 -1.498295422797082E-005
                   106  0.000000000000000E+000
                   107  0.000000000000000E+000
                   108 -2.145120304060840E-005
                   109 -1.088765953446750E-005
                   110  1.516075476835368E-004
                   111  0.000000000000000E+000
                   112  0.000000000000000E+000
                   113 -7.312200578700980E-005
                   114  1.520448514543680E-005
                   115  0.000000000000000E+000
                   116 -2.012431148012274E-005
                   117 -2.471078339516992E-005
                   118  0.000000000000000E+000
                   119  0.000000000000000E+000
                   120  2.398810208259360E-005
                   121 -2.860793926128311E-005
                   122 -2.620318676030070E-004
                   123 -7.354889536058740E-004
                   124  1.770250578882130E-004
                   125  3.630018517100850E-004
                   126 -3.395648560888620E-005
                   127 -1.952477710389470E-004
                   128  0.000000000000000E+000
                   129  2.220008689426620E-004
                   130  6.153989883397960E-004
                   131  0.000000000000000E+000
                   132  3.512521506596090E-004
                   133  1.959754689005640E-003
                   134  0.000000000000000E+000
                   135  1.474055588028713E-005
                   136  0.000000000000000E+000
                   137  0.000000000000000E+000
                   138  5.240805912690460E-005
                   139 -6.434702562887520E-006
                   140  2.201464119352264E-004
                   141  0.000000000000000E+000
                   142  0.000000000000000E+000
                   143  3.884711410073060E-004
                   144  2.309983566743370E-004
                   145  0.000000000000000E+000
                   146 -1.121144492409829E-005
                   147 -6.452421185339792E-005
                   148  0.000000000000000E+000
                   149  0.000000000000000E+000
                   150 -1.575395059563680E-005
                   151 -5.995051133579071E-005
                   152 -1.637224804589890E-004
                   153 -5.411758184678519E-004
                   154  2.223956510176170E-005
                   155  4.179923777361930E-004
                   156  4.219739280065420E-006
                   157  3.927541498603340E-005
                   158  0.000000000000000E+000
                   159  1.426439357946520E-005
                   160 -3.097892642605540E-005
                   161  0.000000000000000E+000
                   162  7.019285970285490E-004
                   163 -3.649391372225630E-004
                   164  0.000000000000000E+000
                   165 -4.714751481941270E-007
                   166  0.000000000000000E+000
                   167  0.000000000000000E+000
                   168 -7.472995245858640E-007
                   169  1.701214271241610E-005
                   170  5.903097508668174E-005
                   171  0.000000000000000E+000
                   172  0.000000000000000E+000
                   173  9.673130519751960E-006
                   174  1.157627152026540E-005
                   175  0.000000000000000E+000
                   176  6.380896771117305E-006
                   177 -8.511233303307302E-006
                   178  0.000000000000000E+000
                   179  0.000000000000000E+000
                   180 -3.234942862737714E-005
                   181 -1.589374339888081E-005
                   182 -1.578849814425680E-004
                   183 -4.645084843085860E-004
                   184  3.949081008949530E-005
                   185  2.492349271621170E-004
                   186 -3.948497069444630E-005
                   187 -6.006422862901400E-005
                   188  0.000000000000000E+000
                   189  2.198199283088360E-004
                   190  8.863513871201190E-005
                   191  0.000000000000000E+000
                   192  1.294350112227670E-003
                   193 -2.594018755083500E-004
                   194  0.000000000000000E+000
                   195 -4.898551734767803E-007
                   196  0.000000000000000E+000
                   197  0.000000000000000E+000
                   198 -3.671559165443440E-006
                   199  8.322609643803070E-006
                   200  8.089629768509240E-006
                   201  0.000000000000000E+000
                   202  0.000000000000000E+000
                   203 -7.727032400598060E-005
                   204 -1.914302386789560E-004
                   205  0.000000000000000E+000
                   206 -6.254287203247399E-006
                   207 -3.996167592040892E-006
                   208  0.000000000000000E+000
                   209  0.000000000000000E+000
                   210  1.089646681938930E-005
                   211 -3.447263352628896E-006
                   212 -2.911011104171810E-005
                   213  1.229822687929840E-004
                   214  2.336347905029420E-005
                   215  2.891323762766370E-005
                   216  0.000000000000000E+000
                   217 -1.696031018669010E-003
                   218 -2.538148675198950E-004
                   219 -2.105437895685720E-004
                   220  3.607972604373370E-005
                   221  0.000000000000000E+000
                   222 -1.905912457799350E-004
                   223 -6.490679281751880E-004
                   224  2.739086486900450E-005
                   225 -7.046380313656700E-005
                   226  0.000000000000000E+000
                   227  1.258499774840070E-004
                   228 -6.345238586733210E-004
                   229 -3.650757547059750E-005
                   230 -1.584979877656730E-005
                   231  0.000000000000000E+000
                   232  7.373356125465830E-005
                   233 -5.544884114321840E-004
                   234  1.669436862859180E-005
                   235 -3.445013164868900E-006
                   236  0.000000000000000E+000
                   237  3.459365941299810E-005
                   238 -3.628137425835780E-004
                   239 -2.252140972757340E-006
                   240  5.211652560148630E-006
                   241  0.000000000000000E+000
                   242 -6.746400290604660E-005
                   243  2.839833907813430E-005
                   244  5.944610603129350E-007
                   245  2.627483212028950E-005
                   246  0.000000000000000E+000
 Sym= __2_a__
 Ene=  0.000000000000000E+000
 Spin= Alpha
 Occup=    2.00000000000000     
                     1  4.511911313500990E-005
                     2  3.847002417100790E-004
                     3 -3.156350451243410E-003
                     4 -1.339567138260440E-004
                     5 -1.399561920459690E-003
                     6  4.402344410900140E-004
                     7 -3.095003499691020E-003
                     8  0.000000000000000E+000
                     9  7.893505888745820E-005
                    10  9.797670580798580E-005
                    11  0.000000000000000E+000
                    12 -1.080569985364200E-004
                    13  3.939863317986690E-004
                    14  0.000000000000000E+000
                    15 -2.581479512535211E-005
                    16  0.000000000000000E+000
                    17  0.000000000000000E+000
                    18  4.747901767568660E-005
                    19 -1.181523352648070E-005
                    20  1.241803381745940E-004
                    21  0.000000000000000E+000
                    22  0.000000000000000E+000
                    23 -1.377442921604090E-004
                    24  3.964587535794920E-005
                    25  0.000000000000000E+000
                    26  2.193515794315126E-005
                    27 -8.275637909382554E-005
                    28  0.000000000000000E+000
                    29  0.000000000000000E+000
                    30  2.564163428947041E-005
                    31 -1.413503221961464E-004
                    32  -1.00089867030092     
                    33 -9.208999456619189E-003
                    34 -2.813499253758200E-003
                    35  8.205083867288731E-003
                    36  3.343048095860160E-004
                    37  3.848313225980320E-003
                    38  0.000000000000000E+000
                    39 -1.963439095230260E-004
                    40 -3.933234572360000E-004
                    41  0.000000000000000E+000
                    42 -5.415778716995910E-005
                    43 -4.305847053453440E-003
                    44  0.000000000000000E+000
                    45  5.377839686254208E-004
                    46  0.000000000000000E+000
                    47  0.000000000000000E+000
                    48  2.095735034008900E-004
                    49  1.391484121980150E-005
                    50 -5.648777770109198E-004
                    51  0.000000000000000E+000
                    52  0.000000000000000E+000
                    53  9.038436647953540E-004
                    54 -5.147335067414360E-005
                    55  0.000000000000000E+000
                    56  3.545146366213393E-006
                    57 -1.059845264899061E-004
                    58  0.000000000000000E+000
                    59  0.000000000000000E+000
                    60 -4.524785022433365E-006
                    61 -3.908567925721178E-004
                    62 -1.311176285308410E-002
                    63  2.108725988758500E-003
                    64  2.913717145391300E-004
                    65 -3.062553403593540E-003
                    66  7.572711308027000E-005
                    67 -2.435068000249500E-004
                    68  0.000000000000000E+000
                    69 -7.548871079637910E-004
                    70 -3.837030631947230E-006
                    71  0.000000000000000E+000
                    72  2.080283897569140E-003
                    73 -4.069076702087950E-005
                    74  0.000000000000000E+000
                    75 -2.346048620443716E-005
                    76  0.000000000000000E+000
                    77  0.000000000000000E+000
                    78  1.005246871921110E-005
                    79  1.808155604365260E-006
                    80  4.226297322608132E-004
                    81  0.000000000000000E+000
                    82  0.000000000000000E+000
                    83  5.979819636327680E-004
                    84  3.646122684018610E-004
                    85  0.000000000000000E+000
                    86 -3.308976009754183E-005
                    87  6.112819935540912E-005
                    88  0.000000000000000E+000
                    89  0.000000000000000E+000
                    90 -5.247119228116372E-005
                    91 -1.409163390595682E-004
                    92 -1.458529934795440E-002
                    93  2.176375219947220E-003
                    94  2.631962435533960E-004
                    95 -2.976090179574160E-003
                    96 -2.637985398055650E-004
                    97 -3.475247057862680E-004
                    98  0.000000000000000E+000
                    99  6.737639072350700E-004
                   100 -4.005187326654180E-005
                   101  0.000000000000000E+000
                   102 -1.991489291396400E-003
                   103  1.613321805032550E-005
                   104  0.000000000000000E+000
                   105 -3.147795960682403E-005
                   106  0.000000000000000E+000
                   107  0.000000000000000E+000
                   108  1.586034060840398E-005
                   109  1.388776566325230E-005
                   110  4.065076961875800E-004
                   111  0.000000000000000E+000
                   112  0.000000000000000E+000
                   113  6.188137644292840E-004
                   114 -3.382009017636410E-004
                   115  0.000000000000000E+000
                   116  3.535062240832940E-005
                   117  6.353539637920091E-005
                   118  0.000000000000000E+000
                   119  0.000000000000000E+000
                   120  4.876414563765592E-005
                   121 -1.400785438682429E-004
                   122 -8.348448113808739E-008
                   123  5.947519241342270E-004
                   124 -2.291535747944130E-004
                   125  1.246921904646720E-004
                   126  3.230851374326510E-006
                   127  4.530514717367680E-004
                   128  0.000000000000000E+000
                   129  7.034462033656940E-005
                   130 -5.620196560299480E-004
                   131  0.000000000000000E+000
                   132 -3.339441713383340E-004
                   133 -7.936884432037750E-004
                   134  0.000000000000000E+000
                   135 -1.854727283624416E-005
                   136  0.000000000000000E+000
                   137  0.000000000000000E+000
                   138 -2.361486133404220E-006
                   139 -5.401342542984470E-005
                   140 -1.397937751997626E-004
                   141  0.000000000000000E+000
                   142  0.000000000000000E+000
                   143 -2.463384750581380E-004
                   144  1.715570093982100E-004
                   145  0.000000000000000E+000
                   146 -7.815485792397695E-006
                   147  3.508662616920120E-005
                   148  0.000000000000000E+000
                   149  0.000000000000000E+000
                   150  4.975883913772177E-005
                   151 -2.936979299415431E-005
                   152 -1.459975152619430E-004
                   153  5.769471967354980E-004
                   154 -2.282674815539800E-004
                   155  1.337091408211340E-004
                   156  2.392489357502600E-005
                   157  4.988424425406720E-004
                   158  0.000000000000000E+000
                   159 -5.996184508604290E-005
                   160 -5.766957038259730E-004