===========================================================
===                   runc                              ===
===           version 7.0.2 , April 2021              ===
===          requires COLUMBUS version Col_7.0.2        ===
===                                                     ===
===   written by: Thomas Mueller                        ===
===   gradient ext. by: Michal Dallos                   ===
===               University of Vienna                  ===
===   maintained by: Felix Plasser                      ===
===               Loughborough University               ===
===========================================================


coremem. (seq.): 200000 MB,  coremem. (par.): 19000 MB
Vdisk size: 0 DP
Reading job control file control.run ... 
 ****** This is an 2c-QDPT MRCISD calculation ****** 
 model space size=4:0:4
SMOLCAS=/home-4/yshen57@jhu.edu/Software/Chemistry/Columbus-7.0.2_OpenMolcas-18.09-col/OpenMolcas/build
Found serial Molcas Installation at /home-4/yshen57@jhu.edu/Software/Chemistry/Columbus-7.0.2_OpenMolcas-18.09-col/OpenMolcas/build
  done 
INFO: keywords nadcoupl and seward are supported for DCI mode only!
seward specified, using also alaska
Creating various directories ... 
 done 
SMOLCAS=/home-4/yshen57@jhu.edu/Software/Chemistry/Columbus-7.0.2_OpenMolcas-18.09-col/OpenMolcas/build
PMOLCAS=
Checking for illegal keywords and keyword combinations ... done 

 Nonadiabatic coupling term calculation type: DCI+DCSF
  States involved in calcualtion:
   DRT1,state1;  DRT1,state2
   DRT1,state1;  DRT1,state3
   DRT1,state1;  DRT1,state4
   DRT1,state2;  DRT1,state3
   DRT1,state2;  DRT1,state4
   DRT1,state3;  DRT1,state4
   DRT2,state1;  DRT2,state2
   DRT2,state1;  DRT2,state3
   DRT2,state1;  DRT2,state4
   DRT2,state2;  DRT2,state3
   DRT2,state2;  DRT2,state4
   DRT2,state3;  DRT2,state4

Additional gradients computed:
   DRT1,state1
   DRT1,state2
   DRT1,state3
   DRT1,state4
   DRT2,state1
   DRT2,state2
   DRT2,state3
   DRT2,state4

Checking for complete set of input files ... 
mcscf calculation without preceeding scf calculation 
will use 
 /scratch/users/yshen57@jhu.edu/Molcas/slow/1.3/mrci/mocoef as starting MOs 
Performing coupled non-rel. SO-CI calculation, nrroots: 4 0 4
starting cidrt.x   -m 200000 < cidrtin > temp at Sat May 21 10:01:09 EDT 2022

 -------------------- cidrt.x ------------------------
 spatial symmetry:  
 total number of configurations          0
 number of reference configurations     0
 --------------------------------------------------- 
 Preparing SO cidrtin files for 1 symmetries
cat ../cidrtin | sed -e 's/^.*input the molecular spatial symmetry/1 \/ molsym/' > cidrtin.so_A 
calling cidrt.x -m 200000 < cidrtin.so_A > cidrtls.soci_A ...
Checking the DRTs for consistency ...
calling reindex.x -i 1 -m 200000  ...
done

 ++++++++++++++++++ input file generation +++++++++++++ 
 runc start: Sat May 21 10:01:30 EDT 2022
 
  runc start: Sat May 21 10:01:30 EDT 2022
 
 starting unik.gets.x > unikls at Sat May 21 10:01:30 EDT 2022

 -------------------- unik.gets.x ------------------------
 --------------------------------------------------- 
 ++++++++++++++++++++ ao integral calculation ++++++++++++++++
starting pymolcas molcas.input.seward > molcas.output.seward  at Sat May 21 10:01:30 EDT 2022

Generating link ln -s ./molcas.OrdInt ORDINT 
 -------------------- seward ------------------------
      Basis set label: N.ANILINE.........
      Basis set label: C.ANILINE.........
      Basis set label: H.ANILINE.........
  Nuclear Coordinates in                   atomic units                                   Angstrom 
     Center  Label                x              y              z                     x              y              z
        1      N1              -4.468259       0.224240      -0.013852             -2.364501       0.118662      -0.007330
        2      C2              -1.765147      -0.023070      -0.014587             -0.934076      -0.012208      -0.007719
        3      C3              -0.420529       0.005766      -2.280858             -0.222534       0.003051      -1.206978
        4      C4              -0.434930      -0.033045       2.258137             -0.230155      -0.017487       1.194955
        5      C5               2.191782       0.008634      -2.258643              1.159841       0.004569      -1.195222
        6      C6               2.183006      -0.011699       2.255915              1.155197      -0.006191       1.193779
        7      C7               3.509886       0.004821       0.004668              1.857351       0.002551       0.002470
        8      H8              -5.291017      -1.278730      -1.774320             -2.799886      -0.676675      -0.938930
        9      H9              -5.160632      -0.683673       1.567211             -2.730889      -0.361784       0.829332
       10      H10             -1.424057       0.032430      -4.041960             -0.753579       0.017161      -2.138913
       11      H11             -1.443204      -0.059194       4.018082             -0.763711      -0.031324       2.126277
       12      H12              3.203164       0.019203      -4.018014              1.695041       0.010162      -2.126242
       13      H13              3.181049      -0.021382       4.022846              1.683339      -0.011315       2.128798
       14      H14              5.538109       0.010017       0.009013              2.930641       0.005301       0.004770
 
            Nuclear Potential Energy            270.98408757 au
 --------------------------------------------------- 
  >>>>>>>>>>>>> info: preparing drt no 1 out of 1 <<<<<<
starting mcdrt.x -m 200000 < mcdrtin > mcdrtls at Sat May 21 10:07:14 EDT 2022

 -------------------- mcdrt.x ------------------------
  Spin multiplicity: singlet 
  Spatial symmetry (#): 1
  Number of Configurations:       1275 
  --------------------------------------------------- 
 starting mcuft.x at Sat May 21 10:07:14 EDT 2022

 -------------------- mcuft.x ------------------------
 --------------------------------------------------- 
 ++++++++++++++++++++ MCSCF calculation +++++++++++++++
info: taking mocoef file from /scratch/users/yshen57@jhu.edu/Molcas/slow/1.3/mrci/mocoef
adding flag 30 to mcscfin
Writing mcdenin files for mcscf.x for 1 DRTs
adding flag 26 to mcscfin
starting mcscf.x -m 200000 at Sat May 21 10:07:14 EDT 2022

 -------------------- mcscf.x ------------------------
 Individual total energies for all states: 
    DRT #1 state # 1 wt 0.250 total energy=     -285.874406089, rel. (eV)=   0.000000
    DRT #1 state # 2 wt 0.250 total energy=     -285.644448938, rel. (eV)=   6.257455
    DRT #1 state # 3 wt 0.250 total energy=     -285.632912365, rel. (eV)=   6.571381
    DRT #1 state # 4 wt 0.250 total energy=     -285.591637576, rel. (eV)=   7.694526
  --------------------------------------------------- 
 starting mcpc.x -m 200000 < mcpcin > mcpcls at Sat May 21 10:10:16 EDT 2022

 -------------------- mcpc.x ------------------------
 --------------------------------------------------- 
 starting mcpc.x -m 200000 < mcpcin > mcpcls at Sat May 21 10:10:16 EDT 2022

 -------------------- mcpc.x ------------------------
 --------------------------------------------------- 
 starting mcpc.x -m 200000 < mcpcin > mcpcls at Sat May 21 10:10:16 EDT 2022

 -------------------- mcpc.x ------------------------
 --------------------------------------------------- 
 starting mcpc.x -m 200000 < mcpcin > mcpcls at Sat May 21 10:10:16 EDT 2022

 -------------------- mcpc.x ------------------------
 --------------------------------------------------- 
 
========= state properties for state-averaged MCSCF =========
mcscf.drt1.st01.sp
starting exptvl.x -m 200000   at Sat May 21 10:10:16 EDT 2022

 -------------------- exptvl.x ------------------------
  === dipole moment === 
                     X               Y               Z   
   orign x       0.00000000      0.00000000      0.00000000
   orign y       0.00000000      0.00000000      0.00000000
   orign z       0.00000000      0.00000000      0.00000000
   nuclear      -1.08999811     -0.70321280     -0.52631515
   electronic    0.83679344      0.04685384      0.56553847
   total        -0.25320467     -0.65635896      0.03922332
   total Dipole moment =   1.79091094    Debye
 --------------------------------------------------- 
 mcscf.drt1.st02.sp
starting exptvl.x -m 200000   at Sat May 21 10:10:17 EDT 2022

 -------------------- exptvl.x ------------------------
  === dipole moment === 
                     X               Y               Z   
   orign x       0.00000000      0.00000000      0.00000000
   orign y       0.00000000      0.00000000      0.00000000
   orign z       0.00000000      0.00000000      0.00000000
   nuclear      -1.08999811     -0.70321280     -0.52631515
   electronic    4.40800074      0.34254431      0.85999049
   total         3.31800263     -0.36066849      0.33367534
   total Dipole moment =   8.52549844    Debye
 --------------------------------------------------- 
 mcscf.drt1.st03.sp
starting exptvl.x -m 200000   at Sat May 21 10:10:17 EDT 2022

 -------------------- exptvl.x ------------------------
  === dipole moment === 
                     X               Y               Z   
   orign x       0.00000000      0.00000000      0.00000000
   orign y       0.00000000      0.00000000      0.00000000
   orign z       0.00000000      0.00000000      0.00000000
   nuclear      -1.08999811     -0.70321280     -0.52631515
   electronic    1.01667153      0.12667560      0.54253445
   total        -0.07332658     -0.57653720      0.01621930
   total Dipole moment =   1.47779263    Debye
 --------------------------------------------------- 
 mcscf.drt1.st04.sp
starting exptvl.x -m 200000   at Sat May 21 10:10:17 EDT 2022

 -------------------- exptvl.x ------------------------
  === dipole moment === 
                     X               Y               Z   
   orign x       0.00000000      0.00000000      0.00000000
   orign y       0.00000000      0.00000000      0.00000000
   orign z       0.00000000      0.00000000      0.00000000
   nuclear      -1.08999811     -0.70321280     -0.52631515
   electronic    5.87302904      0.24740676      0.77473661
   total         4.78303093     -0.45580604      0.24842146
   total Dipole moment =  12.22865460    Debye
 --------------------------------------------------- 
  using the MCSCF MOs ... 
starting cidrt.x  -m 200000 < cidrtin.1 > cidrtls at Sat May 21 10:10:18 EDT 2022

 -------------------- cidrt.x ------------------------
 total number of orbitals            :   246
 number of frozen core orbitals      :    18
 number of frozen virtual orbitals   :     0
 number of internal orbitals         :    14
 number of external orbitals         :   214
 spatial symmetry:   a  
 
 total number of configurations  158587185
 number of reference configurations  1275
 --------------------------------------------------- 
 starting cidrt.x  -m 200000 < cidrtin.2 > cidrtls at Sat May 21 10:10:21 EDT 2022

 -------------------- cidrt.x ------------------------
 total number of orbitals            :   246
 number of frozen core orbitals      :    18
 number of frozen virtual orbitals   :     0
 number of internal orbitals         :    14
 number of external orbitals         :   214
 spatial symmetry:   a  
 
 total number of configurations  282461366
 number of reference configurations  1666
 --------------------------------------------------- 
 starting tran.x -m 200000  at Sat May 21 10:10:26 EDT 2022

 -------------------- tran.x ------------------------
 --------------------------------------------------- 
  Starting ciudgav with DRT # 1 out of 2 

 *** starting pciudg section *** 
nproc: 48 machinefile:  
assuming machinefile syntax: one host name per line optionally repeated
 section2, MPI_STARTUP:
 /software/apps/mpi/openmpi/3.1/intel/18.0/bin/mpirun -np 48  /home-4/yshen57@jhu.edu/Software/Chemistry/Columbus-7.0.2_OpenMolcas-18.09-col/Columbus/pciudg.x -m 19000 
 -------------------- pciudg.x ------------------------
 type of calculation:          mr-sdci
 number of configurations:     158587185
 total mr-sdci energy             -286.0741525225 
 last mr-sdci energy change           0.0000000000 
 residual                             0.0000054701 
  type of calculation:          mr-sdci
 number of configurations:     158587185
 total mr-sdci energy             -285.8920108214 
 last mr-sdci energy change          -0.0000000000 
 residual                             0.0000045363 
  type of calculation:          mr-sdci
 number of configurations:     158587185
 total mr-sdci energy             -285.8826667357 
 last mr-sdci energy change          -0.0000000000 
 residual                             0.0000033037 
  type of calculation:          mr-sdci
 number of configurations:     158587185
 total mr-sdci energy             -285.8379582564 
 last mr-sdci energy change           0.0000000001 
 residual                             0.0000085122 
  --------------------------------------------------- 
 keyinfile returned docipci=0:
starting cipc.x -m 200000 < cipcin > cipcls at Sun May 22 05:38:46 EDT 2022

 -------------------- cipc.x ------------------------
 --------------------------------------------------- 
  Starting ciudgav with DRT # 2 out of 2 

 *** starting pciudg section *** 
nproc: 48 machinefile:  
assuming machinefile syntax: one host name per line optionally repeated
 section2, MPI_STARTUP:
 /software/apps/mpi/openmpi/3.1/intel/18.0/bin/mpirun -np 48  /home-4/yshen57@jhu.edu/Software/Chemistry/Columbus-7.0.2_OpenMolcas-18.09-col/Columbus/pciudg.x -m 19000 
 -------------------- pciudg.x ------------------------
 type of calculation:          mr-sdci
 number of configurations:     282461366
 total mr-sdci energy             -285.9214309825 
 last mr-sdci energy change           0.0000000000 
 residual                             0.0000072726 
  type of calculation:          mr-sdci
 number of configurations:     282461366
 total mr-sdci energy             -285.8988266257 
 last mr-sdci energy change           0.0000000000 
 residual                             0.0000075739 
  type of calculation:          mr-sdci
 number of configurations:     282461366
 total mr-sdci energy             -285.8931478515 
 last mr-sdci energy change           0.0000000000 
 residual                             0.0000092343 
  type of calculation:          mr-sdci
 number of configurations:     282461366
 total mr-sdci energy             -285.8852550124 
 last mr-sdci energy change           0.0000000001 
 residual                             0.0000092325 
  --------------------------------------------------- 
 keyinfile returned docipci=0:
starting cipc.x -m 200000 < cipcin > cipcls at Tue May 24 00:06:05 EDT 2022

 -------------------- cipc.x ------------------------
 --------------------------------------------------- 
 Reindex call
run_socinr: imult=1 irrep=1 
opening file =ciudgls.drt1.sp
opening file =ciudgls.drt1.sp
opening file =ciudgls.drt1.sp
opening file =ciudgls.drt1.sp
run_socinr: imult=3 irrep=1 
opening file =ciudgls.drt2.sp
opening file =ciudgls.drt2.sp
opening file =ciudgls.drt2.sp
opening file =ciudgls.drt2.sp
 copying /scratch/users/yshen57@jhu.edu/Molcas/slow/1.3/mrci/cidrtfl.so__A --> cidrtfl.so__A 
 copying /scratch/users/yshen57@jhu.edu/Molcas/slow/1.3/mrci/cidrtfl.so__A --> cidrtfl.so__A 
starting reindex.x -m 200000 > reindexls at Tue May 24 00:06:29 EDT 2022

 -------------------- reindex.x ------------------------
 --------------------------------------------------- 
 1      1        1           civfl_1_A             1      1    0+       1             1         civfl.so__A
1      1        2           civfl_1_A             1      1    0+       2    1005971284         civfl.so__A
1      1        3           civfl_1_A             1      1    0+       3    2011942567         civfl.so__A
1      1        4           civfl_1_A             1      1    0+       4    3017913850         civfl.so__A
3      1        1           civfl_3_A             1      3    0+       5    4023885133         civfl.so__A
3      1        1           civfl_3_A             1      3    1+       6    5029856416         civfl.so__A
3      1        1           civfl_3_A             1      3    1-       7    6035827699         civfl.so__A
3      1        2           civfl_3_A             1      3    0+       8    7041798982         civfl.so__A
3      1        2           civfl_3_A             1      3    1+       9    8047770265         civfl.so__A
3      1        2           civfl_3_A             1      3    1-      10    9053741548         civfl.so__A
3      1        3           civfl_3_A             1      3    0+      11   10059712831         civfl.so__A
3      1        3           civfl_3_A             1      3    1+      12   11065684114         civfl.so__A
3      1        3           civfl_3_A             1      3    1-      13   12071655397         civfl.so__A
3      1        4           civfl_3_A             1      3    0+      14   13077626680         civfl.so__A
3      1        4           civfl_3_A             1      3    1+      15   14083597963         civfl.so__A
3      1        4           civfl_3_A             1      3    1-      16   15089569246         civfl.so__A
 Executing ciudg.x  for gamma =A ...

 *** starting pciudg section *** 
nproc: 48 machinefile:  
assuming machinefile syntax: one host name per line optionally repeated
 section2, MPI_STARTUP:
 /software/apps/mpi/openmpi/3.1/intel/18.0/bin/mpirun -np 48  /home-4/yshen57@jhu.edu/Software/Chemistry/Columbus-7.0.2_OpenMolcas-18.09-col/Columbus/pciudg.x -m 19000 
 -------------------- pciudg.x ------------------------
 type of calculation:          mr-sdci
 number of configurations:     1005971283
 total mr-sdci energy             -286.0741525396 
 last mr-sdci energy change          35.3410000000 
 residual                            35.3410000000 
  type of calculation:          mr-sdci
 number of configurations:     1005971283
 total mr-sdci energy             -285.9214309943 
 last mr-sdci energy change          35.1880000000 
 residual                            35.1880000000 
  type of calculation:          mr-sdci
 number of configurations:     1005971283
 total mr-sdci energy             -285.9214309943 
 last mr-sdci energy change          35.1880000000 
 residual                            35.1880000000 
  type of calculation:          mr-sdci
 number of configurations:     1005971283
 total mr-sdci energy             -285.9214309913 
 last mr-sdci energy change          35.1880000000 
 residual                            35.1880000000 
  type of calculation:          mr-sdci
 number of configurations:     1005971283
 total mr-sdci energy             -285.8988266276 
 last mr-sdci energy change          35.1660000000 
 residual                            35.1660000000 
  type of calculation:          mr-sdci
 number of configurations:     1005971283
 total mr-sdci energy             -285.8988266263 
 last mr-sdci energy change          35.1660000000 
 residual                            35.1660000000 
  type of calculation:          mr-sdci
 number of configurations:     1005971283
 total mr-sdci energy             -285.8988266188 
 last mr-sdci energy change          35.1660000000 
 residual                            35.1660000000 
  type of calculation:          mr-sdci
 number of configurations:     1005971283
 total mr-sdci energy             -285.8931478672 
 last mr-sdci energy change          35.1600000000 
 residual                            35.1600000000 
  type of calculation:          mr-sdci
 number of configurations:     1005971283
 total mr-sdci energy             -285.8931478497 
 last mr-sdci energy change          35.1600000000 
 residual                            35.1600000000 
  type of calculation:          mr-sdci
 number of configurations:     1005971283
 total mr-sdci energy             -285.8931478472 
 last mr-sdci energy change          35.1600000000 
 residual                            35.1600000000 
  type of calculation:          mr-sdci
 number of configurations:     1005971283
 total mr-sdci energy             -285.8920108005 
 last mr-sdci energy change          35.1590000000 
 residual                            35.1590000000 
  type of calculation:          mr-sdci
 number of configurations:     1005971283
 total mr-sdci energy             -285.8852550083 
 last mr-sdci energy change          35.1520000000 
 residual                            35.1520000000 
  type of calculation:          mr-sdci
 number of configurations:     1005971283
 total mr-sdci energy             -285.8852550043 
 last mr-sdci energy change          35.1520000000 
 residual                            35.1520000000 
  type of calculation:          mr-sdci
 number of configurations:     1005971283
 total mr-sdci energy             -285.8852550018 
 last mr-sdci energy change          35.1520000000 
 residual                            35.1520000000 
  type of calculation:          mr-sdci
 number of configurations:     1005971283
 total mr-sdci energy             -285.8826667281 
 last mr-sdci energy change          35.1500000000 
 residual                            35.1500000000 
  type of calculation:          mr-sdci
 number of configurations:     1005971283
 total mr-sdci energy             -285.8379582530 
 last mr-sdci energy change          35.1050000000 
 residual                            35.1050000000 
  --------------------------------------------------- 
 ************* Results for Spin-Orbit CI gamma=A **************** 
Final spin-orbit CI state energies: 


-------------- HT matrix in AU ----------------  
-35.341134    
 0.000000    -35.158993    
 0.000000     0.000000    -35.149649    
 0.000000     0.000000     0.000000    -35.104940    
 0.000018    -0.000014    -0.000003    -0.000001    -35.188413    
-0.000004     0.000002    -0.000002     0.000001     0.000000    -35.188413    
-0.000018     0.000013     0.000002     0.000003    -0.000000    -0.000000    -35.188413    
 0.000028     0.000002     0.000001    -0.000002     0.000000    -0.000008     0.000002    -35.165809    
-0.000007    -0.000000    -0.000001     0.000002     0.000008     0.000000     0.000011    -0.000000    -35.165809    
-0.000030     0.000002     0.000006    -0.000004    -0.000002    -0.000011     0.000000    -0.000000    -0.000000    -35.165809    
 0.000010    -0.000003    -0.000001     0.000008     0.000000    -0.000002    -0.000001     0.000000     0.000000    -0.000002    -35.160130    
 0.000000     0.000002     0.000000     0.000000     0.000002     0.000000     0.000002    -0.000000     0.000000    -0.000005     0.000000    -35.160130    
-0.000004    -0.000001     0.000001    -0.000008     0.000001    -0.000002     0.000000     0.000002     0.000005     0.000000     0.000000    -0.000000    -35.160130    
-0.000016    -0.000006    -0.000003    -0.000004     0.000000     0.000007    -0.000001     0.000000     0.000006    -0.000000     0.000000    -0.000002     0.000000    -35.152237    
 0.000002    -0.000000     0.000001     0.000001    -0.000007     0.000000    -0.000008    -0.000006     0.000000    -0.000004     0.000002     0.000000    -0.000002    -0.000000    -35.152237    
 0.000013     0.000005    -0.000001     0.000003     0.000001     0.000008     0.000000     0.000000     0.000004     0.000000    -0.000000     0.000002     0.000000    -0.000000     0.000000    -35.152237    
-------------- HT matrix in eV ---------------- 
 -961.681   
    0.000    -956.725   
    0.000       0.000    -956.471   
    0.000       0.000       0.000    -955.254   
    0.000      -0.000      -0.000      -0.000    -957.525   
   -0.000       0.000      -0.000       0.000       0.000    -957.525   
   -0.000       0.000       0.000       0.000      -0.000      -0.000    -957.525   
    0.001       0.000       0.000      -0.000       0.000      -0.000       0.000    -956.910   
   -0.000      -0.000      -0.000       0.000       0.000       0.000       0.000      -0.000    -956.910   
   -0.001       0.000       0.000      -0.000      -0.000      -0.000       0.000      -0.000      -0.000    -956.910   
    0.000      -0.000      -0.000       0.000       0.000      -0.000      -0.000       0.000       0.000      -0.000    -956.756   
    0.000       0.000       0.000       0.000       0.000       0.000       0.000      -0.000       0.000      -0.000       0.000    -956.756   
   -0.000      -0.000       0.000      -0.000       0.000      -0.000       0.000       0.000       0.000       0.000       0.000      -0.000    -956.756   
   -0.000      -0.000      -0.000      -0.000       0.000       0.000      -0.000       0.000       0.000      -0.000       0.000      -0.000       0.000    -956.541   
    0.000      -0.000       0.000       0.000      -0.000       0.000      -0.000      -0.000       0.000      -0.000       0.000       0.000      -0.000      -0.000    -956.541   
    0.000       0.000      -0.000       0.000       0.000       0.000       0.000       0.000       0.000       0.000      -0.000       0.000       0.000      -0.000       0.000    -956.541   
-------------- HT matrix in cm-1 ------------------- 
Eref = -35.34113442
     0.00   
     0.00    39975.55   
     0.00        0.00    42026.34   
     0.00        0.00        0.00    51838.74   
     3.95       -3.12       -0.58       -0.13    33518.56   
    -0.82        0.49       -0.41        0.25        0.00    33518.56   
    -3.98        2.85        0.40        0.69        0.00        0.00    33518.56   
     6.09        0.41        0.14       -0.49        0.00       -1.81        0.40    38479.65   
    -1.43       -0.11       -0.27        0.33        1.81        0.00        2.31        0.00    38479.65   
    -6.68        0.53        1.26       -0.82       -0.40       -2.31        0.00        0.00        0.00    38479.65   
     2.09       -0.76       -0.16        1.80        0.00       -0.48       -0.24        0.00        0.00       -0.54    39726.00   
     0.02        0.45        0.00        0.04        0.48        0.00        0.43       -0.00        0.00       -1.01        0.00    39726.00   
    -0.85       -0.28        0.12       -1.68        0.24       -0.43        0.00        0.54        1.01        0.00        0.00        0.00    39726.00   
    -3.43       -1.37       -0.74       -0.92        0.00        1.50       -0.14        0.00        1.37       -0.05        0.00       -0.48        0.03    41458.28   
     0.52       -0.03        0.23        0.18       -1.50        0.00       -1.86       -1.37        0.00       -0.90        0.48        0.00       -0.49        0.00    41458.28   
     2.86        1.00       -0.12        0.69        0.14        1.86        0.00        0.05        0.90        0.00       -0.03        0.49        0.00        0.00        0.00    41458.28   


Spin-Orbit CI: perturbational estimate of Spin-Orbit CI energies and wavefunctions 
                SO   1         SO   2         SO   3         SO   4         SO   5         SO   6         SO   7         SO   8

   energy  -286.07415254  -285.92143099  -285.92143099  -285.92143099  -285.89882663  -285.89882663  -285.89882662  -285.89314787
 
   NR   1    -0.99999995    -0.00003537     0.00002099     0.00016384    -0.00003156     0.00004824     0.00023080    -0.00004096
   NR   2     0.00000001    -0.00010081     0.00008412     0.00064544    -0.00043269     0.00014584    -0.00002316    -0.00366783
   NR   3     0.00000001     0.00002594     0.00005481     0.00007423    -0.00027570     0.00018665     0.00015263    -0.00005011
   NR   4    -0.00000000    -0.00002953     0.00000581     0.00002732     0.00006499    -0.00003872    -0.00000020     0.00010157
   NR   5     0.00011775     0.51089196    -0.14420063     0.84746395     0.00000183     0.00036635    -0.00007424     0.00003360
   NR   6    -0.00002438     0.49381588     0.85617609    -0.15201288    -0.00058269     0.00010519    -0.00000140     0.00007799
   NR   7    -0.00011864     0.70365817    -0.49615342    -0.50862213     0.00013096     0.00044464    -0.00009485     0.00006542
   NR   8     0.00015830     0.00012343     0.00035267    -0.00001455     0.65149077     0.14792460     0.74409505    -0.00007678
   NR   9    -0.00003723    -0.00051449     0.00028400    -0.00007224     0.16862742     0.92803599    -0.33213354    -0.00013869
   NR  10    -0.00017365     0.00027154     0.00038742    -0.00000211     0.73967766    -0.34185683    -0.57966321    -0.00002976
   NR  11     0.00005255     0.00006581     0.00004754    -0.00003157     0.00032002    -0.00015034    -0.00025137    -0.85293689
   NR  12     0.00000054    -0.00008837     0.00004557    -0.00003098     0.00059864    -0.00027599    -0.00046608     0.49349412
   NR  13    -0.00002130     0.00001436     0.00006465    -0.00004331    -0.00041896    -0.00081333    -0.00005477    -0.17014294
   NR  14    -0.00008278    -0.00008094    -0.00017049     0.00002002    -0.00006580    -0.00043080     0.00014358     0.00013685
   NR  15     0.00001254     0.00026176    -0.00014361     0.00004074     0.00052103    -0.00003455     0.00016695     0.00018806
   NR  16     0.00006900    -0.00012477    -0.00019850     0.00002071    -0.00006031    -0.00028127     0.00008819    -0.00015286

                SO   9         SO  10         SO  11         SO  12         SO  13         SO  14         SO  15         SO  16

   energy  -285.89314785  -285.89314785  -285.89201080  -285.88525501  -285.88525500  -285.88525500  -285.88266673  -285.83795825
 
   NR   1     0.00003809     0.00000967     0.00000037    -0.00002272     0.00005223    -0.00009235    -0.00000004     0.00000002
   NR   2    -0.00045205     0.00022229    -0.99999217    -0.00026578     0.00040006    -0.00103841    -0.00000105     0.00000002
   NR   3     0.00007006     0.00000020     0.00000033     0.00120771    -0.00036233     0.00057306    -0.99999897    -0.00000001
   NR   4    -0.00017622     0.00000877    -0.00000041     0.00002998    -0.00005582     0.00009237     0.00000006     0.99999997
   NR   5    -0.00000643     0.00008082     0.00048333     0.00006198    -0.00015509    -0.00008998     0.00006839    -0.00000722
   NR   6     0.00003082    -0.00006132    -0.00007594     0.00028394     0.00009874    -0.00002008     0.00004892     0.00001381
   NR   7     0.00000897     0.00004116    -0.00044116     0.00005066    -0.00020159    -0.00011060    -0.00004660     0.00003756
   NR   8    -0.00037466     0.00020556    -0.00027703     0.00013340    -0.00038953    -0.00020275    -0.00003825    -0.00003653
   NR   9    -0.00069502     0.00038631     0.00007079     0.00052473     0.00010637     0.00011784     0.00007665     0.00002477
   NR  10    -0.00043947    -0.00080371    -0.00035633     0.00007016    -0.00025918    -0.00013623    -0.00035611    -0.00006149
   NR  11     0.37139795     0.36681421     0.00304191    -0.00008555     0.00023174     0.00012758     0.00006857     0.00014885
   NR  12     0.34466913     0.79853787    -0.00178822    -0.00003196     0.00016510    -0.00036045    -0.00000102     0.00000360
   NR  13    -0.86212850     0.47726682     0.00111991     0.00009008    -0.00024826    -0.00010830    -0.00005168    -0.00013884
   NR  14     0.00011040     0.00021327    -0.00092245     0.74318790    -0.08967025     0.66304456     0.00130996    -0.00008854
   NR  15    -0.00034899     0.00003403    -0.00001904    -0.27066709     0.86597878     0.42049895    -0.00039984     0.00001750
   NR  16    -0.00009122    -0.00022143     0.00067784     0.61188981     0.49197485    -0.61931484     0.00020579     0.00006631
rescaling new expansion vector ... old norm=   4332.2218306595

 model space basis from reindexls .. 
 --SO-CI-------         -----NR-CI-------             ---model space---- 
 Gamma  root             S   irrep   root                S   ms* 
A          1             1   A         1                 1   0+
A          2             1   A         2                 1   0+
A          3             1   A         3                 1   0+
A          4             1   A         4                 1   0+
A          5             3   A         1                 3   0+
A          6             3   A         1                 3   1+
A          7             3   A         1                 3   1-
A          8             3   A         2                 3   0+
A          9             3   A         2                 3   1+
A         10             3   A         2                 3   1-
A         11             3   A         3                 3   0+
A         12             3   A         3                 3   1+
A         13             3   A         3                 3   1-
A         14             3   A         4                 3   0+
A         15             3   A         4                 3   1+
A         16             3   A         4                 3   1-

************************** SUMMARY *********************************

--------------  SO matrix for irrep A in eV ---------------- 
|1,0+;1,A,1>  -961.681   
|1,0+;1,A,2>     0.000    -956.725   
|1,0+;1,A,3>     0.000       0.000    -956.471   
|1,0+;1,A,4>     0.000       0.000       0.000    -955.254   
|3,0+;3,A,1>     0.000      -0.000      -0.000      -0.000    -957.525   
|3,1+;3,A,1>    -0.000       0.000      -0.000       0.000       0.000    -957.525   
|3,1-;3,A,1>    -0.000       0.000       0.000       0.000      -0.000      -0.000    -957.525   
|3,0+;3,A,2>     0.001       0.000       0.000      -0.000       0.000      -0.000       0.000    -956.910   
|3,1+;3,A,2>    -0.000      -0.000      -0.000       0.000       0.000       0.000       0.000      -0.000    -956.910   
|3,1-;3,A,2>    -0.001       0.000       0.000      -0.000      -0.000      -0.000       0.000      -0.000      -0.000    -956.910   
|3,0+;3,A,3>     0.000      -0.000      -0.000       0.000       0.000      -0.000      -0.000       0.000       0.000      -0.000    -956.756   
|3,1+;3,A,3>     0.000       0.000       0.000       0.000       0.000       0.000       0.000      -0.000       0.000      -0.000       0.000    -956.756   
|3,1-;3,A,3>    -0.000      -0.000       0.000      -0.000       0.000      -0.000       0.000       0.000       0.000       0.000       0.000      -0.000    -956.756   
|3,0+;3,A,4>    -0.000      -0.000      -0.000      -0.000       0.000       0.000      -0.000       0.000       0.000      -0.000       0.000      -0.000       0.000    -956.541   
|3,1+;3,A,4>     0.000      -0.000       0.000       0.000      -0.000       0.000      -0.000      -0.000       0.000      -0.000       0.000       0.000      -0.000      -0.000    -956.541   
|3,1-;3,A,4>     0.000       0.000      -0.000       0.000       0.000       0.000       0.000       0.000       0.000       0.000      -0.000       0.000       0.000      -0.000       0.000    -956.541   

--------------  SO matrix for irrep A in cm-1 ------------------- 
Eref = -35.34113442
|1,0+;1,A,1>      0.00   
|1,0+;1,A,2>      0.00    39975.55   
|1,0+;1,A,3>      0.00        0.00    42026.34   
|1,0+;1,A,4>      0.00        0.00        0.00    51838.74   
|3,0+;3,A,1>      3.95       -3.12       -0.58       -0.13    33518.56   
|3,1+;3,A,1>     -0.82        0.49       -0.41        0.25        0.00    33518.56   
|3,1-;3,A,1>     -3.98        2.85        0.40        0.69        0.00        0.00    33518.56   
|3,0+;3,A,2>      6.09        0.41        0.14       -0.49        0.00       -1.81        0.40    38479.65   
|3,1+;3,A,2>     -1.43       -0.11       -0.27        0.33        1.81        0.00        2.31        0.00    38479.65   
|3,1-;3,A,2>     -6.68        0.53        1.26       -0.82       -0.40       -2.31        0.00        0.00        0.00    38479.65   
|3,0+;3,A,3>      2.09       -0.76       -0.16        1.80        0.00       -0.48       -0.24        0.00        0.00       -0.54    39726.00   
|3,1+;3,A,3>      0.02        0.45        0.00        0.04        0.48        0.00        0.43       -0.00        0.00       -1.01        0.00    39726.00   
|3,1-;3,A,3>     -0.85       -0.28        0.12       -1.68        0.24       -0.43        0.00        0.54        1.01        0.00        0.00        0.00    39726.00   
|3,0+;3,A,4>     -3.43       -1.37       -0.74       -0.92        0.00        1.50       -0.14        0.00        1.37       -0.05        0.00       -0.48        0.03    41458.28   
|3,1+;3,A,4>      0.52       -0.03        0.23        0.18       -1.50        0.00       -1.86       -1.37        0.00       -0.90        0.48        0.00       -0.49        0.00    41458.28   
|3,1-;3,A,4>      2.86        1.00       -0.12        0.69        0.14        1.86        0.00        0.05        0.90        0.00       -0.03        0.49        0.00        0.00        0.00    41458.28   


 ** perturbational estimate of Spin-Orbit CI energies and wavefunctions in model space basis** 

                      A  1         A  2         A  3         A  4         A  5         A  6         A  7         A  8

            energy  -286.07415254  -285.92143099  -285.92143099  -285.92143099  -285.89882663  -285.89882663  -285.89882662  -285.89314787
          
   |1,0+;1,A,1>    -0.99999995    -0.00003537     0.00002099     0.00016384    -0.00003156     0.00004824     0.00023080    -0.00004096
   |1,0+;1,A,2>     0.00000001    -0.00010081     0.00008412     0.00064544    -0.00043269     0.00014584    -0.00002316    -0.00366783
   |1,0+;1,A,3>     0.00000001     0.00002594     0.00005481     0.00007423    -0.00027570     0.00018665     0.00015263    -0.00005011
   |1,0+;1,A,4>    -0.00000000    -0.00002953     0.00000581     0.00002732     0.00006499    -0.00003872    -0.00000020     0.00010157
   |3,0+;3,A,1>     0.00011775     0.51089196    -0.14420063     0.84746395     0.00000183     0.00036635    -0.00007424     0.00003360
   |3,1+;3,A,1>    -0.00002438     0.49381588     0.85617609    -0.15201288    -0.00058269     0.00010519    -0.00000140     0.00007799
   |3,1-;3,A,1>    -0.00011864     0.70365817    -0.49615342    -0.50862213     0.00013096     0.00044464    -0.00009485     0.00006542
   |3,0+;3,A,2>     0.00015830     0.00012343     0.00035267    -0.00001455     0.65149077     0.14792460     0.74409505    -0.00007678
   |3,1+;3,A,2>    -0.00003723    -0.00051449     0.00028400    -0.00007224     0.16862742     0.92803599    -0.33213354    -0.00013869
   |3,1-;3,A,2>    -0.00017365     0.00027154     0.00038742    -0.00000211     0.73967766    -0.34185683    -0.57966321    -0.00002976
   |3,0+;3,A,3>     0.00005255     0.00006581     0.00004754    -0.00003157     0.00032002    -0.00015034    -0.00025137    -0.85293689
   |3,1+;3,A,3>     0.00000054    -0.00008837     0.00004557    -0.00003098     0.00059864    -0.00027599    -0.00046608     0.49349412
   |3,1-;3,A,3>    -0.00002130     0.00001436     0.00006465    -0.00004331    -0.00041896    -0.00081333    -0.00005477    -0.17014294
   |3,0+;3,A,4>    -0.00008278    -0.00008094    -0.00017049     0.00002002    -0.00006580    -0.00043080     0.00014358     0.00013685
   |3,1+;3,A,4>     0.00001254     0.00026176    -0.00014361     0.00004074     0.00052103    -0.00003455     0.00016695     0.00018806
   |3,1-;3,A,4>     0.00006900    -0.00012477    -0.00019850     0.00002071    -0.00006031    -0.00028127     0.00008819    -0.00015286

                      A  9         A 10         A 11         A 12         A 13         A 14         A 15         A 16

            energy  -285.89314785  -285.89314785  -285.89201080  -285.88525501  -285.88525500  -285.88525500  -285.88266673  -285.83795825
          
   |1,0+;1,A,1>     0.00003809     0.00000967     0.00000037    -0.00002272     0.00005223    -0.00009235    -0.00000004     0.00000002
   |1,0+;1,A,2>    -0.00045205     0.00022229    -0.99999217    -0.00026578     0.00040006    -0.00103841    -0.00000105     0.00000002
   |1,0+;1,A,3>     0.00007006     0.00000020     0.00000033     0.00120771    -0.00036233     0.00057306    -0.99999897    -0.00000001
   |1,0+;1,A,4>    -0.00017622     0.00000877    -0.00000041     0.00002998    -0.00005582     0.00009237     0.00000006     0.99999997
   |3,0+;3,A,1>    -0.00000643     0.00008082     0.00048333     0.00006198    -0.00015509    -0.00008998     0.00006839    -0.00000722
   |3,1+;3,A,1>     0.00003082    -0.00006132    -0.00007594     0.00028394     0.00009874    -0.00002008     0.00004892     0.00001381
   |3,1-;3,A,1>     0.00000897     0.00004116    -0.00044116     0.00005066    -0.00020159    -0.00011060    -0.00004660     0.00003756
   |3,0+;3,A,2>    -0.00037466     0.00020556    -0.00027703     0.00013340    -0.00038953    -0.00020275    -0.00003825    -0.00003653
   |3,1+;3,A,2>    -0.00069502     0.00038631     0.00007079     0.00052473     0.00010637     0.00011784     0.00007665     0.00002477
   |3,1-;3,A,2>    -0.00043947    -0.00080371    -0.00035633     0.00007016    -0.00025918    -0.00013623    -0.00035611    -0.00006149
   |3,0+;3,A,3>     0.37139795     0.36681421     0.00304191    -0.00008555     0.00023174     0.00012758     0.00006857     0.00014885
   |3,1+;3,A,3>     0.34466913     0.79853787    -0.00178822    -0.00003196     0.00016510    -0.00036045    -0.00000102     0.00000360
   |3,1-;3,A,3>    -0.86212850     0.47726682     0.00111991     0.00009008    -0.00024826    -0.00010830    -0.00005168    -0.00013884
   |3,0+;3,A,4>     0.00011040     0.00021327    -0.00092245     0.74318790    -0.08967025     0.66304456     0.00130996    -0.00008854
   |3,1+;3,A,4>    -0.00034899     0.00003403    -0.00001904    -0.27066709     0.86597878     0.42049895    -0.00039984     0.00001750
   |3,1-;3,A,4>    -0.00009122    -0.00022143     0.00067784     0.61188981     0.49197485    -0.61931484     0.00020579     0.00006631
rescaling new expansion vector ... old norm=   4332.2218306595

Sorted Energies:
1  -286.07415254 
2  -285.92143099 
3  -285.92143099 
4  -285.92143099 
5  -285.89882663 
6  -285.89882663 
7  -285.89882662 
8  -285.89314787 
9  -285.89314785 
10  -285.89314785 
11  -285.89201080 
12  -285.88525501 
13  -285.88525500 
14  -285.88525500 
15  -285.88266673 
16  -285.83795825 
Not computing transition moment with identical bra and ket.
 Calculating transition moment for (1,1) => (1,2)
 starting transci.x -m 200000 at Tue May 24 02:08:33 EDT 2022

 -------------------- transci.x ------------------------

                          State No. 1            State No. 2

   Space symmetry:           a                      a   
   No. of CSFs:          ********               ********
   State energies:      -286.07415252          -285.89201082  a.u.

   Transition energy:     0.18214170  a.u.
   Transition energy:     4.96        eV

       Transition moment components:

                 x            y            z

electron         -0.407162    -0.159757    -0.005142  e*bohr
frozen core       0.000000     0.000000     0.000000  e*bohr
total (elec)     -0.407162    -0.159757    -0.005142  e*bohr


   Tr.dipole length:     0.437412    e*bohr
   Oscillator strength :  0.023233
   Einstein A coef.:     0.2476E+08  1/sec
   Einstein B coef.:     0.7765E+08  sec/g

                 x            y            z

<L> electron    -0.130948    -0.331546     0.513616  e*bohr


   <L> value length:     0.625197    e*bohr
 --------------------------------------------------- 
  Calculating transition moment for (1,1) => (1,3)
 starting transci.x -m 200000 at Tue May 24 02:10:51 EDT 2022

 -------------------- transci.x ------------------------

                          State No. 1            State No. 2

   Space symmetry:           a                      a   
   No. of CSFs:          ********               ********
   State energies:      -286.07415252          -285.88266674  a.u.

   Transition energy:     0.19148579  a.u.
   Transition energy:     5.21        eV

       Transition moment components:

                 x            y            z

electron         -0.076115    -0.036730    -0.207362  e*bohr
frozen core       0.000000     0.000000     0.000000  e*bohr
total (elec)     -0.076115    -0.036730    -0.207362  e*bohr


   Tr.dipole length:     0.223923    e*bohr
   Oscillator strength :  0.006401
   Einstein A coef.:     0.7540E+07  1/sec
   Einstein B coef.:     0.2035E+08  sec/g

                 x            y            z

<L> electron     0.005059     0.337221     0.161336  e*bohr


   <L> value length:     0.373862    e*bohr
 --------------------------------------------------- 
  Calculating transition moment for (1,1) => (1,4)
 starting transci.x -m 200000 at Tue May 24 02:13:10 EDT 2022

 -------------------- transci.x ------------------------

                          State No. 1            State No. 2

   Space symmetry:           a                      a   
   No. of CSFs:          ********               ********
   State energies:      -286.07415252          -285.83795826  a.u.

   Transition energy:     0.23619427  a.u.
   Transition energy:     6.43        eV

       Transition moment components:

                 x            y            z

electron         -0.219054    -0.024552     0.176029  e*bohr
frozen core       0.000000     0.000000     0.000000  e*bohr
total (elec)     -0.219054    -0.024552     0.176029  e*bohr


   Tr.dipole length:     0.282088    e*bohr
   Oscillator strength :  0.012530
   Einstein A coef.:     0.2246E+08  1/sec
   Einstein B coef.:     0.3229E+08  sec/g

                 x            y            z

<L> electron     0.362973    -0.268618     0.057913  e*bohr


   <L> value length:     0.455257    e*bohr
 --------------------------------------------------- 
 Not computing transition moment with identical bra and ket.
 Calculating transition moment for (1,2) => (1,3)
 starting transci.x -m 200000 at Tue May 24 02:15:28 EDT 2022

 -------------------- transci.x ------------------------

                          State No. 1            State No. 2

   Space symmetry:           a                      a   
   No. of CSFs:          ********               ********
   State energies:      -285.89201082          -285.88266674  a.u.

   Transition energy:     0.00934409  a.u.
   Transition energy:     0.25        eV

       Transition moment components:

                 x            y            z

electron         -1.168936    -0.050662     0.065769  e*bohr
frozen core       0.000000     0.000000     0.000000  e*bohr
total (elec)     -1.168936    -0.050662     0.065769  e*bohr


   Tr.dipole length:     1.171881    e*bohr
   Oscillator strength :  0.008555
   Einstein A coef.:     0.2400E+05  1/sec
   Einstein B coef.:     0.5573E+09  sec/g

                 x            y            z

<L> electron    -0.114447    -0.246051    -0.006487  e*bohr


   <L> value length:     0.271443    e*bohr
 --------------------------------------------------- 
  Calculating transition moment for (1,2) => (1,4)
 starting transci.x -m 200000 at Tue May 24 02:17:41 EDT 2022

 -------------------- transci.x ------------------------

                          State No. 1            State No. 2

   Space symmetry:           a                      a   
   No. of CSFs:          ********               ********
   State energies:      -285.89201082          -285.83795826  a.u.

   Transition energy:     0.05405257  a.u.
   Transition energy:     1.47        eV

       Transition moment components:

                 x            y            z

electron          0.439860    -0.090522     0.022334  e*bohr
frozen core       0.000000     0.000000     0.000000  e*bohr
total (elec)      0.439860    -0.090522     0.022334  e*bohr


   Tr.dipole length:     0.449633    e*bohr
   Oscillator strength :  0.007285
   Einstein A coef.:     0.6838E+06  1/sec
   Einstein B coef.:     0.8204E+08  sec/g

                 x            y            z

<L> electron     0.060482    -0.660584    -0.114963  e*bohr


   <L> value length:     0.673235    e*bohr
 --------------------------------------------------- 
 Not computing transition moment with identical bra and ket.
 Calculating transition moment for (1,3) => (1,4)
 starting transci.x -m 200000 at Tue May 24 02:19:55 EDT 2022

 -------------------- transci.x ------------------------

                          State No. 1            State No. 2

   Space symmetry:           a                      a   
   No. of CSFs:          ********               ********
   State energies:      -285.88266674          -285.83795826  a.u.

   Transition energy:     0.04470848  a.u.
   Transition energy:     1.22        eV

       Transition moment components:

                 x            y            z

electron         -0.386996    -0.136304    -0.036604  e*bohr
frozen core       0.000000     0.000000     0.000000  e*bohr
total (elec)     -0.386996    -0.136304    -0.036604  e*bohr


   Tr.dipole length:     0.411927    e*bohr
   Oscillator strength :  0.005058
   Einstein A coef.:     0.3248E+06  1/sec
   Einstein B coef.:     0.6886E+08  sec/g

                 x            y            z

<L> electron    -0.033842     0.218941     0.143245  e*bohr


   <L> value length:     0.263817    e*bohr
 --------------------------------------------------- 
 Not computing transition moment with identical bra and ket.
Not computing transition moment with identical bra and ket.
 Calculating transition moment for (2,1) => (2,2)
 starting transci.x -m 200000 at Tue May 24 02:22:09 EDT 2022

 -------------------- transci.x ------------------------

                          State No. 1            State No. 2

   Space symmetry:           a                      a   
   No. of CSFs:          ********               ********
   State energies:      -285.92143098          -285.89882663  a.u.

   Transition energy:     0.02260436  a.u.
   Transition energy:     0.62        eV

       Transition moment components:

                 x            y            z

electron         -0.812432    -0.213577    -0.168630  e*bohr
frozen core       0.000000     0.000000     0.000000  e*bohr
total (elec)     -0.812432    -0.213577    -0.168630  e*bohr


   Tr.dipole length:     0.856794    e*bohr
   Oscillator strength :  0.011063
   Einstein A coef.:     0.1816E+06  1/sec
   Einstein B coef.:     0.2979E+09  sec/g

                 x            y            z

<L> electron    -0.041498     0.345940     0.163002  e*bohr


   <L> value length:     0.384664    e*bohr
 --------------------------------------------------- 
  Calculating transition moment for (2,1) => (2,3)
 starting transci.x -m 200000 at Tue May 24 02:26:20 EDT 2022

 -------------------- transci.x ------------------------

                          State No. 1            State No. 2

   Space symmetry:           a                      a   
   No. of CSFs:          ********               ********
   State energies:      -285.92143098          -285.89314785  a.u.

   Transition energy:     0.02828313  a.u.
   Transition energy:     0.77        eV

       Transition moment components:

                 x            y            z

electron         -0.331727    -0.069799    -0.115986  e*bohr
frozen core       0.000000     0.000000     0.000000  e*bohr
total (elec)     -0.331727    -0.069799    -0.115986  e*bohr


   Tr.dipole length:     0.358284    e*bohr
   Oscillator strength :  0.002420
   Einstein A coef.:     0.6221E+05  1/sec
   Einstein B coef.:     0.5209E+08  sec/g

                 x            y            z

<L> electron    -0.025551    -0.598025     0.036422  e*bohr


   <L> value length:     0.599677    e*bohr
 --------------------------------------------------- 
  Calculating transition moment for (2,1) => (2,4)
 starting transci.x -m 200000 at Tue May 24 02:30:31 EDT 2022

 -------------------- transci.x ------------------------

                          State No. 1            State No. 2

   Space symmetry:           a                      a   
   No. of CSFs:          ********               ********
   State energies:      -285.92143098          -285.88525501  a.u.

   Transition energy:     0.03617597  a.u.
   Transition energy:     0.98        eV

       Transition moment components:

                 x            y            z

electron          0.653662     0.096974     0.089085  e*bohr
frozen core       0.000000     0.000000     0.000000  e*bohr
total (elec)      0.653662     0.096974     0.089085  e*bohr


   Tr.dipole length:     0.666794    e*bohr
   Oscillator strength :  0.010723
   Einstein A coef.:     0.4509E+06  1/sec
   Einstein B coef.:     0.1804E+09  sec/g

                 x            y            z

<L> electron     0.041582     0.103354    -0.134953  e*bohr


   <L> value length:     0.174996    e*bohr
 --------------------------------------------------- 
 Not computing transition moment with identical bra and ket.
 Calculating transition moment for (2,2) => (2,3)
 starting transci.x -m 200000 at Tue May 24 02:34:39 EDT 2022

 -------------------- transci.x ------------------------

                          State No. 1            State No. 2

   Space symmetry:           a                      a   
   No. of CSFs:          ********               ********
   State energies:      -285.89882663          -285.89314785  a.u.

   Transition energy:     0.00567877  a.u.
   Transition energy:     0.15        eV

       Transition moment components:

                 x            y            z

electron         -0.811084    -0.082851     0.006830  e*bohr
frozen core       0.000000     0.000000     0.000000  e*bohr
total (elec)     -0.811084    -0.082851     0.006830  e*bohr


   Tr.dipole length:     0.815333    e*bohr
   Oscillator strength :  0.002517
   Einstein A coef.:     0.2607E+04  1/sec
   Einstein B coef.:     0.2698E+09  sec/g

                 x            y            z

<L> electron    -0.082862     0.119901    -0.037735  e*bohr


   <L> value length:     0.150553    e*bohr
 --------------------------------------------------- 
  Calculating transition moment for (2,2) => (2,4)
 starting transci.x -m 200000 at Tue May 24 02:38:41 EDT 2022

 -------------------- transci.x ------------------------

                          State No. 1            State No. 2

   Space symmetry:           a                      a   
   No. of CSFs:          ********               ********
   State energies:      -285.89882663          -285.88525501  a.u.

   Transition energy:     0.01357161  a.u.
   Transition energy:     0.37        eV

       Transition moment components:

                 x            y            z

electron          1.093127     0.061632     0.065050  e*bohr
frozen core       0.000000     0.000000     0.000000  e*bohr
total (elec)      1.093127     0.061632     0.065050  e*bohr


   Tr.dipole length:     1.096794    e*bohr
   Oscillator strength :  0.010884
   Einstein A coef.:     0.6441E+05  1/sec
   Einstein B coef.:     0.4882E+09  sec/g

                 x            y            z

<L> electron     0.058735    -0.215685    -0.066745  e*bohr


   <L> value length:     0.233291    e*bohr
 --------------------------------------------------- 
 Not computing transition moment with identical bra and ket.
 Calculating transition moment for (2,3) => (2,4)
 starting transci.x -m 200000 at Tue May 24 02:42:52 EDT 2022

 -------------------- transci.x ------------------------

                          State No. 1            State No. 2

   Space symmetry:           a                      a   
   No. of CSFs:          ********               ********
   State energies:      -285.89314785          -285.88525501  a.u.

   Transition energy:     0.00789284  a.u.
   Transition energy:     0.21        eV

       Transition moment components:

                 x            y            z

electron          0.457606     0.011061    -0.024427  e*bohr
frozen core       0.000000     0.000000     0.000000  e*bohr
total (elec)      0.457606     0.011061    -0.024427  e*bohr


   Tr.dipole length:     0.458391    e*bohr
   Oscillator strength :  0.001106
   Einstein A coef.:     0.2213E+04  1/sec
   Einstein B coef.:     0.8527E+08  sec/g

                 x            y            z

<L> electron    -0.037933     0.521118    -0.039233  e*bohr


   <L> value length:     0.523968    e*bohr
 --------------------------------------------------- 
 Not computing transition moment with identical bra and ket.
 --- ci properties for state 1 of  DRT 1 ----
starting exptvl.x -m 200000  at Tue May 24 02:46:57 EDT 2022

 -------------------- exptvl.x ------------------------
  === dipole moment === 
                     X               Y               Z   
   orign x       0.00000000      0.00000000      0.00000000
   orign y       0.00000000      0.00000000      0.00000000
   orign z       0.00000000      0.00000000      0.00000000
   nuclear      -1.08999811     -0.70321280     -0.52631515
   electronic    0.98437027      0.17238647      0.60293721
   total        -0.10562784     -0.53082633      0.07662206
   total Dipole moment =   1.38939721    Debye
 !timer: exptvl required                 cpu_time=     0.192 walltime=     0.861
 --------------------------------------------------- 
  --- ci properties for state 2 of  DRT 1 ----
starting exptvl.x -m 200000  at Tue May 24 02:46:58 EDT 2022

 -------------------- exptvl.x ------------------------
  === dipole moment === 
                     X               Y               Z   
   orign x       0.00000000      0.00000000      0.00000000
   orign y       0.00000000      0.00000000      0.00000000
   orign z       0.00000000      0.00000000      0.00000000
   nuclear      -1.08999811     -0.70321280     -0.52631515
   electronic    3.72043367      0.47385463      0.95373250
   total         2.63043556     -0.22935817      0.42741735
   total Dipole moment =   6.79863552    Debye
 --------------------------------------------------- 
  --- ci properties for state 3 of  DRT 1 ----
starting exptvl.x -m 200000  at Tue May 24 02:46:58 EDT 2022

 -------------------- exptvl.x ------------------------
  === dipole moment === 
                     X               Y               Z   
   orign x       0.00000000      0.00000000      0.00000000
   orign y       0.00000000      0.00000000      0.00000000
   orign z       0.00000000      0.00000000      0.00000000
   nuclear      -1.08999811     -0.70321280     -0.52631515
   electronic    1.30184685      0.20776877      0.54917442
   total         0.21184874     -0.49544403      0.02285927
   total Dipole moment =   1.37081879    Debye
 --------------------------------------------------- 
  --- ci properties for state 4 of  DRT 1 ----
starting exptvl.x -m 200000  at Tue May 24 02:46:59 EDT 2022

 -------------------- exptvl.x ------------------------
  === dipole moment === 
                     X               Y               Z   
   orign x       0.00000000      0.00000000      0.00000000
   orign y       0.00000000      0.00000000      0.00000000
   orign z       0.00000000      0.00000000      0.00000000
   nuclear      -1.08999811     -0.70321280     -0.52631515
   electronic    5.19373954      0.25745280      0.79740004
   total         4.10374143     -0.44576000      0.27108489
   total Dipole moment =  10.51463614    Debye
 --------------------------------------------------- 
  --- ci properties for state 1 of  DRT 2 ----
starting exptvl.x -m 200000  at Tue May 24 02:46:59 EDT 2022

 -------------------- exptvl.x ------------------------
  === dipole moment === 
                     X               Y               Z   
   orign x       0.00000000      0.00000000      0.00000000
   orign y       0.00000000      0.00000000      0.00000000
   orign z       0.00000000      0.00000000      0.00000000
   nuclear      -1.08999811     -0.70321280     -0.52631515
   electronic    1.41967592      0.36112844      0.73764519
   total         0.32967781     -0.34208436      0.21133004
   total Dipole moment =   1.32163507    Debye
 --------------------------------------------------- 
  --- ci properties for state 2 of  DRT 2 ----
starting exptvl.x -m 200000  at Tue May 24 02:46:59 EDT 2022

 -------------------- exptvl.x ------------------------
  === dipole moment === 
                     X               Y               Z   
   orign x       0.00000000      0.00000000      0.00000000
   orign y       0.00000000      0.00000000      0.00000000
   orign z       0.00000000      0.00000000      0.00000000
   nuclear      -1.08999811     -0.70321280     -0.52631515
   electronic    2.36986995      0.40428721      0.94256265
   total         1.27987184     -0.29892559      0.41624750
   total Dipole moment =   3.50419572    Debye
 --------------------------------------------------- 
  --- ci properties for state 3 of  DRT 2 ----
starting exptvl.x -m 200000  at Tue May 24 02:47:00 EDT 2022

 -------------------- exptvl.x ------------------------
  === dipole moment === 
                     X               Y               Z   
   orign x       0.00000000      0.00000000      0.00000000
   orign y       0.00000000      0.00000000      0.00000000
   orign z       0.00000000      0.00000000      0.00000000
   nuclear      -1.08999811     -0.70321280     -0.52631515
   electronic    0.97821055      0.22281000      0.56720098
   total        -0.11178756     -0.48040280      0.04088583
   total Dipole moment =   1.25798592    Debye
 --------------------------------------------------- 
  --- ci properties for state 4 of  DRT 2 ----
starting exptvl.x -m 200000  at Tue May 24 02:47:00 EDT 2022

 -------------------- exptvl.x ------------------------
  === dipole moment === 
                     X               Y               Z   
   orign x       0.00000000      0.00000000      0.00000000
   orign y       0.00000000      0.00000000      0.00000000
   orign z       0.00000000      0.00000000      0.00000000
   nuclear      -1.08999811     -0.70321280     -0.52631515
   electronic    1.58722568      0.15150322      0.59918996
   total         0.49722757     -0.55170958      0.07287481
   total Dipole moment =   1.89684896    Debye
 --------------------------------------------------- 
 starting mo_convert.x at Tue May 24 02:47:00 EDT 2022

 -------------------- mo_convert.x ------------------------
 --------------------------------------------------- 
 starting pymolcas molcas.input.molden > molcas.output.molden at Tue May 24 02:47:01 EDT 2022

Generating link ln -s ./molcas.OrdInt ORDINT 
 -------------------- molden ------------------------
 --------------------------------------------------- 
 starting mo_convert.x at Tue May 24 02:47:32 EDT 2022

 -------------------- mo_convert.x ------------------------
 --------------------------------------------------- 
 starting pymolcas molcas.input.molden > molcas.output.molden at Tue May 24 02:47:32 EDT 2022

Generating link ln -s ./molcas.OrdInt ORDINT 
 -------------------- molden ------------------------
 --------------------------------------------------- 
 starting mo_convert.x at Tue May 24 02:47:59 EDT 2022

 -------------------- mo_convert.x ------------------------
 --------------------------------------------------- 
 starting pymolcas molcas.input.molden > molcas.output.molden at Tue May 24 02:48:00 EDT 2022

Generating link ln -s ./molcas.OrdInt ORDINT 
 -------------------- molden ------------------------
 --------------------------------------------------- 
 starting mo_convert.x at Tue May 24 02:48:22 EDT 2022

 -------------------- mo_convert.x ------------------------
 --------------------------------------------------- 
 starting pymolcas molcas.input.molden > molcas.output.molden at Tue May 24 02:48:22 EDT 2022

Generating link ln -s ./molcas.OrdInt ORDINT 
 -------------------- molden ------------------------
 --------------------------------------------------- 
 starting mo_convert.x at Tue May 24 02:48:44 EDT 2022

 -------------------- mo_convert.x ------------------------
 --------------------------------------------------- 
 starting pymolcas molcas.input.molden > molcas.output.molden at Tue May 24 02:48:44 EDT 2022

Generating link ln -s ./molcas.OrdInt ORDINT 
 -------------------- molden ------------------------
 --------------------------------------------------- 
 starting mo_convert.x at Tue May 24 02:49:06 EDT 2022

 -------------------- mo_convert.x ------------------------
 --------------------------------------------------- 
 starting pymolcas molcas.input.molden > molcas.output.molden at Tue May 24 02:49:06 EDT 2022

Generating link ln -s ./molcas.OrdInt ORDINT 
 -------------------- molden ------------------------
 --------------------------------------------------- 
 starting mo_convert.x at Tue May 24 02:49:28 EDT 2022

 -------------------- mo_convert.x ------------------------
 --------------------------------------------------- 
 starting pymolcas molcas.input.molden > molcas.output.molden at Tue May 24 02:49:28 EDT 2022

Generating link ln -s ./molcas.OrdInt ORDINT 
 -------------------- molden ------------------------
 --------------------------------------------------- 
 starting mo_convert.x at Tue May 24 02:49:49 EDT 2022

 -------------------- mo_convert.x ------------------------
 --------------------------------------------------- 
 starting pymolcas molcas.input.molden > molcas.output.molden at Tue May 24 02:49:50 EDT 2022

Generating link ln -s ./molcas.OrdInt ORDINT 
 -------------------- molden ------------------------
 --------------------------------------------------- 
 starting mo_convert.x at Tue May 24 02:50:12 EDT 2022

 -------------------- mo_convert.x ------------------------
 --------------------------------------------------- 
 starting pymolcas molcas.input.molden > molcas.output.molden at Tue May 24 02:50:12 EDT 2022

Generating link ln -s ./molcas.OrdInt ORDINT 
 -------------------- molden ------------------------
 --------------------------------------------------- 
 starting mo_convert.x at Tue May 24 02:50:34 EDT 2022

 -------------------- mo_convert.x ------------------------
 --------------------------------------------------- 
 starting pymolcas molcas.input.molden > molcas.output.molden at Tue May 24 02:50:34 EDT 2022

Generating link ln -s ./molcas.OrdInt ORDINT 
 -------------------- molden ------------------------
 --------------------------------------------------- 
 starting mo_convert.x at Tue May 24 02:50:56 EDT 2022

 -------------------- mo_convert.x ------------------------
 --------------------------------------------------- 
 starting pymolcas molcas.input.molden > molcas.output.molden at Tue May 24 02:50:56 EDT 2022

Generating link ln -s ./molcas.OrdInt ORDINT 
 -------------------- molden ------------------------
 --------------------------------------------------- 
 starting mo_convert.x at Tue May 24 02:51:18 EDT 2022

 -------------------- mo_convert.x ------------------------
 --------------------------------------------------- 
 starting pymolcas molcas.input.molden > molcas.output.molden at Tue May 24 02:51:19 EDT 2022

Generating link ln -s ./molcas.OrdInt ORDINT 
 -------------------- molden ------------------------
 --------------------------------------------------- 
 starting mo_convert.x at Tue May 24 02:51:40 EDT 2022

 -------------------- mo_convert.x ------------------------
 --------------------------------------------------- 
 starting pymolcas molcas.input.molden > molcas.output.molden at Tue May 24 02:51:41 EDT 2022

Generating link ln -s ./molcas.OrdInt ORDINT 
 -------------------- molden ------------------------
 --------------------------------------------------- 
 starting mo_convert.x at Tue May 24 02:52:03 EDT 2022

 -------------------- mo_convert.x ------------------------
 --------------------------------------------------- 
 starting pymolcas molcas.input.molden > molcas.output.molden at Tue May 24 02:52:03 EDT 2022

Generating link ln -s ./molcas.OrdInt ORDINT 
 -------------------- molden ------------------------
 --------------------------------------------------- 
 

 +++++++++++ STARTING GRADIENTS AND NAD. COUPLINGS CALCULATION +++++++++++ 

 Using new transition density code ... 
INFO: this is a frozen core gradient calculation
starting cidrt.x  -m 200000 < cidrtin.cigrd > cidrtls.cigrd at Tue May 24 02:52:25 EDT 2022

 -------------------- cidrt.x ------------------------
 total number of orbitals            :   246
 number of frozen core orbitals      :    18
 number of frozen virtual orbitals   :     0
 number of internal orbitals         :    14
 number of external orbitals         :   214
 spatial symmetry:   a  
 
 total number of configurations  282461366
 number of reference configurations  1666
 --------------------------------------------------- 
 starting tran.x -m 200000  at Tue May 24 02:52:32 EDT 2022

 -------------------- tran.x ------------------------
 --------------------------------------------------- 
 ---- Computing 8 gradient(s)  ----

 --- Computing gradient for DRT:1, State; 1

starting cigrd.x -m 200000 at Tue May 24 03:01:11 EDT 2022

 -------------------- cigrd.x ------------------------
 Total energy (ciudg) :  -286.074152522720 
  Effective energy     :  -286.074152541759 
  Delta E              :     0.000000019039 
  --------------------------------------------------- 
 starting tran.x -m 200000  at Tue May 24 03:11:32 EDT 2022

 -------------------- tran.x ------------------------
 --------------------------------------------------- 
 starting pymolcas molcas.input.alaska > molcas.output.alaska  at Tue May 24 03:18:50 EDT 2022

Generating link ln -s ./molcas.OrdInt ORDINT 
 -------------------- alaska ------------------------
 --------------------------------------------------- 
 cartesian gradient by alaska (MOLCAS)

 === Gradient of DRT 1, state 1 === 
   0.314551D-01   0.574817D-01   0.673177D-01
  -0.357242D-05  -0.119373D-04  -0.582735D-05
  -0.414972D-05   0.459963D-06  -0.935439D-06
  -0.574217D-05   0.397496D-07   0.303876D-05
   0.382315D-05   0.122156D-05  -0.299539D-05
   0.344364D-05   0.335473D-05   0.190235D-05
  -0.518731D-07  -0.192602D-06   0.449224D-07
  -0.314505D-01  -0.574663D-01  -0.672998D-01
   0.239676D-06  -0.519367D-05  -0.131603D-04
   0.500746D-06  -0.110597D-05   0.429632D-06
   0.112331D-05  -0.122700D-05  -0.476827D-06
  -0.569292D-06  -0.416522D-06   0.153993D-05
  -0.427876D-06  -0.430287D-06  -0.142478D-05
   0.775414D-06  -0.298068D-07  -0.295043D-07
===================================
 --- Computing gradient for DRT:1, State; 2

starting cigrd.x -m 200000 at Tue May 24 03:20:13 EDT 2022

 -------------------- cigrd.x ------------------------
 Total energy (ciudg) :  -285.892010821671 
  Effective energy     :  -285.892010840988 
  Delta E              :     0.000000019317 
  --------------------------------------------------- 
 starting tran.x -m 200000  at Tue May 24 03:30:30 EDT 2022

 -------------------- tran.x ------------------------
 --------------------------------------------------- 
 starting pymolcas molcas.input.alaska > molcas.output.alaska  at Tue May 24 03:37:48 EDT 2022

Generating link ln -s ./molcas.OrdInt ORDINT 
 -------------------- alaska ------------------------
 --------------------------------------------------- 
 cartesian gradient by alaska (MOLCAS)

 === Gradient of DRT 1, state 2 === 
  -0.509179D-01   0.720583D-01   0.363548D-01
   0.729547D-01  -0.214922D-01  -0.215228D-02
  -0.175459D-01   0.491733D-02   0.320977D-01
  -0.254968D-01  -0.347359D-02  -0.288046D-01
   0.140806D-01   0.294465D-03   0.130469D-01
   0.149832D-01   0.447707D-02  -0.164341D-01
  -0.518026D-02  -0.435996D-03   0.775086D-03
  -0.122291D-01  -0.385770D-01  -0.242227D-01
   0.848343D-02  -0.134523D-01  -0.102329D-01
  -0.407130D-03  -0.313719D-02  -0.329305D-02
  -0.810612D-03  -0.177943D-03   0.278171D-02
   0.861581D-03   0.121642D-03  -0.790549D-03
   0.886993D-03  -0.301578D-03   0.946148D-03
   0.337074D-03  -0.820976D-03  -0.721984D-04
===================================
 --- Computing gradient for DRT:1, State; 3

starting cigrd.x -m 200000 at Tue May 24 03:39:12 EDT 2022

 -------------------- cigrd.x ------------------------
 Total energy (ciudg) :  -285.882666735998 
  Effective energy     :  -285.882666755650 
  Delta E              :     0.000000019652 
  --------------------------------------------------- 
 starting tran.x -m 200000  at Tue May 24 03:49:48 EDT 2022

 -------------------- tran.x ------------------------
 --------------------------------------------------- 
 starting pymolcas molcas.input.alaska > molcas.output.alaska  at Tue May 24 03:57:06 EDT 2022

Generating link ln -s ./molcas.OrdInt ORDINT 
 -------------------- alaska ------------------------
 --------------------------------------------------- 
 cartesian gradient by alaska (MOLCAS)

 === Gradient of DRT 1, state 3 === 
   0.468349D-02   0.689260D-01   0.699521D-01
   0.416162D-01  -0.553768D-02   0.114788D-02
   0.210705D-01  -0.474733D-02   0.283734D-01
   0.150926D-01   0.365205D-02  -0.329394D-01
  -0.229820D-01   0.306071D-02   0.241331D-01
  -0.137480D-01  -0.122425D-02  -0.275631D-01
  -0.191463D-01  -0.337431D-03   0.489842D-02
  -0.288865D-01  -0.595934D-01  -0.636296D-01
   0.143547D-02  -0.282785D-02  -0.476497D-02
  -0.293988D-03   0.689104D-03  -0.113651D-02
  -0.462742D-03  -0.195080D-02   0.147241D-02
   0.528162D-03  -0.205786D-03  -0.116851D-02
   0.499918D-03   0.469707D-03   0.111538D-02
   0.593214D-03  -0.372982D-03   0.109360D-03
===================================
 --- Computing gradient for DRT:1, State; 4

starting cigrd.x -m 200000 at Tue May 24 03:58:27 EDT 2022

 -------------------- cigrd.x ------------------------
 Total energy (ciudg) :  -285.837958256643 
  Effective energy     :  -285.837958273210 
  Delta E              :     0.000000016567 
  --------------------------------------------------- 
 starting tran.x -m 200000  at Tue May 24 04:09:14 EDT 2022

 -------------------- tran.x ------------------------
 --------------------------------------------------- 
 starting pymolcas molcas.input.alaska > molcas.output.alaska  at Tue May 24 04:16:30 EDT 2022

Generating link ln -s ./molcas.OrdInt ORDINT 
 -------------------- alaska ------------------------
 --------------------------------------------------- 
 cartesian gradient by alaska (MOLCAS)

 === Gradient of DRT 1, state 4 === 
  -0.114235D-01   0.565644D-01   0.549005D-01
   0.528703D-01  -0.451812D-02   0.572287D-03
   0.359090D-01   0.148428D-02   0.246855D-02
   0.263258D-01  -0.448462D-03  -0.253625D-02
  -0.361091D-01  -0.730931D-03  -0.761251D-02
  -0.395551D-01  -0.102205D-02   0.807767D-02
  -0.980642D-02   0.704558D-03  -0.435946D-02
  -0.233677D-01  -0.467272D-01  -0.483954D-01
   0.377341D-02  -0.428110D-02  -0.357742D-02
  -0.327722D-03  -0.126774D-02  -0.321427D-02
  -0.718437D-03   0.465219D-03   0.326188D-02
   0.364772D-03   0.805352D-04  -0.915933D-03
   0.409102D-03  -0.223289D-03   0.127301D-02
   0.165568D-02  -0.800435D-04   0.573057D-04
===================================
 --- Computing gradient for DRT:2, State; 1

starting cigrd.x -m 200000 at Tue May 24 04:17:47 EDT 2022

 -------------------- cigrd.x ------------------------
 Total energy (ciudg) :  -285.921430982827 
  Effective energy     :  -285.921431000648 
  Delta E              :     0.000000017821 
  --------------------------------------------------- 
 starting tran.x -m 200000  at Tue May 24 04:28:09 EDT 2022

 -------------------- tran.x ------------------------
 --------------------------------------------------- 
 starting pymolcas molcas.input.alaska > molcas.output.alaska  at Tue May 24 04:35:12 EDT 2022

Generating link ln -s ./molcas.OrdInt ORDINT 
 -------------------- alaska ------------------------
 --------------------------------------------------- 
 cartesian gradient by alaska (MOLCAS)

 === Gradient of DRT 2, state 1 === 
  -0.121895D-01   0.553233D-01   0.576270D-01
   0.672465D-01  -0.142275D-01  -0.217456D-01
  -0.223502D-01  -0.673308D-03   0.480545D-01
  -0.252089D-01   0.376951D-02  -0.320056D-01
   0.115293D-01   0.223184D-02   0.230530D-01
   0.296794D-01   0.327736D-02  -0.433699D-01
  -0.328594D-01  -0.162598D-02   0.194494D-01
  -0.186849D-01  -0.403244D-01  -0.448413D-01
   0.193352D-02  -0.472431D-02  -0.621428D-02
  -0.680816D-03  -0.140821D-02  -0.919494D-03
  -0.784323D-03  -0.653101D-03   0.508795D-03
   0.659614D-03   0.165977D-03  -0.418260D-03
   0.879958D-03  -0.323115D-03   0.488274D-03
   0.829691D-03  -0.808089D-03   0.333561D-03
===================================
 --- Computing gradient for DRT:2, State; 2

starting cigrd.x -m 200000 at Tue May 24 04:36:34 EDT 2022

 -------------------- cigrd.x ------------------------
 Total energy (ciudg) :  -285.898826625928 
  Effective energy     :  -285.898826644888 
  Delta E              :     0.000000018960 
  --------------------------------------------------- 
 starting tran.x -m 200000  at Tue May 24 04:48:28 EDT 2022

 -------------------- tran.x ------------------------
 --------------------------------------------------- 
 starting pymolcas molcas.input.alaska > molcas.output.alaska  at Tue May 24 04:55:40 EDT 2022

Generating link ln -s ./molcas.OrdInt ORDINT 
 -------------------- alaska ------------------------
 --------------------------------------------------- 
 cartesian gradient by alaska (MOLCAS)

 === Gradient of DRT 2, state 2 === 
  -0.164470D-01   0.600478D-01   0.346518D-01
   0.363268D-01  -0.686578D-02   0.448215D-01
   0.365870D-01   0.347982D-02  -0.256234D-02
   0.969766D-02  -0.456498D-02  -0.352348D-01
  -0.176446D-01  -0.178477D-02   0.261403D-01
  -0.356631D-01   0.870105D-03   0.455352D-02
  -0.339678D-03   0.158143D-02  -0.331013D-01
  -0.173624D-01  -0.415917D-01  -0.336695D-01
   0.414671D-02  -0.934879D-02  -0.434773D-02
   0.183288D-03  -0.181814D-02  -0.261572D-02
  -0.451834D-03   0.700110D-03   0.201111D-02
   0.478909D-03   0.806406D-04  -0.117646D-02
   0.262888D-03  -0.580924D-03   0.112244D-02
   0.225328D-03  -0.204888D-03  -0.592856D-03
===================================
 --- Computing gradient for DRT:2, State; 3

starting cigrd.x -m 200000 at Tue May 24 04:57:03 EDT 2022

 -------------------- cigrd.x ------------------------
 Total energy (ciudg) :  -285.893147851824 
  Effective energy     :  -285.893147870674 
  Delta E              :     0.000000018850 
  --------------------------------------------------- 
 starting tran.x -m 200000  at Tue May 24 05:08:07 EDT 2022

 -------------------- tran.x ------------------------
 --------------------------------------------------- 
 starting pymolcas molcas.input.alaska > molcas.output.alaska  at Tue May 24 05:15:24 EDT 2022

Generating link ln -s ./molcas.OrdInt ORDINT 
 -------------------- alaska ------------------------
 --------------------------------------------------- 
 cartesian gradient by alaska (MOLCAS)

 === Gradient of DRT 2, state 3 === 
   0.162469D-02   0.708483D-01   0.701427D-01
   0.361087D-01  -0.779524D-02  -0.240588D-01
   0.203864D-01  -0.269684D-02   0.353500D-01
   0.368604D-01   0.339243D-02  -0.179293D-01
  -0.361961D-01   0.270263D-02   0.146664D-01
  -0.270571D-01  -0.581036D-03  -0.273189D-01
  -0.397916D-02  -0.581557D-03   0.164283D-01
  -0.293831D-01  -0.598220D-01  -0.631278D-01
   0.854514D-03  -0.373461D-02  -0.462334D-02
   0.250820D-05   0.652286D-04  -0.130834D-02
  -0.414844D-04  -0.150554D-02   0.182862D-02
   0.492003D-03  -0.156733D-03  -0.148607D-02
   0.262053D-03   0.286631D-03   0.134985D-02
   0.656476D-04  -0.421656D-03   0.864808D-04
===================================
 --- Computing gradient for DRT:2, State; 4

starting cigrd.x -m 200000 at Tue May 24 05:16:45 EDT 2022

 -------------------- cigrd.x ------------------------
 Total energy (ciudg) :  -285.885255012625 
  Effective energy     :  -285.885255031438 
[...]
  -1.140093E+00   9.408555E-01   1.605879E+00
   1.165466E+00  -1.191515E-01  -9.363317E-01
   1.088397E+00  -2.197752E-01  -4.113892E-01
  -5.109002E-01  -1.143572E-01   8.091672E-01
  -1.484101E+00  -1.689076E-01   5.837150E-01
  -2.406796E-01   1.060486E-01  -1.340151E+00
  -6.901919E-01  -9.968748E-01  -1.374906E+00
  -1.311022E-01   2.402794E-01   3.381594E-01
   1.821361E-03   6.548523E-02   4.354565E-02
  -3.424751E-03   2.796905E-02  -1.515534E-02
   6.412891E-05   2.771075E-03  -1.372712E-02
  -1.554917E-02   1.940144E-02   5.080301E-03
   9.376597E-03   2.438436E-02  -2.289455E-02
===================================

 Norm of the nonadiabatic coupling vector: 
 |h(drt2.state1,drt2.state2)|= 4.6506021111468 

 Cross-check of the non-adiabatic coupling term:
  DeltaE= -0.0226043568000023

  <L>*dE form CIGRD   :    0.0008574511    -0.0117795372     0.0008868367
  <L>*dE form NADCOUPL:    0.0009390131    -0.0078204100    -0.0036847186
 -------------------------------------------------------------------------
  Difference          :   -0.0000815621    -0.0039591272     0.0045715553

 NOTE: This test is meaningless at a point of conical intersection!


 -------- NAD. COUPLING for DRT:2 STATE:1 AND DRT:2 STATE:3 --------
opening file =ciudgls.drt2.sp
opening file =ciudgls.drt2.sp
extracted: energy1= -285.9214309825   energy2=-285.8931478515   deltae=-0.0282831310000233
starting cigrd.x -m 200000 at Tue May 24 08:00:33 EDT 2022

 -------------------- cigrd.x ------------------------
 Total energy (ciudg) :    -0.000000000433 
  Effective energy     :    -0.000000006304 
  Delta E              :     0.000000005871 
  --------------------------------------------------- 
 starting tran.x -m 200000  at Tue May 24 08:11:15 EDT 2022

 -------------------- tran.x ------------------------
 --------------------------------------------------- 
  adding keyword NONUC to alaska input
starting pymolcas molcas.input.alaska > molcas.output.alaska  at Tue May 24 08:18:12 EDT 2022

Generating link ln -s ./molcas.OrdInt ORDINT 
 -------------------- alaska ------------------------
 --------------------------------------------------- 
 cartesian gradient by alaska (MOLCAS)

 Calculating the Dx(r,s) term of D[CSF] nonadiabatic coupling term.
dxcalc: INPUT LINE SEPARATOR 
 
starting tran.x -m 200000  at Tue May 24 08:19:25 EDT 2022

 -------------------- tran.x ------------------------
 --------------------------------------------------- 
 starting tdmrunfile.x > tdmrunfilels at Tue May 24 08:19:25 EDT 2022

 -------------------- tdmrunfile.x ------------------------
 --------------------------------------------------- 
 starting pymolcas molcas.input.alaska > molcas.output.alaska  at Tue May 24 08:19:25 EDT 2022

Generating link ln -s ./molcas.OrdInt ORDINT 
 -------------------- alaska ------------------------
 --------------------------------------------------- 
 
 === Non-adiabatic coupling for DRT 2 STATE 1 and DRT 2 STATE 3 === 
   4.817788E-01  -4.251214E-02   2.625107E-01
  -5.687650E-01   3.605321E-01  -2.977180E+00
   7.017267E-01  -5.270133E-03   1.077080E+00
   1.450748E+00  -2.575279E-02   1.717163E+00
  -2.038441E+00  -6.025125E-02  -1.602224E+00
   2.705565E-02  -9.333305E-02  -1.207979E+00
   2.726469E-01   4.866564E-02   2.811069E+00
  -2.577337E-01  -1.547944E-01  -2.847529E-01
  -7.845186E-02  -5.008247E-02   1.657731E-01
  -2.563956E-03  -2.652644E-02  -1.447692E-02
   2.857962E-02   4.415287E-02  -3.761007E-03
  -2.838284E-02  -9.268415E-03  -9.505081E-03
   9.308495E-03  -6.512026E-03   1.477193E-02
  -4.870215E-03   1.345438E-02   4.670517E-02
===================================

 Norm of the nonadiabatic coupling vector: 
 |h(drt2.state1,drt2.state3)|= 5.71969716617708 

 Cross-check of the non-adiabatic coupling term:
  DeltaE= -0.0282831310000233

  <L>*dE form CIGRD   :    0.0010728640    -0.0147388487     0.0011096321
  <L>*dE form NADCOUPL:    0.0007224654     0.0169156058    -0.0010274723
 -------------------------------------------------------------------------
  Difference          :    0.0003503986    -0.0316544545     0.0021371044

 NOTE: This test is meaningless at a point of conical intersection!


 -------- NAD. COUPLING for DRT:2 STATE:1 AND DRT:2 STATE:4 --------
opening file =ciudgls.drt2.sp
opening file =ciudgls.drt2.sp
extracted: energy1= -285.9214309825   energy2=-285.8852550124   deltae=-0.0361759700999755
starting cigrd.x -m 200000 at Tue May 24 08:20:37 EDT 2022

 -------------------- cigrd.x ------------------------
 Total energy (ciudg) :    -0.000000000263 
  Effective energy     :    -0.000000001925 
  Delta E              :     0.000000001662 
  --------------------------------------------------- 
 starting tran.x -m 200000  at Tue May 24 08:31:39 EDT 2022

 -------------------- tran.x ------------------------
 --------------------------------------------------- 
  adding keyword NONUC to alaska input
starting pymolcas molcas.input.alaska > molcas.output.alaska  at Tue May 24 08:38:49 EDT 2022

Generating link ln -s ./molcas.OrdInt ORDINT 
 -------------------- alaska ------------------------
 --------------------------------------------------- 
 cartesian gradient by alaska (MOLCAS)

 Calculating the Dx(r,s) term of D[CSF] nonadiabatic coupling term.
dxcalc: INPUT LINE SEPARATOR 
 
starting tran.x -m 200000  at Tue May 24 08:40:04 EDT 2022

 -------------------- tran.x ------------------------
 --------------------------------------------------- 
 starting tdmrunfile.x > tdmrunfilels at Tue May 24 08:40:04 EDT 2022

 -------------------- tdmrunfile.x ------------------------
 --------------------------------------------------- 
 starting pymolcas molcas.input.alaska > molcas.output.alaska  at Tue May 24 08:40:04 EDT 2022

Generating link ln -s ./molcas.OrdInt ORDINT 
 -------------------- alaska ------------------------
 --------------------------------------------------- 
 
 === Non-adiabatic coupling for DRT 2 STATE 1 and DRT 2 STATE 4 === 
  -3.221770E-01  -1.021996E-02  -2.137876E-01
  -5.426978E-01  -3.766035E-01   3.872211E-01
   1.655208E+00   1.138286E-01  -8.141577E-01
   1.475016E+00   9.526462E-02   4.086977E-01
  -1.521324E+00   3.809453E-02  -4.564441E-01
  -1.727611E+00   3.450894E-02   9.057156E-01
   8.040713E-01  -4.520685E-02  -4.212750E-01
   1.646763E-01   2.097396E-01   3.118689E-01
   4.868696E-02  -9.549684E-03  -9.460252E-02
   2.249618E-02  -5.079650E-03  -3.126609E-02
   1.457513E-02  -9.893843E-03   3.436527E-02
  -1.226027E-02  -4.411143E-03  -1.761602E-02
  -2.314798E-02  -8.753208E-03   1.468029E-02
  -1.323930E-02  -1.306373E-03  -7.754980E-03
===================================

 Norm of the nonadiabatic coupling vector: 
 |h(drt2.state1,drt2.state4)|= 3.72074578203989 

 Cross-check of the non-adiabatic coupling term:
  DeltaE= -0.0361759700999755

  <L>*dE form CIGRD   :    0.0013722631    -0.0188519492     0.0014192918
  <L>*dE form NADCOUPL:   -0.0015039083    -0.0037375962     0.0048847772
 -------------------------------------------------------------------------
  Difference          :    0.0028761714    -0.0151143530    -0.0034654854

 NOTE: This test is meaningless at a point of conical intersection!


 -------- NAD. COUPLING for DRT:2 STATE:2 AND DRT:2 STATE:3 --------
opening file =ciudgls.drt2.sp
opening file =ciudgls.drt2.sp
extracted: energy1= -285.8988266257   energy2=-285.8931478515   deltae=-0.00567877420002105
starting cigrd.x -m 200000 at Tue May 24 08:41:17 EDT 2022

 -------------------- cigrd.x ------------------------
 Total energy (ciudg) :    -0.000000000484 
  Effective energy     :    -0.000000004110 
  Delta E              :     0.000000003626 
  --------------------------------------------------- 
 starting tran.x -m 200000  at Tue May 24 08:52:19 EDT 2022

 -------------------- tran.x ------------------------
 --------------------------------------------------- 
  adding keyword NONUC to alaska input
starting pymolcas molcas.input.alaska > molcas.output.alaska  at Tue May 24 08:59:13 EDT 2022

Generating link ln -s ./molcas.OrdInt ORDINT 
 -------------------- alaska ------------------------
 --------------------------------------------------- 
 cartesian gradient by alaska (MOLCAS)

 Calculating the Dx(r,s) term of D[CSF] nonadiabatic coupling term.
dxcalc: INPUT LINE SEPARATOR 
 
starting tran.x -m 200000  at Tue May 24 09:00:24 EDT 2022

 -------------------- tran.x ------------------------
 --------------------------------------------------- 
 starting tdmrunfile.x > tdmrunfilels at Tue May 24 09:00:24 EDT 2022

 -------------------- tdmrunfile.x ------------------------
 --------------------------------------------------- 
 starting pymolcas molcas.input.alaska > molcas.output.alaska  at Tue May 24 09:00:24 EDT 2022

Generating link ln -s ./molcas.OrdInt ORDINT 
 -------------------- alaska ------------------------
 --------------------------------------------------- 
 
 === Non-adiabatic coupling for DRT 2 STATE 2 and DRT 2 STATE 3 === 
   1.590660E+00   2.882542E-01   2.663908E-01
  -5.036058E-02   7.314368E-01   8.193583E+00
   1.236943E+00   6.702345E-01  -2.344733E+00
  -2.798229E+00  -5.075808E-01  -4.960598E+00
   2.210354E+00  -2.881997E-01   4.525794E+00
  -2.422782E-01   8.773079E-03   1.394126E+00
  -3.253290E-01   1.476472E-01  -5.661583E+00
  -1.342836E+00  -1.291441E+00  -1.774059E+00
  -2.808830E-01   2.442579E-01   5.186879E-01
   5.136873E-02  -1.570028E-01   5.640698E-02
  -3.179539E-02   2.653266E-01  -6.887349E-02
   3.037134E-02  -1.559132E-02  -4.642415E-02
  -1.519812E-02  -9.993780E-02  -8.723810E-03
  -3.340675E-02   7.648090E-03  -9.615508E-02
===================================

 Norm of the nonadiabatic coupling vector: 
 |h(drt2.state2,drt2.state3)|= 13.3161732031044 

 Cross-check of the non-adiabatic coupling term:
  DeltaE= -0.00567877420002105

  <L>*dE form CIGRD   :    0.0002154129    -0.0029593115     0.0002227953
  <L>*dE form NADCOUPL:    0.0004697481    -0.0006814454     0.0002150722
 -------------------------------------------------------------------------
  Difference          :   -0.0002543351    -0.0022778661     0.0000077232

 NOTE: This test is meaningless at a point of conical intersection!


 -------- NAD. COUPLING for DRT:2 STATE:2 AND DRT:2 STATE:4 --------
opening file =ciudgls.drt2.sp
opening file =ciudgls.drt2.sp
extracted: energy1= -285.8988266257   energy2=-285.8852550124   deltae=-0.0135716132999733
starting cigrd.x -m 200000 at Tue May 24 09:01:36 EDT 2022

 -------------------- cigrd.x ------------------------
 Total energy (ciudg) :     0.000000000153 
  Effective energy     :     0.000000005060 
  Delta E              :    -0.000000004907 
  --------------------------------------------------- 
 starting tran.x -m 200000  at Tue May 24 09:11:34 EDT 2022

 -------------------- tran.x ------------------------
 --------------------------------------------------- 
  adding keyword NONUC to alaska input
starting pymolcas molcas.input.alaska > molcas.output.alaska  at Tue May 24 09:18:42 EDT 2022

Generating link ln -s ./molcas.OrdInt ORDINT 
 -------------------- alaska ------------------------
 --------------------------------------------------- 
 cartesian gradient by alaska (MOLCAS)

 Calculating the Dx(r,s) term of D[CSF] nonadiabatic coupling term.
dxcalc: INPUT LINE SEPARATOR 
 
starting tran.x -m 200000  at Tue May 24 09:19:56 EDT 2022

 -------------------- tran.x ------------------------
 --------------------------------------------------- 
 starting tdmrunfile.x > tdmrunfilels at Tue May 24 09:19:56 EDT 2022

 -------------------- tdmrunfile.x ------------------------
 --------------------------------------------------- 
 starting pymolcas molcas.input.alaska > molcas.output.alaska  at Tue May 24 09:19:56 EDT 2022

Generating link ln -s ./molcas.OrdInt ORDINT 
 -------------------- alaska ------------------------
 --------------------------------------------------- 
 
 === Non-adiabatic coupling for DRT 2 STATE 2 and DRT 2 STATE 4 === 
  -1.137540E+00   2.000110E-01  -8.305134E-01
   1.165390E+00   4.998719E-01  -1.140793E+00
  -3.879427E+00  -1.970929E-01   1.166798E+00
  -3.356721E+00  -4.674701E-01  -4.557022E-01
   3.171885E+00  -1.990920E-01   4.110424E-01
   3.858566E+00  -8.776868E-02  -8.617054E-01
  -4.961546E-01   1.693115E-01   7.883025E-01
   4.992213E-01   3.362987E-01   1.052049E+00
   2.009022E-01  -3.927803E-01  -1.321432E-01
  -3.696044E-02   3.101678E-02  -1.435551E-02
  -5.543681E-02   3.610053E-02   3.134932E-02
   5.060531E-02   1.591377E-02   2.130009E-02
   2.566795E-02   4.582538E-02  -3.133924E-02
   3.979078E-03   2.200573E-02  -2.313593E-04
===================================

 Norm of the nonadiabatic coupling vector: 
 |h(drt2.state2,drt2.state4)|= 7.84718169382124 

 Cross-check of the non-adiabatic coupling term:
  DeltaE= -0.0135716132999733

  <L>*dE form CIGRD   :    0.0005148120    -0.0070724120     0.0005324551
  <L>*dE form NADCOUPL:   -0.0007974017     0.0029278769     0.0009070782
 -------------------------------------------------------------------------
  Difference          :    0.0013122138    -0.0100002889    -0.0003746231

 NOTE: This test is meaningless at a point of conical intersection!


 -------- NAD. COUPLING for DRT:2 STATE:3 AND DRT:2 STATE:4 --------
opening file =ciudgls.drt2.sp
opening file =ciudgls.drt2.sp
extracted: energy1= -285.8931478515   energy2=-285.8852550124   deltae=-0.0078928390999522
starting cigrd.x -m 200000 at Tue May 24 09:21:09 EDT 2022

 -------------------- cigrd.x ------------------------
 Total energy (ciudg) :    -0.000000001356 
  Effective energy     :     0.000000002597 
  Delta E              :    -0.000000003953 
  --------------------------------------------------- 
 starting tran.x -m 200000  at Tue May 24 09:32:04 EDT 2022

 -------------------- tran.x ------------------------
 --------------------------------------------------- 
  adding keyword NONUC to alaska input
starting pymolcas molcas.input.alaska > molcas.output.alaska  at Tue May 24 09:39:09 EDT 2022

Generating link ln -s ./molcas.OrdInt ORDINT 
 -------------------- alaska ------------------------
 --------------------------------------------------- 
 cartesian gradient by alaska (MOLCAS)

 Calculating the Dx(r,s) term of D[CSF] nonadiabatic coupling term.
dxcalc: INPUT LINE SEPARATOR 
 
starting tran.x -m 200000  at Tue May 24 09:40:21 EDT 2022

 -------------------- tran.x ------------------------
 --------------------------------------------------- 
 starting tdmrunfile.x > tdmrunfilels at Tue May 24 09:40:22 EDT 2022

 -------------------- tdmrunfile.x ------------------------
 --------------------------------------------------- 
 starting pymolcas molcas.input.alaska > molcas.output.alaska  at Tue May 24 09:40:22 EDT 2022

Generating link ln -s ./molcas.OrdInt ORDINT 
 -------------------- alaska ------------------------
 --------------------------------------------------- 
 
 === Non-adiabatic coupling for DRT 2 STATE 3 and DRT 2 STATE 4 === 
  -1.266651E+00   7.324513E-01  -1.164065E-01
   5.126708E-01  -2.644309E-01   8.025375E-01
  -1.656117E+00  -5.212369E-01   3.860711E-01
  -1.526695E+00   2.059640E-01  -4.781398E-01
   2.128361E+00   2.226337E-01  -3.407947E-02
   7.625120E-01  -2.159021E-01  -5.815379E-01
   5.151986E-01   5.335422E-02  -1.818611E-01
   3.752191E-01  -9.643568E-02   4.782615E-01
   1.992334E-01  -1.643365E-01  -3.548421E-01
  -4.591463E-02   1.681481E-01  -4.429737E-02
   8.207277E-03  -1.722926E-01   3.448814E-02
  -1.550305E-02  -2.752300E-02   2.210395E-02
   4.361458E-02   8.305346E-02   4.148837E-02
  -2.970675E-02   4.877169E-03   2.766261E-02
===================================

 Norm of the nonadiabatic coupling vector: 
 |h(drt2.state3,drt2.state4)|= 3.92341486479407 

 Cross-check of the non-adiabatic coupling term:
  DeltaE= -0.0078928390999522

  <L>*dE form CIGRD   :    0.0002993991    -0.0041131005     0.0003096598
  <L>*dE form NADCOUPL:    0.0002997428    -0.0041136730     0.0003108498
 -------------------------------------------------------------------------
  Difference          :   -0.0000003437     0.0000005725    -0.0000011900

 NOTE: This test is meaningless at a point of conical intersection!



============== timings ===================

   unik.gets.x    
   mcdrt.x        
   mcuft.x        
 * mcscf.x          walltime    0:03:01
   mcpc.x         
   mcpc.x         
   mcpc.x         
   mcpc.x         
   exptvl.x       
   exptvl.x       
   exptvl.x       
   exptvl.x       
   cidrt.x        
   cidrt.x        
 * tran.x           walltime    0:07:51
 * pciudg.x -m 19000   walltime   19:20:28
 * cipc.x           walltime    0:00:13
 * pciudg.x -m 19000   walltime   42:27:05
 * cipc.x           walltime    0:00:23
 * reindex.x        walltime    0:04:50
 * pciudg.x -m 19000   walltime    1:57:13
 * transci.x        walltime    0:02:19
 * transci.x        walltime    0:02:19
 * transci.x        walltime    0:02:18
 * transci.x        walltime    0:02:13
 * transci.x        walltime    0:02:14
 * transci.x        walltime    0:02:14
 * transci.x        walltime    0:04:11
 * transci.x        walltime    0:04:11
 * transci.x        walltime    0:04:08
 * transci.x        walltime    0:04:02
 * transci.x        walltime    0:04:11
 * transci.x        walltime    0:04:04
   exptvl.x       
   exptvl.x       
   exptvl.x       
   exptvl.x       
   exptvl.x       
   exptvl.x       
   exptvl.x       
   exptvl.x       
   mo_convert.x   
   mo_convert.x   
   mo_convert.x   
   mo_convert.x   
   mo_convert.x   
   mo_convert.x   
   mo_convert.x   
   mo_convert.x   
   mo_convert.x   
   mo_convert.x   
   mo_convert.x   
   mo_convert.x   
   mo_convert.x   
   mo_convert.x   
 * cidrt.x          walltime    0:00:07
 * tran.x           walltime    0:08:39
 * cigrd.x          walltime    0:10:20
 * tran.x           walltime    0:07:18
 * cigrd.x          walltime    0:10:15
 * tran.x           walltime    0:07:17
 * cigrd.x          walltime    0:10:34
 * tran.x           walltime    0:07:17
 * cigrd.x          walltime    0:10:46
 * tran.x           walltime    0:07:15
 * cigrd.x          walltime    0:10:21
 * tran.x           walltime    0:07:01
 * cigrd.x          walltime    0:11:53
 * tran.x           walltime    0:07:11
 * cigrd.x          walltime    0:11:02
 * tran.x           walltime    0:07:16
 * cigrd.x          walltime    0:10:59
 * tran.x           walltime    0:07:23
 * cigrd.x          walltime    0:10:52
 * tran.x           walltime    0:07:01
   tran.x         
   tdmrunfile.x   
 * cigrd.x          walltime    0:10:32
 * tran.x           walltime    0:07:09
   tran.x         
   tdmrunfile.x   
 * cigrd.x          walltime    0:09:56
 * tran.x           walltime    0:07:02
   tran.x         
   tdmrunfile.x   
 * cigrd.x          walltime    0:14:18
 * tran.x           walltime    0:07:01
   tran.x         
   tdmrunfile.x   
 * cigrd.x          walltime    0:10:35
 * tran.x           walltime    0:06:58
   tran.x         
   tdmrunfile.x   
 * cigrd.x          walltime    0:10:57
 * tran.x           walltime    0:06:52
   tran.x         
   tdmrunfile.x   
 * cigrd.x          walltime    0:10:18
 * tran.x           walltime    0:07:10
   tran.x         
   tdmrunfile.x   
 * cigrd.x          walltime    0:10:41
 * tran.x           walltime    0:06:56
   tran.x         
   tdmrunfile.x   
 * cigrd.x          walltime    0:11:00
 * tran.x           walltime    0:07:09
   tran.x         
   tdmrunfile.x   
 * cigrd.x          walltime    0:11:00
 * tran.x           walltime    0:06:53
   tran.x         
   tdmrunfile.x   
 * cigrd.x          walltime    0:09:56
 * tran.x           walltime    0:07:07
   tran.x         
   tdmrunfile.x   
 * cigrd.x          walltime    0:10:53
 * tran.x           walltime    0:07:04
   tran.x         
   tdmrunfile.x   

==========================================

