===========================================================
===                   runc                              ===
===           version 7.0.2 , April 2021              ===
===          requires COLUMBUS version Col_7.0.2        ===
===                                                     ===
===   written by: Thomas Mueller                        ===
===   gradient ext. by: Michal Dallos                   ===
===               University of Vienna                  ===
===   maintained by: Felix Plasser                      ===
===               Loughborough University               ===
===========================================================


coremem. (seq.): 200000 MB,  coremem. (par.): 19000 MB
Vdisk size: 0 DP
Reading job control file control.run ... 
 ****** This is an 2c-QDPT MRCISD calculation ****** 
 model space size=4:0:4
SMOLCAS=/home-4/yshen57@jhu.edu/Software/Chemistry/Columbus-7.0.2_OpenMolcas-18.09-col/OpenMolcas/build
Found serial Molcas Installation at /home-4/yshen57@jhu.edu/Software/Chemistry/Columbus-7.0.2_OpenMolcas-18.09-col/OpenMolcas/build
  done 
INFO: keywords nadcoupl and seward are supported for DCI mode only!
seward specified, using also alaska
Creating various directories ... 
 done 
SMOLCAS=/home-4/yshen57@jhu.edu/Software/Chemistry/Columbus-7.0.2_OpenMolcas-18.09-col/OpenMolcas/build
PMOLCAS=
Checking for illegal keywords and keyword combinations ... done 

 Nonadiabatic coupling term calculation type: DCI+DCSF
  States involved in calcualtion:
   DRT1,state1;  DRT1,state2
   DRT1,state1;  DRT1,state3
   DRT1,state1;  DRT1,state4
   DRT1,state2;  DRT1,state3
   DRT1,state2;  DRT1,state4
   DRT1,state3;  DRT1,state4
   DRT2,state1;  DRT2,state2
   DRT2,state1;  DRT2,state3
   DRT2,state1;  DRT2,state4
   DRT2,state2;  DRT2,state3
   DRT2,state2;  DRT2,state4
   DRT2,state3;  DRT2,state4

Additional gradients computed:
   DRT1,state1
   DRT1,state2
   DRT1,state3
   DRT1,state4
   DRT2,state1
   DRT2,state2
   DRT2,state3
   DRT2,state4

Checking for complete set of input files ... 
mcscf calculation without preceeding scf calculation 
will use 
 /scratch/users/yshen57@jhu.edu/Molcas/slow/1.3/mrci/mocoef as starting MOs 
Performing coupled non-rel. SO-CI calculation, nrroots: 4 0 4
starting cidrt.x   -m 200000 < cidrtin > temp at Fri May  6 23:04:41 EDT 2022

 -------------------- cidrt.x ------------------------
 spatial symmetry:  
 total number of configurations          0
 number of reference configurations     0
 --------------------------------------------------- 
 Preparing SO cidrtin files for 1 symmetries
cat ../cidrtin | sed -e 's/^.*input the molecular spatial symmetry/1 \/ molsym/' > cidrtin.so_A 
calling cidrt.x -m 200000 < cidrtin.so_A > cidrtls.soci_A ...
Checking the DRTs for consistency ...
calling reindex.x -i 1 -m 200000  ...
done

 ++++++++++++++++++ input file generation +++++++++++++ 
 runc start: Fri May  6 23:05:00 EDT 2022
 
  runc start: Fri May  6 23:05:00 EDT 2022
 
 starting unik.gets.x > unikls at Fri May  6 23:05:00 EDT 2022

 -------------------- unik.gets.x ------------------------
 --------------------------------------------------- 
 ++++++++++++++++++++ ao integral calculation ++++++++++++++++
starting pymolcas molcas.input.seward > molcas.output.seward  at Fri May  6 23:05:00 EDT 2022

Generating link ln -s ./molcas.OrdInt ORDINT 
 -------------------- seward ------------------------
      Basis set label: N.ANILINE.........
      Basis set label: C.ANILINE.........
      Basis set label: H.ANILINE.........
  Nuclear Coordinates in                   atomic units                                   Angstrom 
     Center  Label                x              y              z                     x              y              z
        1      N1              -4.468259       0.224240      -0.013852             -2.364501       0.118662      -0.007330
        2      C2              -1.765147      -0.023070      -0.014587             -0.934076      -0.012208      -0.007719
        3      C3              -0.420529       0.005766      -2.280858             -0.222534       0.003051      -1.206978
        4      C4              -0.434930      -0.033045       2.258137             -0.230155      -0.017487       1.194955
        5      C5               2.191782       0.008634      -2.258643              1.159841       0.004569      -1.195222
        6      C6               2.183006      -0.011699       2.255915              1.155197      -0.006191       1.193779
        7      C7               3.509886       0.004821       0.004668              1.857351       0.002551       0.002470
        8      H8              -5.291017      -1.278730      -1.774320             -2.799886      -0.676675      -0.938930
        9      H9              -5.160632      -0.683673       1.567211             -2.730889      -0.361784       0.829332
       10      H10             -1.424057       0.032430      -4.041960             -0.753579       0.017161      -2.138913
       11      H11             -1.443204      -0.059194       4.018082             -0.763711      -0.031324       2.126277
       12      H12              3.203164       0.019203      -4.018014              1.695041       0.010162      -2.126242
       13      H13              3.181049      -0.021382       4.022846              1.683339      -0.011315       2.128798
       14      H14              5.538109       0.010017       0.009013              2.930641       0.005301       0.004770
 
            Nuclear Potential Energy            270.98408757 au
 --------------------------------------------------- 
  >>>>>>>>>>>>> info: preparing drt no 1 out of 1 <<<<<<
starting mcdrt.x -m 200000 < mcdrtin > mcdrtls at Fri May  6 23:10:24 EDT 2022

 -------------------- mcdrt.x ------------------------
  Spin multiplicity: singlet 
  Spatial symmetry (#): 1
  Number of Configurations:       1275 
  --------------------------------------------------- 
 starting mcuft.x at Fri May  6 23:10:24 EDT 2022

 -------------------- mcuft.x ------------------------
 --------------------------------------------------- 
 ++++++++++++++++++++ MCSCF calculation +++++++++++++++
info: taking mocoef file from /scratch/users/yshen57@jhu.edu/Molcas/slow/1.3/mrci/mocoef
adding flag 30 to mcscfin
Writing mcdenin files for mcscf.x for 1 DRTs
adding flag 26 to mcscfin
starting mcscf.x -m 200000 at Fri May  6 23:10:24 EDT 2022

 -------------------- mcscf.x ------------------------
 Individual total energies for all states: 
    DRT #1 state # 1 wt 0.250 total energy=     -285.874406089, rel. (eV)=   0.000000
    DRT #1 state # 2 wt 0.250 total energy=     -285.644448938, rel. (eV)=   6.257455
    DRT #1 state # 3 wt 0.250 total energy=     -285.632912365, rel. (eV)=   6.571381
    DRT #1 state # 4 wt 0.250 total energy=     -285.591637576, rel. (eV)=   7.694526
  --------------------------------------------------- 
 starting mcpc.x -m 200000 < mcpcin > mcpcls at Fri May  6 23:13:21 EDT 2022

 -------------------- mcpc.x ------------------------
 --------------------------------------------------- 
 starting mcpc.x -m 200000 < mcpcin > mcpcls at Fri May  6 23:13:21 EDT 2022

 -------------------- mcpc.x ------------------------
 --------------------------------------------------- 
 starting mcpc.x -m 200000 < mcpcin > mcpcls at Fri May  6 23:13:21 EDT 2022

 -------------------- mcpc.x ------------------------
 --------------------------------------------------- 
 starting mcpc.x -m 200000 < mcpcin > mcpcls at Fri May  6 23:13:21 EDT 2022

 -------------------- mcpc.x ------------------------
 --------------------------------------------------- 
 
========= state properties for state-averaged MCSCF =========
mcscf.drt1.st01.sp
starting exptvl.x -m 200000   at Fri May  6 23:13:21 EDT 2022

 -------------------- exptvl.x ------------------------
  === dipole moment === 
                     X               Y               Z   
   orign x       0.00000000      0.00000000      0.00000000
   orign y       0.00000000      0.00000000      0.00000000
   orign z       0.00000000      0.00000000      0.00000000
   nuclear      -1.08999811     -0.70321280     -0.52631515
   electronic    0.83679344      0.04685384      0.56553847
   total        -0.25320467     -0.65635896      0.03922332
   total Dipole moment =   1.79091094    Debye
 --------------------------------------------------- 
 mcscf.drt1.st02.sp
starting exptvl.x -m 200000   at Fri May  6 23:13:22 EDT 2022

 -------------------- exptvl.x ------------------------
  === dipole moment === 
                     X               Y               Z   
   orign x       0.00000000      0.00000000      0.00000000
   orign y       0.00000000      0.00000000      0.00000000
   orign z       0.00000000      0.00000000      0.00000000
   nuclear      -1.08999811     -0.70321280     -0.52631515
   electronic    4.40800074      0.34254431      0.85999049
   total         3.31800263     -0.36066849      0.33367534
   total Dipole moment =   8.52549844    Debye
 --------------------------------------------------- 
 mcscf.drt1.st03.sp
starting exptvl.x -m 200000   at Fri May  6 23:13:22 EDT 2022

 -------------------- exptvl.x ------------------------
  === dipole moment === 
                     X               Y               Z   
   orign x       0.00000000      0.00000000      0.00000000
   orign y       0.00000000      0.00000000      0.00000000
   orign z       0.00000000      0.00000000      0.00000000
   nuclear      -1.08999811     -0.70321280     -0.52631515
   electronic    1.01667153      0.12667560      0.54253445
   total        -0.07332658     -0.57653720      0.01621930
   total Dipole moment =   1.47779263    Debye
 --------------------------------------------------- 
 mcscf.drt1.st04.sp
starting exptvl.x -m 200000   at Fri May  6 23:13:22 EDT 2022

 -------------------- exptvl.x ------------------------
  === dipole moment === 
                     X               Y               Z   
   orign x       0.00000000      0.00000000      0.00000000
   orign y       0.00000000      0.00000000      0.00000000
   orign z       0.00000000      0.00000000      0.00000000
   nuclear      -1.08999811     -0.70321280     -0.52631515
   electronic    5.87302904      0.24740676      0.77473661
   total         4.78303093     -0.45580604      0.24842146
   total Dipole moment =  12.22865460    Debye
 --------------------------------------------------- 
  using the MCSCF MOs ... 
starting cidrt.x  -m 200000 < cidrtin.1 > cidrtls at Fri May  6 23:13:22 EDT 2022

 -------------------- cidrt.x ------------------------
 total number of orbitals            :   246
 number of frozen core orbitals      :    18
 number of frozen virtual orbitals   :     0
 number of internal orbitals         :    14
 number of external orbitals         :   214
 spatial symmetry:   a  
 
 total number of configurations  158587185
 number of reference configurations  1275
 --------------------------------------------------- 
 starting cidrt.x  -m 200000 < cidrtin.2 > cidrtls at Fri May  6 23:13:24 EDT 2022

 -------------------- cidrt.x ------------------------
 total number of orbitals            :   246
 number of frozen core orbitals      :    18
 number of frozen virtual orbitals   :     0
 number of internal orbitals         :    14
 number of external orbitals         :   214
 spatial symmetry:   a  
 
 total number of configurations  282461366
 number of reference configurations  1666
 --------------------------------------------------- 
 starting tran.x -m 200000  at Fri May  6 23:13:29 EDT 2022

 -------------------- tran.x ------------------------
 --------------------------------------------------- 
  Starting ciudgav with DRT # 1 out of 2 

 *** starting pciudg section *** 
nproc: 48 machinefile:  
assuming machinefile syntax: one host name per line optionally repeated
 section2, MPI_STARTUP:
 /software/apps/mpi/openmpi/3.1/intel/18.0/bin/mpirun -np 48  /home-4/yshen57@jhu.edu/Software/Chemistry/Columbus-7.0.2_OpenMolcas-18.09-col/Columbus/pciudg.x -m 19000 
 -------------------- pciudg.x ------------------------
 type of calculation:          mr-sdci
 number of configurations:     158587185
 total mr-sdci energy             -286.0741525225 
 last mr-sdci energy change           0.0000000000 
 residual                             0.0000056780 
  type of calculation:          mr-sdci
 number of configurations:     158587185
 total mr-sdci energy             -285.8920108214 
 last mr-sdci energy change           0.0000000000 
 residual                             0.0000071154 
  type of calculation:          mr-sdci
 number of configurations:     158587185
 total mr-sdci energy             -285.8826667356 
 last mr-sdci energy change           0.0000000000 
 residual                             0.0000102070 
  type of calculation:          mr-sdci
 number of configurations:     158587185
 total mr-sdci energy             -285.8379577605 
 last mr-sdci energy change           0.0000002372 
 residual                             0.0008543900 
  --------------------------------------------------- 
 keyinfile returned docipci=0:
starting cipc.x -m 200000 < cipcin > cipcls at Sat May  7 14:22:00 EDT 2022

 -------------------- cipc.x ------------------------
 --------------------------------------------------- 
  Starting ciudgav with DRT # 2 out of 2 

 *** starting pciudg section *** 
nproc: 48 machinefile:  
assuming machinefile syntax: one host name per line optionally repeated
 section2, MPI_STARTUP:
 /software/apps/mpi/openmpi/3.1/intel/18.0/bin/mpirun -np 48  /home-4/yshen57@jhu.edu/Software/Chemistry/Columbus-7.0.2_OpenMolcas-18.09-col/Columbus/pciudg.x -m 19000 
 -------------------- pciudg.x ------------------------
 type of calculation:          mr-sdci
 number of configurations:     282461366
 total mr-sdci energy             -285.9214309825 
 last mr-sdci energy change           0.0000000000 
 residual                             0.0000090951 
  type of calculation:          mr-sdci
 number of configurations:     282461366
 total mr-sdci energy             -285.8988266256 
 last mr-sdci energy change           0.0000000000 
 residual                             0.0000090019 
  type of calculation:          mr-sdci
 number of configurations:     282461366
 total mr-sdci energy             -285.8931478513 
 last mr-sdci energy change           0.0000000000 
 residual                             0.0000185180 
  type of calculation:          mr-sdci
 number of configurations:     282461366
 total mr-sdci energy             -285.8852550122 
 last mr-sdci energy change           0.0000000002 
 residual                             0.0000234970 
  --------------------------------------------------- 
 keyinfile returned docipci=0:
starting cipc.x -m 200000 < cipcin > cipcls at Mon May  9 01:57:26 EDT 2022

 -------------------- cipc.x ------------------------
 --------------------------------------------------- 
 Reindex call
run_socinr: imult=1 irrep=1 
opening file =ciudgls.drt1.sp
opening file =ciudgls.drt1.sp
opening file =ciudgls.drt1.sp
opening file =ciudgls.drt1.sp
run_socinr: imult=3 irrep=1 
opening file =ciudgls.drt2.sp
opening file =ciudgls.drt2.sp
opening file =ciudgls.drt2.sp
opening file =ciudgls.drt2.sp
 copying /scratch/users/yshen57@jhu.edu/Molcas/slow/1.3/mrci/cidrtfl.so__A --> cidrtfl.so__A 
 copying /scratch/users/yshen57@jhu.edu/Molcas/slow/1.3/mrci/cidrtfl.so__A --> cidrtfl.so__A 
starting reindex.x -m 200000 > reindexls at Mon May  9 01:57:39 EDT 2022

 -------------------- reindex.x ------------------------
 --------------------------------------------------- 
 1      1        1           civfl_1_A             1      1    0+       1             1         civfl.so__A
1      1        2           civfl_1_A             1      1    0+       2    1005971284         civfl.so__A
1      1        3           civfl_1_A             1      1    0+       3    2011942567         civfl.so__A
1      1        4           civfl_1_A             1      1    0+       4    3017913850         civfl.so__A
3      1        1           civfl_3_A             1      3    0+       5    4023885133         civfl.so__A
3      1        1           civfl_3_A             1      3    1+       6    5029856416         civfl.so__A
3      1        1           civfl_3_A             1      3    1-       7    6035827699         civfl.so__A
3      1        2           civfl_3_A             1      3    0+       8    7041798982         civfl.so__A
3      1        2           civfl_3_A             1      3    1+       9    8047770265         civfl.so__A
3      1        2           civfl_3_A             1      3    1-      10    9053741548         civfl.so__A
3      1        3           civfl_3_A             1      3    0+      11   10059712831         civfl.so__A
3      1        3           civfl_3_A             1      3    1+      12   11065684114         civfl.so__A
3      1        3           civfl_3_A             1      3    1-      13   12071655397         civfl.so__A
3      1        4           civfl_3_A             1      3    0+      14   13077626680         civfl.so__A
3      1        4           civfl_3_A             1      3    1+      15   14083597963         civfl.so__A
3      1        4           civfl_3_A             1      3    1-      16   15089569246         civfl.so__A
 Executing ciudg.x  for gamma =A ...

 *** starting pciudg section *** 
nproc: 48 machinefile:  
assuming machinefile syntax: one host name per line optionally repeated
 section2, MPI_STARTUP:
 /software/apps/mpi/openmpi/3.1/intel/18.0/bin/mpirun -np 48  /home-4/yshen57@jhu.edu/Software/Chemistry/Columbus-7.0.2_OpenMolcas-18.09-col/Columbus/pciudg.x -m 19000 
 -------------------- pciudg.x ------------------------
 type of calculation:          mr-sdci
 number of configurations:     1005971283
 total mr-sdci energy             -286.0741525396 
 last mr-sdci energy change           0.0000000171 
 residual                            35.3410000000 
  type of calculation:          mr-sdci
 number of configurations:     1005971283
 total mr-sdci energy             -285.9214309943 
 last mr-sdci energy change           0.0294200000 
 residual                            35.1880000000 
  type of calculation:          mr-sdci
 number of configurations:     1005971283
 total mr-sdci energy             -285.9214309943 
 last mr-sdci energy change           0.0387640000 
 residual                            35.1880000000 
  type of calculation:          mr-sdci
 number of configurations:     1005971283
 total mr-sdci energy             -285.9214309913 
 last mr-sdci energy change           0.0834730000 
 residual                            35.1880000000 
  type of calculation:          mr-sdci
 number of configurations:     1005971283
 total mr-sdci energy             -285.8988266275 
 last mr-sdci energy change          -0.0226040000 
 residual                            35.1660000000 
  type of calculation:          mr-sdci
 number of configurations:     1005971283
 total mr-sdci energy             -285.8988266262 
 last mr-sdci energy change          -0.0226040000 
 residual                            35.1660000000 
  type of calculation:          mr-sdci
 number of configurations:     1005971283
 total mr-sdci energy             -285.8988266187 
 last mr-sdci energy change          -0.0226040000 
 residual                            35.1660000000 
  type of calculation:          mr-sdci
 number of configurations:     1005971283
 total mr-sdci energy             -285.8931478670 
 last mr-sdci energy change          -0.0056788000 
 residual                            35.1600000000 
  type of calculation:          mr-sdci
 number of configurations:     1005971283
 total mr-sdci energy             -285.8931478495 
 last mr-sdci energy change          -0.0056788000 
 residual                            35.1600000000 
  type of calculation:          mr-sdci
 number of configurations:     1005971283
 total mr-sdci energy             -285.8931478470 
 last mr-sdci energy change          -0.0056788000 
 residual                            35.1600000000 
  type of calculation:          mr-sdci
 number of configurations:     1005971283
 total mr-sdci energy             -285.8920108005 
 last mr-sdci energy change          -0.0011371000 
 residual                            35.1590000000 
  type of calculation:          mr-sdci
 number of configurations:     1005971283
 total mr-sdci energy             -285.8852550081 
 last mr-sdci energy change          -0.0078928000 
 residual                            35.1520000000 
  type of calculation:          mr-sdci
 number of configurations:     1005971283
 total mr-sdci energy             -285.8852550041 
 last mr-sdci energy change          -0.0078928000 
 residual                            35.1520000000 
  type of calculation:          mr-sdci
 number of configurations:     1005971283
 total mr-sdci energy             -285.8852550016 
 last mr-sdci energy change          -0.0000000106 
 residual                            35.1520000000 
  type of calculation:          mr-sdci
 number of configurations:     1005971283
 total mr-sdci energy             -285.8826667280 
 last mr-sdci energy change          -0.0025883000 
 residual                            35.1500000000 
  type of calculation:          mr-sdci
 number of configurations:     1005971283
 total mr-sdci energy             -285.8379577571 
 last mr-sdci energy change          -0.0472970000 
 residual                            35.1050000000 
  --------------------------------------------------- 
 ************* Results for Spin-Orbit CI gamma=A **************** 
Final spin-orbit CI state energies: 


-------------- HT matrix in AU ----------------  
-35.341134    
 0.000000    -35.158993    
 0.000000     0.000000    -35.149649    
 0.000000     0.000000     0.000000    -35.104940    
-0.000018     0.000014    -0.000003    -0.000001    -35.188413    
 0.000004    -0.000002    -0.000002     0.000001    -0.000000    -35.188413    
 0.000018    -0.000013     0.000002     0.000003     0.000000     0.000000    -35.188413    
-0.000028    -0.000002     0.000001    -0.000002     0.000000    -0.000008     0.000002    -35.165809    
 0.000007     0.000000    -0.000001     0.000002     0.000008     0.000000     0.000011     0.000000    -35.165809    
 0.000030    -0.000002     0.000006    -0.000004    -0.000002    -0.000011     0.000000    -0.000000     0.000000    -35.165809    
-0.000010     0.000003    -0.000001     0.000008     0.000000    -0.000002    -0.000001     0.000000     0.000000    -0.000002    -35.160130    
-0.000000    -0.000002     0.000000     0.000000     0.000002     0.000000     0.000002    -0.000000     0.000000    -0.000005    -0.000000    -35.160130    
 0.000004     0.000001     0.000001    -0.000008     0.000001    -0.000002     0.000000     0.000002     0.000005     0.000000    -0.000000     0.000000    -35.160130    
 0.000016     0.000006    -0.000003    -0.000004     0.000000     0.000007    -0.000001     0.000000     0.000006    -0.000000     0.000000    -0.000002     0.000000    -35.152237    
-0.000002     0.000000     0.000001     0.000001    -0.000007     0.000000    -0.000008    -0.000006     0.000000    -0.000004     0.000002     0.000000    -0.000002    -0.000000    -35.152237    
-0.000013    -0.000005    -0.000001     0.000003     0.000001     0.000008     0.000000     0.000000     0.000004     0.000000    -0.000000     0.000002     0.000000     0.000000    -0.000000    -35.152237    
-------------- HT matrix in eV ---------------- 
 -961.681   
    0.000    -956.725   
    0.000       0.000    -956.471   
    0.000       0.000       0.000    -955.254   
   -0.000       0.000      -0.000      -0.000    -957.525   
    0.000      -0.000      -0.000       0.000      -0.000    -957.525   
    0.000      -0.000       0.000       0.000       0.000       0.000    -957.525   
   -0.001      -0.000       0.000      -0.000       0.000      -0.000       0.000    -956.910   
    0.000       0.000      -0.000       0.000       0.000       0.000       0.000       0.000    -956.910   
    0.001      -0.000       0.000      -0.000      -0.000      -0.000       0.000      -0.000       0.000    -956.910   
   -0.000       0.000      -0.000       0.000       0.000      -0.000      -0.000       0.000       0.000      -0.000    -956.756   
   -0.000      -0.000       0.000       0.000       0.000       0.000       0.000      -0.000       0.000      -0.000      -0.000    -956.756   
    0.000       0.000       0.000      -0.000       0.000      -0.000       0.000       0.000       0.000       0.000      -0.000       0.000    -956.756   
    0.000       0.000      -0.000      -0.000       0.000       0.000      -0.000       0.000       0.000      -0.000       0.000      -0.000       0.000    -956.541   
   -0.000       0.000       0.000       0.000      -0.000       0.000      -0.000      -0.000       0.000      -0.000       0.000       0.000      -0.000      -0.000    -956.541   
   -0.000      -0.000      -0.000       0.000       0.000       0.000       0.000       0.000       0.000       0.000      -0.000       0.000       0.000       0.000      -0.000    -956.541   
-------------- HT matrix in cm-1 ------------------- 
Eref = -35.34113442
     0.00   
     0.00    39975.55   
     0.00        0.00    42026.34   
     0.00        0.00        0.00    51838.84   
    -3.95        3.12       -0.58       -0.13    33518.56   
     0.82       -0.49       -0.41        0.25        0.00    33518.56   
     3.98       -2.85        0.40        0.69        0.00        0.00    33518.56   
    -6.09       -0.41        0.14       -0.48        0.00       -1.81        0.40    38479.65   
     1.43        0.11       -0.27        0.33        1.81        0.00        2.31        0.00    38479.65   
     6.68       -0.53        1.26       -0.82       -0.40       -2.31        0.00        0.00        0.00    38479.65   
    -2.09        0.76       -0.16        1.80        0.00       -0.48       -0.24        0.00        0.00       -0.54    39726.00   
    -0.02       -0.45        0.00        0.04        0.48        0.00        0.43       -0.00        0.00       -1.01        0.00    39726.00   
     0.85        0.28        0.12       -1.68        0.24       -0.43        0.00        0.54        1.01        0.00        0.00        0.00    39726.00   
     3.43        1.37       -0.74       -0.92        0.00        1.50       -0.14        0.00        1.37       -0.05        0.00       -0.48        0.03    41458.28   
    -0.52        0.03        0.23        0.18       -1.50        0.00       -1.86       -1.37        0.00       -0.90        0.48        0.00       -0.49        0.00    41458.28   
    -2.86       -1.00       -0.12        0.69        0.14        1.86        0.00        0.05        0.90        0.00       -0.03        0.49        0.00        0.00        0.00    41458.28   


Spin-Orbit CI: perturbational estimate of Spin-Orbit CI energies and wavefunctions 
                SO   1         SO   2         SO   3         SO   4         SO   5         SO   6         SO   7         SO   8

   energy  -286.07415254  -285.92143099  -285.92143099  -285.92143099  -285.89882663  -285.89882663  -285.89882662  -285.89314787
 
   NR   1    -0.99999995    -0.00003536     0.00002100     0.00016384    -0.00003158     0.00004827     0.00023079    -0.00004096
   NR   2     0.00000001    -0.00010076     0.00008415     0.00064544    -0.00043267     0.00014589    -0.00002322    -0.00366789
   NR   3    -0.00000001    -0.00002595    -0.00005480    -0.00007424     0.00027568    -0.00018669    -0.00015257     0.00005014
   NR   4     0.00000000     0.00002951    -0.00000581    -0.00002730    -0.00006480     0.00003880     0.00000041    -0.00010167
   NR   5    -0.00011775    -0.51088208     0.14434401    -0.84744550    -0.00000188    -0.00036634     0.00007426    -0.00003360
   NR   6     0.00002438    -0.49405289    -0.85603589     0.15203234     0.00058268    -0.00010527     0.00000146    -0.00007798
   NR   7     0.00011864    -0.70349895     0.49635360     0.50864707    -0.00013103    -0.00044461     0.00009488    -0.00006542
   NR   8    -0.00015830    -0.00012353    -0.00035263     0.00001456    -0.65144057    -0.14789247    -0.74414539     0.00007672
   NR   9     0.00003723     0.00051441    -0.00028415     0.00007222    -0.16878420    -0.92798821     0.33218738     0.00013859
   NR  10     0.00017365    -0.00027165    -0.00038734     0.00000212    -0.73968611     0.34200039     0.57956773     0.00002974
   NR  11    -0.00005255    -0.00006582    -0.00004751     0.00003158    -0.00032003     0.00015040     0.00025134     0.85296847
   NR  12    -0.00000054     0.00008836    -0.00004559     0.00003098    -0.00059865     0.00027611     0.00046601    -0.49348240
   NR  13     0.00002130    -0.00001437    -0.00006464     0.00004331     0.00041908     0.00081329     0.00005475     0.17001863
   NR  14     0.00008278     0.00008099     0.00017047    -0.00002002     0.00006586     0.00043077    -0.00014361    -0.00013684
   NR  15    -0.00001254    -0.00026172     0.00014368    -0.00004073    -0.00052100     0.00003461    -0.00016699    -0.00018810
   NR  16    -0.00006901     0.00012482     0.00019846    -0.00002071     0.00006036     0.00028126    -0.00008820     0.00015286

                SO   9         SO  10         SO  11         SO  12         SO  13         SO  14         SO  15         SO  16

   energy  -285.89314785  -285.89314785  -285.89201080  -285.88525501  -285.88525500  -285.88525500  -285.88266673  -285.83795776
 
   NR   1    -0.00003808     0.00000969    -0.00000037     0.00002275    -0.00005227     0.00009232     0.00000004     0.00000002
   NR   2     0.00045249     0.00022220     0.99999217     0.00026615    -0.00040054     0.00103814     0.00000105     0.00000002
   NR   3     0.00007006    -0.00000023     0.00000033     0.00120793    -0.00036237     0.00057256    -0.99999897     0.00000001
   NR   4    -0.00017640    -0.00000879    -0.00000041     0.00003027    -0.00005595     0.00009272     0.00000006    -0.99999997
   NR   5    -0.00000646    -0.00008081     0.00048332     0.00006199    -0.00015503    -0.00009007     0.00006840     0.00000721
   NR   6     0.00003085     0.00006131    -0.00007594     0.00028391     0.00009881    -0.00002010     0.00004892    -0.00001380
   NR   7     0.00000896    -0.00004116    -0.00044116     0.00005067    -0.00020152    -0.00011072    -0.00004661    -0.00003753
   NR   8    -0.00037475    -0.00020541    -0.00027704     0.00013343    -0.00038939    -0.00020298    -0.00003826     0.00003623
   NR   9    -0.00069520    -0.00038605     0.00007079     0.00052472     0.00010642     0.00011775     0.00007665    -0.00002478
   NR  10    -0.00043916     0.00080389    -0.00035632     0.00007018    -0.00025909    -0.00013638    -0.00035610     0.00006151
   NR  11     0.37114831    -0.36699342     0.00304203    -0.00008556     0.00023165     0.00012772     0.00006859    -0.00014895
   NR  12     0.34441470    -0.79865488    -0.00178828    -0.00003208     0.00016528    -0.00036035    -0.00000102    -0.00000355
   NR  13    -0.86233766    -0.47693314     0.00111982     0.00009011    -0.00024818    -0.00010846    -0.00005169     0.00013903
   NR  14     0.00011032    -0.00021331    -0.00092246     0.74337692    -0.08984488     0.66280898     0.00130996     0.00008899
   NR  15    -0.00034898    -0.00003389    -0.00001903    -0.27074717     0.86570699     0.42100673    -0.00039985    -0.00001749
   NR  16    -0.00009115     0.00022146     0.00067784     0.61162471     0.49242112    -0.61922202     0.00020579    -0.00006644
rescaling new expansion vector ... old norm=   4332.2201595215

 model space basis from reindexls .. 
 --SO-CI-------         -----NR-CI-------             ---model space---- 
 Gamma  root             S   irrep   root                S   ms* 
A          1             1   A         1                 1   0+
A          2             1   A         2                 1   0+
A          3             1   A         3                 1   0+
A          4             1   A         4                 1   0+
A          5             3   A         1                 3   0+
A          6             3   A         1                 3   1+
A          7             3   A         1                 3   1-
A          8             3   A         2                 3   0+
A          9             3   A         2                 3   1+
A         10             3   A         2                 3   1-
A         11             3   A         3                 3   0+
A         12             3   A         3                 3   1+
A         13             3   A         3                 3   1-
A         14             3   A         4                 3   0+
A         15             3   A         4                 3   1+
A         16             3   A         4                 3   1-

************************** SUMMARY *********************************

--------------  SO matrix for irrep A in eV ---------------- 
|1,0+;1,A,1>  -961.681   
|1,0+;1,A,2>     0.000    -956.725   
|1,0+;1,A,3>     0.000       0.000    -956.471   
|1,0+;1,A,4>     0.000       0.000       0.000    -955.254   
|3,0+;3,A,1>    -0.000       0.000      -0.000      -0.000    -957.525   
|3,1+;3,A,1>     0.000      -0.000      -0.000       0.000      -0.000    -957.525   
|3,1-;3,A,1>     0.000      -0.000       0.000       0.000       0.000       0.000    -957.525   
|3,0+;3,A,2>    -0.001      -0.000       0.000      -0.000       0.000      -0.000       0.000    -956.910   
|3,1+;3,A,2>     0.000       0.000      -0.000       0.000       0.000       0.000       0.000       0.000    -956.910   
|3,1-;3,A,2>     0.001      -0.000       0.000      -0.000      -0.000      -0.000       0.000      -0.000       0.000    -956.910   
|3,0+;3,A,3>    -0.000       0.000      -0.000       0.000       0.000      -0.000      -0.000       0.000       0.000      -0.000    -956.756   
|3,1+;3,A,3>    -0.000      -0.000       0.000       0.000       0.000       0.000       0.000      -0.000       0.000      -0.000      -0.000    -956.756   
|3,1-;3,A,3>     0.000       0.000       0.000      -0.000       0.000      -0.000       0.000       0.000       0.000       0.000      -0.000       0.000    -956.756   
|3,0+;3,A,4>     0.000       0.000      -0.000      -0.000       0.000       0.000      -0.000       0.000       0.000      -0.000       0.000      -0.000       0.000    -956.541   
|3,1+;3,A,4>    -0.000       0.000       0.000       0.000      -0.000       0.000      -0.000      -0.000       0.000      -0.000       0.000       0.000      -0.000      -0.000    -956.541   
|3,1-;3,A,4>    -0.000      -0.000      -0.000       0.000       0.000       0.000       0.000       0.000       0.000       0.000      -0.000       0.000       0.000       0.000      -0.000    -956.541   

--------------  SO matrix for irrep A in cm-1 ------------------- 
Eref = -35.34113442
|1,0+;1,A,1>      0.00   
|1,0+;1,A,2>      0.00    39975.55   
|1,0+;1,A,3>      0.00        0.00    42026.34   
|1,0+;1,A,4>      0.00        0.00        0.00    51838.84   
|3,0+;3,A,1>     -3.95        3.12       -0.58       -0.13    33518.56   
|3,1+;3,A,1>      0.82       -0.49       -0.41        0.25        0.00    33518.56   
|3,1-;3,A,1>      3.98       -2.85        0.40        0.69        0.00        0.00    33518.56   
|3,0+;3,A,2>     -6.09       -0.41        0.14       -0.48        0.00       -1.81        0.40    38479.65   
|3,1+;3,A,2>      1.43        0.11       -0.27        0.33        1.81        0.00        2.31        0.00    38479.65   
|3,1-;3,A,2>      6.68       -0.53        1.26       -0.82       -0.40       -2.31        0.00        0.00        0.00    38479.65   
|3,0+;3,A,3>     -2.09        0.76       -0.16        1.80        0.00       -0.48       -0.24        0.00        0.00       -0.54    39726.00   
|3,1+;3,A,3>     -0.02       -0.45        0.00        0.04        0.48        0.00        0.43       -0.00        0.00       -1.01        0.00    39726.00   
|3,1-;3,A,3>      0.85        0.28        0.12       -1.68        0.24       -0.43        0.00        0.54        1.01        0.00        0.00        0.00    39726.00   
|3,0+;3,A,4>      3.43        1.37       -0.74       -0.92        0.00        1.50       -0.14        0.00        1.37       -0.05        0.00       -0.48        0.03    41458.28   
|3,1+;3,A,4>     -0.52        0.03        0.23        0.18       -1.50        0.00       -1.86       -1.37        0.00       -0.90        0.48        0.00       -0.49        0.00    41458.28   
|3,1-;3,A,4>     -2.86       -1.00       -0.12        0.69        0.14        1.86        0.00        0.05        0.90        0.00       -0.03        0.49        0.00        0.00        0.00    41458.28   


 ** perturbational estimate of Spin-Orbit CI energies and wavefunctions in model space basis** 

                      A  1         A  2         A  3         A  4         A  5         A  6         A  7         A  8

            energy  -286.07415254  -285.92143099  -285.92143099  -285.92143099  -285.89882663  -285.89882663  -285.89882662  -285.89314787
          
   |1,0+;1,A,1>    -0.99999995    -0.00003536     0.00002100     0.00016384    -0.00003158     0.00004827     0.00023079    -0.00004096
   |1,0+;1,A,2>     0.00000001    -0.00010076     0.00008415     0.00064544    -0.00043267     0.00014589    -0.00002322    -0.00366789
   |1,0+;1,A,3>    -0.00000001    -0.00002595    -0.00005480    -0.00007424     0.00027568    -0.00018669    -0.00015257     0.00005014
   |1,0+;1,A,4>     0.00000000     0.00002951    -0.00000581    -0.00002730    -0.00006480     0.00003880     0.00000041    -0.00010167
   |3,0+;3,A,1>    -0.00011775    -0.51088208     0.14434401    -0.84744550    -0.00000188    -0.00036634     0.00007426    -0.00003360
   |3,1+;3,A,1>     0.00002438    -0.49405289    -0.85603589     0.15203234     0.00058268    -0.00010527     0.00000146    -0.00007798
   |3,1-;3,A,1>     0.00011864    -0.70349895     0.49635360     0.50864707    -0.00013103    -0.00044461     0.00009488    -0.00006542
   |3,0+;3,A,2>    -0.00015830    -0.00012353    -0.00035263     0.00001456    -0.65144057    -0.14789247    -0.74414539     0.00007672
   |3,1+;3,A,2>     0.00003723     0.00051441    -0.00028415     0.00007222    -0.16878420    -0.92798821     0.33218738     0.00013859
   |3,1-;3,A,2>     0.00017365    -0.00027165    -0.00038734     0.00000212    -0.73968611     0.34200039     0.57956773     0.00002974
   |3,0+;3,A,3>    -0.00005255    -0.00006582    -0.00004751     0.00003158    -0.00032003     0.00015040     0.00025134     0.85296847
   |3,1+;3,A,3>    -0.00000054     0.00008836    -0.00004559     0.00003098    -0.00059865     0.00027611     0.00046601    -0.49348240
   |3,1-;3,A,3>     0.00002130    -0.00001437    -0.00006464     0.00004331     0.00041908     0.00081329     0.00005475     0.17001863
   |3,0+;3,A,4>     0.00008278     0.00008099     0.00017047    -0.00002002     0.00006586     0.00043077    -0.00014361    -0.00013684
   |3,1+;3,A,4>    -0.00001254    -0.00026172     0.00014368    -0.00004073    -0.00052100     0.00003461    -0.00016699    -0.00018810
   |3,1-;3,A,4>    -0.00006901     0.00012482     0.00019846    -0.00002071     0.00006036     0.00028126    -0.00008820     0.00015286

                      A  9         A 10         A 11         A 12         A 13         A 14         A 15         A 16

            energy  -285.89314785  -285.89314785  -285.89201080  -285.88525501  -285.88525500  -285.88525500  -285.88266673  -285.83795776
          
   |1,0+;1,A,1>    -0.00003808     0.00000969    -0.00000037     0.00002275    -0.00005227     0.00009232     0.00000004     0.00000002
   |1,0+;1,A,2>     0.00045249     0.00022220     0.99999217     0.00026615    -0.00040054     0.00103814     0.00000105     0.00000002
   |1,0+;1,A,3>     0.00007006    -0.00000023     0.00000033     0.00120793    -0.00036237     0.00057256    -0.99999897     0.00000001
   |1,0+;1,A,4>    -0.00017640    -0.00000879    -0.00000041     0.00003027    -0.00005595     0.00009272     0.00000006    -0.99999997
   |3,0+;3,A,1>    -0.00000646    -0.00008081     0.00048332     0.00006199    -0.00015503    -0.00009007     0.00006840     0.00000721
   |3,1+;3,A,1>     0.00003085     0.00006131    -0.00007594     0.00028391     0.00009881    -0.00002010     0.00004892    -0.00001380
   |3,1-;3,A,1>     0.00000896    -0.00004116    -0.00044116     0.00005067    -0.00020152    -0.00011072    -0.00004661    -0.00003753
   |3,0+;3,A,2>    -0.00037475    -0.00020541    -0.00027704     0.00013343    -0.00038939    -0.00020298    -0.00003826     0.00003623
   |3,1+;3,A,2>    -0.00069520    -0.00038605     0.00007079     0.00052472     0.00010642     0.00011775     0.00007665    -0.00002478
   |3,1-;3,A,2>    -0.00043916     0.00080389    -0.00035632     0.00007018    -0.00025909    -0.00013638    -0.00035610     0.00006151
   |3,0+;3,A,3>     0.37114831    -0.36699342     0.00304203    -0.00008556     0.00023165     0.00012772     0.00006859    -0.00014895
   |3,1+;3,A,3>     0.34441470    -0.79865488    -0.00178828    -0.00003208     0.00016528    -0.00036035    -0.00000102    -0.00000355
   |3,1-;3,A,3>    -0.86233766    -0.47693314     0.00111982     0.00009011    -0.00024818    -0.00010846    -0.00005169     0.00013903
   |3,0+;3,A,4>     0.00011032    -0.00021331    -0.00092246     0.74337692    -0.08984488     0.66280898     0.00130996     0.00008899
   |3,1+;3,A,4>    -0.00034898    -0.00003389    -0.00001903    -0.27074717     0.86570699     0.42100673    -0.00039985    -0.00001749
   |3,1-;3,A,4>    -0.00009115     0.00022146     0.00067784     0.61162471     0.49242112    -0.61922202     0.00020579    -0.00006644
rescaling new expansion vector ... old norm=   4332.2201595215

Sorted Energies:
1  -286.07415254 
2  -285.92143099 
3  -285.92143099 
4  -285.92143099 
5  -285.89882663 
6  -285.89882663 
7  -285.89882662 
8  -285.89314787 
9  -285.89314785 
10  -285.89314785 
11  -285.89201080 
12  -285.88525501 
13  -285.88525500 
14  -285.88525500 
15  -285.88266673 
16  -285.83795776 
Not computing transition moment with identical bra and ket.
 Calculating transition moment for (1,1) => (1,2)
 starting transci.x -m 200000 at Mon May  9 03:58:38 EDT 2022

 -------------------- transci.x ------------------------

                          State No. 1            State No. 2

   Space symmetry:           a                      a   
   No. of CSFs:          ********               ********
   State energies:      -286.07415252          -285.89201082  a.u.

   Transition energy:     0.18214170  a.u.
   Transition energy:     4.96        eV

       Transition moment components:

                 x            y            z

electron         -0.407160    -0.159756    -0.005140  e*bohr
frozen core       0.000000     0.000000     0.000000  e*bohr
total (elec)     -0.407160    -0.159756    -0.005140  e*bohr


   Tr.dipole length:     0.437411    e*bohr
   Oscillator strength :  0.023233
   Einstein A coef.:     0.2476E+08  1/sec
   Einstein B coef.:     0.7764E+08  sec/g

                 x            y            z

<L> electron    -0.130948    -0.331548     0.513619  e*bohr


   <L> value length:     0.625201    e*bohr
 --------------------------------------------------- 
  Calculating transition moment for (1,1) => (1,3)
 starting transci.x -m 200000 at Mon May  9 04:00:57 EDT 2022

 -------------------- transci.x ------------------------

                          State No. 1            State No. 2

   Space symmetry:           a                      a   
   No. of CSFs:          ********               ********
   State energies:      -286.07415252          -285.88266674  a.u.

   Transition energy:     0.19148579  a.u.
   Transition energy:     5.21        eV

       Transition moment components:

                 x            y            z

electron          0.076107     0.036729     0.207349  e*bohr
frozen core       0.000000     0.000000     0.000000  e*bohr
total (elec)      0.076107     0.036729     0.207349  e*bohr


   Tr.dipole length:     0.223908    e*bohr
   Oscillator strength :  0.006400
   Einstein A coef.:     0.7539E+07  1/sec
   Einstein B coef.:     0.2035E+08  sec/g

                 x            y            z

<L> electron    -0.005060    -0.337216    -0.161337  e*bohr


   <L> value length:     0.373858    e*bohr
 --------------------------------------------------- 
  Calculating transition moment for (1,1) => (1,4)
 starting transci.x -m 200000 at Mon May  9 04:03:11 EDT 2022

 -------------------- transci.x ------------------------

                          State No. 1            State No. 2

   Space symmetry:           a                      a   
   No. of CSFs:          ********               ********
   State energies:      -286.07415252          -285.83795776  a.u.

   Transition energy:     0.23619476  a.u.
   Transition energy:     6.43        eV

       Transition moment components:

                 x            y            z

electron          0.220622     0.024294    -0.173785  e*bohr
frozen core       0.000000     0.000000     0.000000  e*bohr
total (elec)      0.220622     0.024294    -0.173785  e*bohr


   Tr.dipole length:     0.281896    e*bohr
   Oscillator strength :  0.012513
   Einstein A coef.:     0.2243E+08  1/sec
   Einstein B coef.:     0.3225E+08  sec/g

                 x            y            z

<L> electron    -0.363083     0.268014    -0.057170  e*bohr


   <L> value length:     0.454894    e*bohr
 --------------------------------------------------- 
 Not computing transition moment with identical bra and ket.
 Calculating transition moment for (1,2) => (1,3)
 starting transci.x -m 200000 at Mon May  9 04:05:24 EDT 2022

 -------------------- transci.x ------------------------

                          State No. 1            State No. 2

   Space symmetry:           a                      a   
   No. of CSFs:          ********               ********
   State energies:      -285.89201082          -285.88266674  a.u.

   Transition energy:     0.00934409  a.u.
   Transition energy:     0.25        eV

       Transition moment components:

                 x            y            z

electron          1.168939     0.050664    -0.065771  e*bohr
frozen core       0.000000     0.000000     0.000000  e*bohr
total (elec)      1.168939     0.050664    -0.065771  e*bohr


   Tr.dipole length:     1.171883    e*bohr
   Oscillator strength :  0.008555
   Einstein A coef.:     0.2400E+05  1/sec
   Einstein B coef.:     0.5573E+09  sec/g

                 x            y            z

<L> electron     0.114448     0.246057     0.006483  e*bohr


   <L> value length:     0.271449    e*bohr
 --------------------------------------------------- 
  Calculating transition moment for (1,2) => (1,4)
 starting transci.x -m 200000 at Mon May  9 04:07:32 EDT 2022

 -------------------- transci.x ------------------------

                          State No. 1            State No. 2

   Space symmetry:           a                      a   
   No. of CSFs:          ********               ********
   State energies:      -285.89201082          -285.83795776  a.u.

   Transition energy:     0.05405306  a.u.
   Transition energy:     1.47        eV

       Transition moment components:

                 x            y            z

electron         -0.438222     0.090618    -0.022284  e*bohr
frozen core       0.000000     0.000000     0.000000  e*bohr
total (elec)     -0.438222     0.090618    -0.022284  e*bohr


   Tr.dipole length:     0.448048    e*bohr
   Oscillator strength :  0.007234
   Einstein A coef.:     0.6790E+06  1/sec
   Einstein B coef.:     0.8147E+08  sec/g

                 x            y            z

<L> electron    -0.060414     0.660454     0.115104  e*bohr


   <L> value length:     0.673126    e*bohr
 --------------------------------------------------- 
 Not computing transition moment with identical bra and ket.
 Calculating transition moment for (1,3) => (1,4)
 starting transci.x -m 200000 at Mon May  9 04:09:40 EDT 2022

 -------------------- transci.x ------------------------

                          State No. 1            State No. 2

   Space symmetry:           a                      a   
   No. of CSFs:          ********               ********
   State energies:      -285.88266674          -285.83795776  a.u.

   Transition energy:     0.04470898  a.u.
   Transition energy:     1.22        eV

       Transition moment components:

                 x            y            z

electron         -0.387520    -0.136302    -0.036540  e*bohr
frozen core       0.000000     0.000000     0.000000  e*bohr
total (elec)     -0.387520    -0.136302    -0.036540  e*bohr


   Tr.dipole length:     0.412414    e*bohr
   Oscillator strength :  0.005070
   Einstein A coef.:     0.3256E+06  1/sec
   Einstein B coef.:     0.6902E+08  sec/g

                 x            y            z

<L> electron    -0.033820     0.217366     0.143093  e*bohr


   <L> value length:     0.262426    e*bohr
 --------------------------------------------------- 
 Not computing transition moment with identical bra and ket.
Not computing transition moment with identical bra and ket.
 Calculating transition moment for (2,1) => (2,2)
 starting transci.x -m 200000 at Mon May  9 04:11:49 EDT 2022

 -------------------- transci.x ------------------------

                          State No. 1            State No. 2

   Space symmetry:           a                      a   
   No. of CSFs:          ********               ********
   State energies:      -285.92143098          -285.89882663  a.u.

   Transition energy:     0.02260436  a.u.
   Transition energy:     0.62        eV

       Transition moment components:

                 x            y            z

electron         -0.812430    -0.213577    -0.168629  e*bohr
frozen core       0.000000     0.000000     0.000000  e*bohr
total (elec)     -0.812430    -0.213577    -0.168629  e*bohr


   Tr.dipole length:     0.856793    e*bohr
   Oscillator strength :  0.011062
   Einstein A coef.:     0.1816E+06  1/sec
   Einstein B coef.:     0.2979E+09  sec/g

                 x            y            z

<L> electron    -0.041497     0.345941     0.163001  e*bohr


   <L> value length:     0.384664    e*bohr
 --------------------------------------------------- 
  Calculating transition moment for (2,1) => (2,3)
 starting transci.x -m 200000 at Mon May  9 04:15:51 EDT 2022

 -------------------- transci.x ------------------------

                          State No. 1            State No. 2

   Space symmetry:           a                      a   
   No. of CSFs:          ********               ********
   State energies:      -285.92143098          -285.89314785  a.u.

   Transition energy:     0.02828313  a.u.
   Transition energy:     0.77        eV

       Transition moment components:

                 x            y            z

electron         -0.331718    -0.069798    -0.115984  e*bohr
frozen core       0.000000     0.000000     0.000000  e*bohr
total (elec)     -0.331718    -0.069798    -0.115984  e*bohr


   Tr.dipole length:     0.358275    e*bohr
   Oscillator strength :  0.002420
   Einstein A coef.:     0.6220E+05  1/sec
   Einstein B coef.:     0.5209E+08  sec/g

                 x            y            z

<L> electron    -0.025549    -0.598023     0.036418  e*bohr


   <L> value length:     0.599675    e*bohr
 --------------------------------------------------- 
  Calculating transition moment for (2,1) => (2,4)
 starting transci.x -m 200000 at Mon May  9 04:19:51 EDT 2022

 -------------------- transci.x ------------------------

                          State No. 1            State No. 2

   Space symmetry:           a                      a   
   No. of CSFs:          ********               ********
   State energies:      -285.92143098          -285.88525501  a.u.

   Transition energy:     0.03617597  a.u.
   Transition energy:     0.98        eV

       Transition moment components:

                 x            y            z

electron          0.653664     0.096975     0.089086  e*bohr
frozen core       0.000000     0.000000     0.000000  e*bohr
total (elec)      0.653664     0.096975     0.089086  e*bohr


   Tr.dipole length:     0.666796    e*bohr
   Oscillator strength :  0.010723
   Einstein A coef.:     0.4509E+06  1/sec
   Einstein B coef.:     0.1804E+09  sec/g

                 x            y            z

<L> electron     0.041583     0.103362    -0.134955  e*bohr


   <L> value length:     0.175002    e*bohr
 --------------------------------------------------- 
 Not computing transition moment with identical bra and ket.
 Calculating transition moment for (2,2) => (2,3)
 starting transci.x -m 200000 at Mon May  9 04:24:00 EDT 2022

 -------------------- transci.x ------------------------

                          State No. 1            State No. 2

   Space symmetry:           a                      a   
   No. of CSFs:          ********               ********
   State energies:      -285.89882663          -285.89314785  a.u.

   Transition energy:     0.00567877  a.u.
   Transition energy:     0.15        eV

       Transition moment components:

                 x            y            z

electron         -0.811088    -0.082852     0.006827  e*bohr
frozen core       0.000000     0.000000     0.000000  e*bohr
total (elec)     -0.811088    -0.082852     0.006827  e*bohr


   Tr.dipole length:     0.815338    e*bohr
   Oscillator strength :  0.002517
   Einstein A coef.:     0.2608E+04  1/sec
   Einstein B coef.:     0.2698E+09  sec/g

                 x            y            z

<L> electron    -0.082864     0.119900    -0.037730  e*bohr


   <L> value length:     0.150552    e*bohr
 --------------------------------------------------- 
  Calculating transition moment for (2,2) => (2,4)
 starting transci.x -m 200000 at Mon May  9 04:27:56 EDT 2022

 -------------------- transci.x ------------------------

                          State No. 1            State No. 2

   Space symmetry:           a                      a   
   No. of CSFs:          ********               ********
   State energies:      -285.89882663          -285.88525501  a.u.

   Transition energy:     0.01357161  a.u.
   Transition energy:     0.37        eV

       Transition moment components:

                 x            y            z

electron          1.093128     0.061631     0.065052  e*bohr
frozen core       0.000000     0.000000     0.000000  e*bohr
total (elec)      1.093128     0.061631     0.065052  e*bohr


   Tr.dipole length:     1.096795    e*bohr
   Oscillator strength :  0.010884
   Einstein A coef.:     0.6441E+05  1/sec
   Einstein B coef.:     0.4882E+09  sec/g

                 x            y            z

<L> electron     0.058735    -0.215692    -0.066746  e*bohr


   <L> value length:     0.233297    e*bohr
 --------------------------------------------------- 
 Not computing transition moment with identical bra and ket.
 Calculating transition moment for (2,3) => (2,4)
 starting transci.x -m 200000 at Mon May  9 04:31:52 EDT 2022

 -------------------- transci.x ------------------------

                          State No. 1            State No. 2

   Space symmetry:           a                      a   
   No. of CSFs:          ********               ********
   State energies:      -285.89314785          -285.88525501  a.u.

   Transition energy:     0.00789284  a.u.
   Transition energy:     0.21        eV

       Transition moment components:

                 x            y            z

electron          0.457612     0.011060    -0.024429  e*bohr
frozen core       0.000000     0.000000     0.000000  e*bohr
total (elec)      0.457612     0.011060    -0.024429  e*bohr


   Tr.dipole length:     0.458397    e*bohr
   Oscillator strength :  0.001106
   Einstein A coef.:     0.2213E+04  1/sec
   Einstein B coef.:     0.8527E+08  sec/g

                 x            y            z

<L> electron    -0.037933     0.521117    -0.039237  e*bohr


   <L> value length:     0.523967    e*bohr
 --------------------------------------------------- 
 Not computing transition moment with identical bra and ket.
starting mo_convert.x at Mon May  9 04:35:50 EDT 2022

 -------------------- mo_convert.x ------------------------
 --------------------------------------------------- 
 starting pymolcas molcas.input.molden > molcas.output.molden at Mon May  9 04:35:50 EDT 2022

Generating link ln -s ./molcas.OrdInt ORDINT 
 -------------------- molden ------------------------
 --------------------------------------------------- 
 starting mo_convert.x at Mon May  9 04:36:18 EDT 2022

 -------------------- mo_convert.x ------------------------
 --------------------------------------------------- 
 starting pymolcas molcas.input.molden > molcas.output.molden at Mon May  9 04:36:18 EDT 2022

Generating link ln -s ./molcas.OrdInt ORDINT 
 -------------------- molden ------------------------
 --------------------------------------------------- 
 starting mo_convert.x at Mon May  9 04:36:42 EDT 2022

 -------------------- mo_convert.x ------------------------
 --------------------------------------------------- 
 starting pymolcas molcas.input.molden > molcas.output.molden at Mon May  9 04:36:42 EDT 2022

Generating link ln -s ./molcas.OrdInt ORDINT 
 -------------------- molden ------------------------
 --------------------------------------------------- 
 starting mo_convert.x at Mon May  9 04:37:03 EDT 2022

 -------------------- mo_convert.x ------------------------
 --------------------------------------------------- 
 starting pymolcas molcas.input.molden > molcas.output.molden at Mon May  9 04:37:03 EDT 2022

Generating link ln -s ./molcas.OrdInt ORDINT 
 -------------------- molden ------------------------
 --------------------------------------------------- 
 starting mo_convert.x at Mon May  9 04:37:24 EDT 2022

 -------------------- mo_convert.x ------------------------
 --------------------------------------------------- 
 starting pymolcas molcas.input.molden > molcas.output.molden at Mon May  9 04:37:24 EDT 2022

Generating link ln -s ./molcas.OrdInt ORDINT 
 -------------------- molden ------------------------
 --------------------------------------------------- 
 starting mo_convert.x at Mon May  9 04:37:45 EDT 2022

 -------------------- mo_convert.x ------------------------
 --------------------------------------------------- 
 starting pymolcas molcas.input.molden > molcas.output.molden at Mon May  9 04:37:46 EDT 2022

Generating link ln -s ./molcas.OrdInt ORDINT 
 -------------------- molden ------------------------
 --------------------------------------------------- 
 

 +++++++++++ STARTING GRADIENTS AND NAD. COUPLINGS CALCULATION +++++++++++ 

 Using new transition density code ... 
INFO: this is a frozen core gradient calculation
starting cidrt.x  -m 200000 < cidrtin.cigrd > cidrtls.cigrd at Mon May  9 04:38:06 EDT 2022

 -------------------- cidrt.x ------------------------
 total number of orbitals            :   246
 number of frozen core orbitals      :    18
 number of frozen virtual orbitals   :     0
 number of internal orbitals         :    14
 number of external orbitals         :   214
 spatial symmetry:   a  
 
 total number of configurations  282461366
 number of reference configurations  1666
 --------------------------------------------------- 
 starting tran.x -m 200000  at Mon May  9 04:38:13 EDT 2022

 -------------------- tran.x ------------------------
 --------------------------------------------------- 
 ---- Computing 8 gradient(s)  ----

 --- Computing gradient for DRT:1, State; 1

starting cigrd.x -m 200000 at Mon May  9 04:46:12 EDT 2022


 *** Error occured! ***

end of transci
 numv1=                284669
 numv1=                284669
end of transci
end of cidrt
 prnopt=                     0
end of tran
 allocate: status=                     0
 bummer (fatal):rdhcid: from sifrh1, ierr=-1
bummer
