[Molden Format]
[Atoms] AU
  N     1    7    -0.0680752200   -4.3177001500    0.0000000200        
  C     2    6     0.0516738100   -1.7890355100   -0.0000000100        
  C     3    6    -2.2787857800   -0.4036778400   -0.0000000300        
  C     4    6     2.3483184800   -0.3539282100   -0.0000000400        
  C     5    6    -2.2737444000    2.1797828900   -0.0000000200        
  C     6    6     2.3023460300    2.2305558900    0.0000000000        
  C     7    6     0.0020048500    3.5264997000    0.0000000200        
  H     8    1    -3.4814848600   -6.6910076800    0.0000000700        
  H     9    1     1.7326414200   -5.0493423800    0.0000000100        
  H    10    1    -4.0092655700   -1.4535372800   -0.0000000500        
  H    11    1     4.1167849400   -1.3499661000   -0.0000000500        
  H    12    1    -4.0314986500    3.1940093200   -0.0000000300        
  H    13    1     4.0412971700    3.2764629500    0.0000000200        
  H    14    1    -0.0194444200    5.5542088100    0.0000000600        
[5D]
[7F]
[GTO]
  1  0
   s    12 1.00
  0.114200D+05  0.172695D-04
  0.171200D+04  0.134411D-03
  0.389300D+03  0.694561D-03
  0.110000D+03  0.278531D-02
  0.355700D+02  0.863457D-02
  0.125400D+02  0.199805D-01
  0.464400D+01  0.262908D-01
  0.129300D+01 -0.243845D-01
  0.511800D+00 -0.924934D-01
  0.178700D+00 -0.339683D+00
  0.246240D-01  0.345111D+00
  0.112530D-01  0.752750D+00
   s    10 1.00
  0.114200D+05  0.523000D-03
  0.171200D+04  0.404500D-02
  0.389300D+03  0.207750D-01
  0.110000D+03  0.807269D-01
  0.355700D+02  0.233074D+00
  0.125400D+02  0.433501D+00
  0.464400D+01  0.347472D+00
  0.129300D+01  0.412620D-01
  0.511800D+00 -0.850799D-02
  0.178700D+00  0.238400D-02
   s    10 1.00
  0.114200D+05 -0.115000D-03
  0.171200D+04 -0.895000D-03
  0.389300D+03 -0.462400D-02
  0.110000D+03 -0.185280D-01
  0.355700D+02 -0.573390D-01
  0.125400D+02 -0.132076D+00
  0.464400D+01 -0.172510D+00
  0.129300D+01  0.151814D+00
  0.511800D+00  0.599944D+00
  0.178700D+00  0.387462D+00
   s     1 1.00
  0.129300D+01  0.100000D+01
   s     1 1.00
  0.178700D+00  0.100000D+01
   p     5 1.00
  0.266300D+02  0.146700D-01
  0.594800D+01  0.917640D-01
  0.174200D+01  0.298683D+00
  0.555000D+00  0.498487D+00
  0.172500D+00  0.337023D+00
   p     1 1.00
  0.174200D+01  0.100000D+01
   p     1 1.00
  0.555000D+00  0.100000D+01
   d     1 1.00
  0.165400D+01  0.100000D+01
   d     1 1.00
  0.469000D+00  0.100000D+01
   f     1 1.00
  0.109300D+01  0.100000D+01
  
  2  0
   s    10 1.00
  0.823600D+04  0.531000D-03
  0.123500D+04  0.410800D-02
  0.280800D+03  0.210870D-01
  0.792700D+02  0.818530D-01
  0.255900D+02  0.234817D+00
  0.899700D+01  0.434401D+00
  0.331900D+01  0.346129D+00
  0.905900D+00  0.393780D-01
  0.364300D+00 -0.898300D-02
  0.128500D+00  0.238500D-02
   s    10 1.00
  0.823600D+04 -0.113000D-03
  0.123500D+04 -0.878000D-03
  0.280800D+03 -0.454000D-02
  0.792700D+02 -0.181330D-01
  0.255900D+02 -0.557600D-01
  0.899700D+01 -0.126895D+00
  0.331900D+01 -0.170352D+00
  0.905900D+00  0.140382D+00
  0.364300D+00  0.598684D+00
  0.128500D+00  0.395389D+00
   s     1 1.00
  0.905900D+00  0.100000D+01
   s     1 1.00
  0.364300D+00  0.100000D+01
   p     5 1.00
  0.187100D+02  0.140310D-01
  0.413300D+01  0.868660D-01
  0.120000D+01  0.290216D+00
  0.382700D+00  0.501008D+00
  0.120900D+00  0.343406D+00
   p     1 1.00
  0.382700D+00  0.100000D+01
   p     1 1.00
  0.120900D+00  0.100000D+01
   d     1 1.00
  0.109700D+01  0.100000D+01
   d     1 1.00
  0.318000D+00  0.100000D+01
   f     1 1.00
  0.761000D+00  0.100000D+01
  
  3  0
   s    10 1.00
  0.823600D+04  0.531000D-03
  0.123500D+04  0.410800D-02
  0.280800D+03  0.210870D-01
  0.792700D+02  0.818530D-01
  0.255900D+02  0.234817D+00
  0.899700D+01  0.434401D+00
  0.331900D+01  0.346129D+00
  0.905900D+00  0.393780D-01
  0.364300D+00 -0.898300D-02
  0.128500D+00  0.238500D-02
   s    10 1.00
  0.823600D+04 -0.113000D-03
  0.123500D+04 -0.878000D-03
  0.280800D+03 -0.454000D-02
  0.792700D+02 -0.181330D-01
  0.255900D+02 -0.557600D-01
  0.899700D+01 -0.126895D+00
  0.331900D+01 -0.170352D+00
  0.905900D+00  0.140382D+00
  0.364300D+00  0.598684D+00
  0.128500D+00  0.395389D+00
   s     1 1.00
  0.905900D+00  0.100000D+01
   s     1 1.00
  0.364300D+00  0.100000D+01
   p     5 1.00
  0.187100D+02  0.140310D-01
  0.413300D+01  0.868660D-01
  0.120000D+01  0.290216D+00
  0.382700D+00  0.501008D+00
  0.120900D+00  0.343406D+00
   p     1 1.00
  0.382700D+00  0.100000D+01
   p     1 1.00
  0.120900D+00  0.100000D+01
   d     1 1.00
  0.109700D+01  0.100000D+01
   d     1 1.00
  0.318000D+00  0.100000D+01
   f     1 1.00
  0.761000D+00  0.100000D+01
  
  4  0
   s    10 1.00
  0.823600D+04  0.531000D-03
  0.123500D+04  0.410800D-02
  0.280800D+03  0.210870D-01
  0.792700D+02  0.818530D-01
  0.255900D+02  0.234817D+00
  0.899700D+01  0.434401D+00
  0.331900D+01  0.346129D+00
  0.905900D+00  0.393780D-01
  0.364300D+00 -0.898300D-02
  0.128500D+00  0.238500D-02
   s    10 1.00
  0.823600D+04 -0.113000D-03
  0.123500D+04 -0.878000D-03
  0.280800D+03 -0.454000D-02
  0.792700D+02 -0.181330D-01
  0.255900D+02 -0.557600D-01
  0.899700D+01 -0.126895D+00
  0.331900D+01 -0.170352D+00
  0.905900D+00  0.140382D+00
  0.364300D+00  0.598684D+00
  0.128500D+00  0.395389D+00
   s     1 1.00
  0.905900D+00  0.100000D+01
   s     1 1.00
  0.364300D+00  0.100000D+01
   p     5 1.00
  0.187100D+02  0.140310D-01
  0.413300D+01  0.868660D-01
  0.120000D+01  0.290216D+00
  0.382700D+00  0.501008D+00
  0.120900D+00  0.343406D+00
   p     1 1.00
  0.382700D+00  0.100000D+01
   p     1 1.00
  0.120900D+00  0.100000D+01
   d     1 1.00
  0.109700D+01  0.100000D+01
   d     1 1.00
  0.318000D+00  0.100000D+01
   f     1 1.00
  0.761000D+00  0.100000D+01
  
  5  0
   s    10 1.00
  0.823600D+04  0.531000D-03
  0.123500D+04  0.410800D-02
  0.280800D+03  0.210870D-01
  0.792700D+02  0.818530D-01
  0.255900D+02  0.234817D+00
  0.899700D+01  0.434401D+00
  0.331900D+01  0.346129D+00
  0.905900D+00  0.393780D-01
  0.364300D+00 -0.898300D-02
  0.128500D+00  0.238500D-02
   s    10 1.00
  0.823600D+04 -0.113000D-03
  0.123500D+04 -0.878000D-03
  0.280800D+03 -0.454000D-02
  0.792700D+02 -0.181330D-01
  0.255900D+02 -0.557600D-01
  0.899700D+01 -0.126895D+00
  0.331900D+01 -0.170352D+00
  0.905900D+00  0.140382D+00
  0.364300D+00  0.598684D+00
  0.128500D+00  0.395389D+00
   s     1 1.00
  0.905900D+00  0.100000D+01
   s     1 1.00
  0.364300D+00  0.100000D+01
   p     5 1.00
  0.187100D+02  0.140310D-01
  0.413300D+01  0.868660D-01
  0.120000D+01  0.290216D+00
  0.382700D+00  0.501008D+00
  0.120900D+00  0.343406D+00
   p     1 1.00
  0.382700D+00  0.100000D+01
   p     1 1.00
  0.120900D+00  0.100000D+01
   d     1 1.00
  0.109700D+01  0.100000D+01
   d     1 1.00
  0.318000D+00  0.100000D+01
   f     1 1.00
  0.761000D+00  0.100000D+01
  
  6  0
   s    10 1.00
  0.823600D+04  0.531000D-03
  0.123500D+04  0.410800D-02
  0.280800D+03  0.210870D-01
  0.792700D+02  0.818530D-01
  0.255900D+02  0.234817D+00
  0.899700D+01  0.434401D+00
  0.331900D+01  0.346129D+00
  0.905900D+00  0.393780D-01
  0.364300D+00 -0.898300D-02
  0.128500D+00  0.238500D-02
   s    10 1.00
  0.823600D+04 -0.113000D-03
  0.123500D+04 -0.878000D-03
  0.280800D+03 -0.454000D-02
  0.792700D+02 -0.181330D-01
  0.255900D+02 -0.557600D-01
  0.899700D+01 -0.126895D+00
  0.331900D+01 -0.170352D+00
  0.905900D+00  0.140382D+00
  0.364300D+00  0.598684D+00
  0.128500D+00  0.395389D+00
   s     1 1.00
  0.905900D+00  0.100000D+01
   s     1 1.00
  0.364300D+00  0.100000D+01
   p     5 1.00
  0.187100D+02  0.140310D-01
  0.413300D+01  0.868660D-01
  0.120000D+01  0.290216D+00
  0.382700D+00  0.501008D+00
  0.120900D+00  0.343406D+00
   p     1 1.00
  0.382700D+00  0.100000D+01
   p     1 1.00
  0.120900D+00  0.100000D+01
   d     1 1.00
  0.109700D+01  0.100000D+01
   d     1 1.00
  0.318000D+00  0.100000D+01
   f     1 1.00
  0.761000D+00  0.100000D+01
  
  7  0
   s    10 1.00
  0.823600D+04  0.531000D-03
  0.123500D+04  0.410800D-02
  0.280800D+03  0.210870D-01
  0.792700D+02  0.818530D-01
  0.255900D+02  0.234817D+00
  0.899700D+01  0.434401D+00
  0.331900D+01  0.346129D+00
  0.905900D+00  0.393780D-01
  0.364300D+00 -0.898300D-02
  0.128500D+00  0.238500D-02
   s    10 1.00
  0.823600D+04 -0.113000D-03
  0.123500D+04 -0.878000D-03
  0.280800D+03 -0.454000D-02
  0.792700D+02 -0.181330D-01
  0.255900D+02 -0.557600D-01
  0.899700D+01 -0.126895D+00
  0.331900D+01 -0.170352D+00
  0.905900D+00  0.140382D+00
  0.364300D+00  0.598684D+00
  0.128500D+00  0.395389D+00
   s     1 1.00
  0.905900D+00  0.100000D+01
   s     1 1.00
  0.364300D+00  0.100000D+01
   p     5 1.00
  0.187100D+02  0.140310D-01
  0.413300D+01  0.868660D-01
  0.120000D+01  0.290216D+00
  0.382700D+00  0.501008D+00
  0.120900D+00  0.343406D+00
   p     1 1.00
  0.382700D+00  0.100000D+01
   p     1 1.00
  0.120900D+00  0.100000D+01
   d     1 1.00
  0.109700D+01  0.100000D+01
   d     1 1.00
  0.318000D+00  0.100000D+01
   f     1 1.00
  0.761000D+00  0.100000D+01
  
  8  0
   s     4 1.00
  0.130100D+02  0.196850D-01
  0.196200D+01  0.137977D+00
  0.444600D+00  0.478148D+00
  0.122000D+00  0.501240D+00
   s     1 1.00
  0.122000D+00  0.100000D+01
   p     1 1.00
  0.727000D+00  0.100000D+01
  
  9  0
   s     4 1.00
  0.130100D+02  0.196850D-01
  0.196200D+01  0.137977D+00
  0.444600D+00  0.478148D+00
  0.122000D+00  0.501240D+00
   s     1 1.00
  0.122000D+00  0.100000D+01
   p     1 1.00
  0.727000D+00  0.100000D+01
  
 10  0
   s     4 1.00
  0.130100D+02  0.196850D-01
  0.196200D+01  0.137977D+00
  0.444600D+00  0.478148D+00
  0.122000D+00  0.501240D+00
   s     1 1.00
  0.122000D+00  0.100000D+01
   p     1 1.00
  0.727000D+00  0.100000D+01
  
 11  0
   s     4 1.00
  0.130100D+02  0.196850D-01
  0.196200D+01  0.137977D+00
  0.444600D+00  0.478148D+00
  0.122000D+00  0.501240D+00
   s     1 1.00
  0.122000D+00  0.100000D+01
   p     1 1.00
  0.727000D+00  0.100000D+01
  
 12  0
   s     4 1.00
  0.130100D+02  0.196850D-01
  0.196200D+01  0.137977D+00
  0.444600D+00  0.478148D+00
  0.122000D+00  0.501240D+00
   s     1 1.00
  0.122000D+00  0.100000D+01
   p     1 1.00
  0.727000D+00  0.100000D+01
  
 13  0
   s     4 1.00
  0.130100D+02  0.196850D-01
  0.196200D+01  0.137977D+00
  0.444600D+00  0.478148D+00
  0.122000D+00  0.501240D+00
   s     1 1.00
  0.122000D+00  0.100000D+01
   p     1 1.00
  0.727000D+00  0.100000D+01
  
 14  0
   s     4 1.00
  0.130100D+02  0.196850D-01
  0.196200D+01  0.137977D+00
  0.444600D+00  0.478148D+00
  0.122000D+00  0.501240D+00
   s     1 1.00
  0.122000D+00  0.100000D+01
   p     1 1.00
  0.727000D+00  0.100000D+01
  
[MO]
 Sym= __1_A'_
 Ene=   1.00000000000000     
 Spin= Alpha
 Occup=    1.00000000000000     
                     1  8.421547937036389E-005
                     2  0.998381638122746     
                     3 -3.992407931731993E-003
                     4  1.856103846953719E-003
                     5  6.402934895817555E-003
                     6  2.722915786758000E-003
                     7  5.502510799367932E-003
                     8  0.000000000000000E+000
                     9 -7.241740174231696E-004
                    10 -7.091819805462005E-004
                    11  0.000000000000000E+000
                    12 -2.430879039582766E-003
                    13 -1.954769233786346E-003
                    14  0.000000000000000E+000
                    15 -3.034419156509104E-005
                    16  0.000000000000000E+000
                    17  0.000000000000000E+000
                    18 -1.485625068854026E-004
                    19 -5.871068151650401E-005
                    20  1.191098873717328E-004
                    21  0.000000000000000E+000
                    22  0.000000000000000E+000
                    23 -1.604882774993765E-004
                    24  4.657915206837022E-004
                    25  0.000000000000000E+000
                    26 -2.941448179224453E-006
                    27 -4.175260254176997E-005
                    28  0.000000000000000E+000
                    29  0.000000000000000E+000
                    30  3.351481213128751E-005
                    31 -9.879408921715226E-005
                    32 -2.751760784327143E-004
                    33  7.032469304298303E-005
                    34  3.051509104500418E-004
                    35 -1.122816999008209E-004
                    36 -1.012791376090259E-004
                    37 -1.864864834945383E-003
                    38  0.000000000000000E+000
                    39  3.433461742677013E-004
                    40  6.458868143288801E-005
                    41  0.000000000000000E+000
                    42 -1.938993829638087E-003
                    43  4.730244426836918E-003
                    44  0.000000000000000E+000
                    45  1.337114877251863E-005
                    46  0.000000000000000E+000
                    47  0.000000000000000E+000
                    48 -9.586442585682288E-005
                    49  1.053964248490402E-005
                    50 -1.921131201355290E-004
                    51  0.000000000000000E+000
                    52  0.000000000000000E+000
                    53 -1.183383635638361E-005
                    54  7.458882378275612E-004
                    55  0.000000000000000E+000
                    56 -5.714290952916139E-006
                    57 -7.909531168030076E-005
                    58  0.000000000000000E+000
                    59  0.000000000000000E+000
                    60  2.025172435795565E-005
                    61 -1.344974751834296E-004
                    62 -5.133460119277057E-004
                    63 -1.904133271767302E-003
                    64 -9.786911932471516E-005
                    65  2.146873363039595E-003
                    66 -2.936514542192288E-004
                    67 -4.393448515536202E-005
                    68  0.000000000000000E+000
                    69  3.698266090497349E-004
                    70  8.494832137475466E-004
                    71  0.000000000000000E+000
                    72 -1.784197693427595E-003
                    73  6.358620137788412E-004
                    74  0.000000000000000E+000
                    75 -4.768571749903013E-005
                    76  0.000000000000000E+000
                    77  0.000000000000000E+000
                    78 -4.574151226019394E-005
                    79 -2.447218276577385E-005
                    80 -1.323559468536570E-004
                    81  0.000000000000000E+000
                    82  0.000000000000000E+000
                    83  1.400042441113330E-005
                    84 -2.453094510023315E-005
                    85  0.000000000000000E+000
                    86  9.442403988492900E-006
                    87 -4.579924637018603E-005
                    88  0.000000000000000E+000
                    89  0.000000000000000E+000
                    90 -2.810714947298232E-005
                    91 -1.561860116129683E-004
                    92 -1.760349760402066E-004
                    93 -5.357738564614664E-004
                    94  1.476784578388955E-004
                    95 -4.142409130396596E-005
                    96  6.599568228140719E-005
                    97 -9.695578583107756E-005
                    98  0.000000000000000E+000
                    99  3.375037082097826E-004
                   100  3.600685116615969E-004
                   101  0.000000000000000E+000
                   102  5.953166871969979E-004
                   103 -1.636744495814184E-003
                   104  0.000000000000000E+000
                   105 -1.438750194520929E-005
                   106  0.000000000000000E+000
                   107  0.000000000000000E+000
                   108 -3.526829929055394E-005
                   109 -1.145099131953843E-005
                   110  7.230066344694992E-005
                   111  0.000000000000000E+000
                   112  0.000000000000000E+000
                   113 -1.484271899856146E-004
                   114  1.134547730874350E-004
                   115  0.000000000000000E+000
                   116 -1.775147733812170E-005
                   117 -2.179954948547772E-005
                   118  0.000000000000000E+000
                   119  0.000000000000000E+000
                   120 -7.561185167291693E-006
                   121 -4.513776454340841E-005
                   122 -2.408676253687209E-004
                   123 -6.706263027085616E-004
                   124  1.712755776089896E-004
                   125  2.822905015917921E-004
                   126 -3.966592761905512E-005
                   127 -2.068519946967370E-004
                   128  0.000000000000000E+000
                   129  2.335190335941560E-004
                   130  6.311666354440852E-004
                   131  0.000000000000000E+000
                   132  4.432647073683646E-004
                   133  1.850462164741656E-003
                   134  0.000000000000000E+000
                   135  1.541778333759244E-005
                   136  0.000000000000000E+000
                   137  0.000000000000000E+000
                   138  4.872819751320140E-005
                   139 -5.313892749654111E-006
                   140  1.997097130220776E-004
                   141  0.000000000000000E+000
                   142  0.000000000000000E+000
                   143  3.868088461937270E-004
                   144  1.944761125578002E-004
                   145  0.000000000000000E+000
                   146 -1.236759007109499E-005
                   147 -6.211356523624796E-005
                   148  0.000000000000000E+000
                   149  0.000000000000000E+000
                   150 -8.953250343742886E-006
                   151 -5.529010516600509E-005
                   152 -1.351955217511739E-004
                   153 -4.203596129609280E-004
                   154  5.628310407481274E-005
                   155  2.064975228881020E-004
                   156  7.695950358339676E-006
                   157 -1.541134560376808E-005
                   158  0.000000000000000E+000
                   159 -1.351903900841321E-005
                   160  4.787502791906722E-005
                   161  0.000000000000000E+000
                   162  7.200574653475974E-004
                   163 -3.295793042020579E-004
                   164  0.000000000000000E+000
                   165  1.834020591709481E-006
                   166  0.000000000000000E+000
                   167  0.000000000000000E+000
                   168  5.205291280243734E-006
                   169  1.299432290615162E-005
                   170  1.075334961347883E-004
                   171  0.000000000000000E+000
                   172  0.000000000000000E+000
                   173  4.790672613968202E-005
                   174  3.800144251865620E-005
                   175  0.000000000000000E+000
                   176  4.413543425869124E-006
                   177 -1.420009820027089E-005
                   178  0.000000000000000E+000
                   179  0.000000000000000E+000
                   180 -2.501021926053729E-005
                   181 -3.076797578197153E-005
                   182 -1.370341483441324E-004
                   183 -4.092056098688266E-004
                   184  3.108989377183686E-005
                   185  2.181614809027294E-004
                   186 -4.335628010225520E-005
                   187 -5.343543845242379E-005
                   188  0.000000000000000E+000
                   189  2.468204911906322E-004
                   190  1.113060691964520E-004
                   191  0.000000000000000E+000
                   192  1.239517721864136E-003
                   193 -3.012110221123218E-004
                   194  0.000000000000000E+000
                   195  5.561032946712891E-007
                   196  0.000000000000000E+000
                   197  0.000000000000000E+000
                   198 -2.756740468750038E-006
                   199  3.829358487537040E-006
                   200 -6.595364944744283E-006
                   201  0.000000000000000E+000
                   202  0.000000000000000E+000
                   203 -6.554301172666220E-005
                   204 -1.874311305290737E-004
                   205  0.000000000000000E+000
                   206 -8.867674732769855E-006
                   207 -3.755961189161670E-006
                   208  0.000000000000000E+000
                   209  0.000000000000000E+000
                   210  7.677155032497473E-006
                   211 -3.769397784716817E-006
                   212 -2.663815581403774E-005
                   213  1.275767339207523E-004
                   214  9.431110017030862E-006
                   215  2.746247126701294E-005
                   216  0.000000000000000E+000
                   217 -1.191730220531874E-003
                   218 -4.108999761697065E-004
                   219 -2.037124964123167E-004
                   220  3.901971679685614E-005
                   221  0.000000000000000E+000
                   222 -1.580098393135255E-004
                   223 -6.636267992952599E-004
                   224  2.002957968961962E-005
                   225 -5.882090502419747E-005
                   226  0.000000000000000E+000
                   227  7.596044884371505E-005
                   228 -6.089973124536194E-004
                   229 -4.171346582173869E-005
                   230 -1.635898777339414E-005
                   231  0.000000000000000E+000
                   232  5.025035674394920E-005
                   233 -4.371397469768928E-004
                   234  1.420964069648854E-005
                   235 -4.003267801747667E-006
                   236  0.000000000000000E+000
                   237  3.599357552208572E-005
                   238 -3.587164784602267E-004
                   239 -1.015980725322183E-005
                   240 -3.764882896854109E-006
                   241  0.000000000000000E+000
                   242 -6.557371714803698E-005
                   243  7.975215287510640E-005
                   244  7.162271251070253E-008
                   245  2.828367011858823E-005
                   246  0.000000000000000E+000
 Sym= __2_A'_
 Ene=   2.00000000000000     
 Spin= Alpha
 Occup=    1.00000000000000     
                     1  4.915239386231048E-005
                     2  3.350889246108932E-004
                     3 -2.720229306976833E-003
                     4 -1.247821425899022E-004
                     5 -1.316432818557717E-003
                     6  2.532361791543098E-004
                     7 -2.654226445351700E-003
                     8  0.000000000000000E+000
                     9  3.847114397936385E-005
                    10  1.119019951833965E-004
                    11  0.000000000000000E+000
                    12  5.897779279490815E-005
                    13  3.234439279496942E-004
                    14  0.000000000000000E+000
                    15 -2.877073921379757E-005
                    16  0.000000000000000E+000
                    17  0.000000000000000E+000
                    18  3.837721797124282E-005
                    19 -1.962005854503642E-005
                    20  1.082008491670107E-004
                    21  0.000000000000000E+000
                    22  0.000000000000000E+000
                    23 -1.315979824386455E-004
                    24  1.528434662210892E-004
                    25  0.000000000000000E+000
                    26  1.789400511210403E-005
                    27 -9.602048802506821E-005
                    28  0.000000000000000E+000
                    29  0.000000000000000E+000
                    30  6.683658548624432E-005
                    31 -1.481930523757529E-004
                    32  -1.00090316024743     
                    33 -9.082616826820747E-003
                    34 -2.764407522262687E-003
                    35  8.057754667848234E-003
                    36  1.819674375342296E-004
                    37  3.043637266999413E-003
                    38  0.000000000000000E+000
                    39  7.853172370977738E-005
                    40 -1.720271799650201E-004
                    41  0.000000000000000E+000
                    42  1.345293969767925E-004
                    43 -3.956491225738219E-003
                    44  0.000000000000000E+000
                    45  5.308717785596081E-004
                    46  0.000000000000000E+000
                    47  0.000000000000000E+000
                    48  1.950566507923798E-004
                    49 -3.387556607650250E-005
                    50 -5.489494054515439E-004
                    51  0.000000000000000E+000
                    52  0.000000000000000E+000
                    53  6.618045705331250E-004
                    54  3.758005419511964E-004
                    55  0.000000000000000E+000
                    56 -1.058424031759890E-005
                    57 -9.974310105639633E-005
                    58  0.000000000000000E+000
                    59  0.000000000000000E+000
                    60  2.741607705677842E-005
                    61 -3.836471310910683E-004
                    62 -1.223395454970761E-002
                    63  1.999398149856202E-003
                    64  2.419828672021894E-004
                    65 -2.710327565582679E-003
                    66 -5.187666091886661E-005
                    67 -6.949940806440252E-005
                    68  0.000000000000000E+000
                    69 -5.426718535031293E-004
                    70 -1.439855651673274E-004
                    71  0.000000000000000E+000
                    72  2.091229299185570E-003
                    73 -2.775443314881178E-004
                    74  0.000000000000000E+000
                    75 -3.305435981464651E-005
                    76  0.000000000000000E+000
                    77  0.000000000000000E+000
                    78  1.804617433937131E-006
                    79 -2.550615490147165E-006
                    80  4.296634504614136E-004
                    81  0.000000000000000E+000
                    82  0.000000000000000E+000
                    83  6.482567492509076E-004
                    84  2.597347303951410E-004
                    85  0.000000000000000E+000
                    86 -2.769312599237605E-005
                    87  5.850341334068726E-005
                    88  0.000000000000000E+000
                    89  0.000000000000000E+000
                    90 -4.062538599222079E-005
                    91 -1.491939355906122E-004
                    92 -1.503876657008476E-002
                    93  2.056177921492180E-003
                    94  2.985520339486981E-004
                    95 -3.161967356682968E-003
                    96 -1.137950552616057E-004
                    97 -1.042775961885794E-004
                    98  0.000000000000000E+000
                    99  9.097701277694881E-004
                   100 -3.276864961893342E-005
                   101  0.000000000000000E+000
                   102 -1.708217352832973E-003
                   103 -8.135691489997216E-006
                   104  0.000000000000000E+000
                   105 -2.410029402734241E-005
                   106  0.000000000000000E+000
                   107  0.000000000000000E+000
                   108  4.951952180413026E-006
                   109 -4.963987221688498E-006
                   110  4.218610583978535E-004
                   111  0.000000000000000E+000
                   112  0.000000000000000E+000
                   113  3.949295906856328E-004
                   114 -2.432364952004414E-004
                   115  0.000000000000000E+000
                   116  3.073204324663140E-005
                   117  7.247536715878731E-005
                   118  0.000000000000000E+000
                   119  0.000000000000000E+000
                   120  3.633078998513101E-006
                   121 -1.328829939865989E-004
                   122  9.218591995140833E-005
                   123  6.851939881490916E-004
                   124 -2.299911833867346E-004
                   125  1.281768872161440E-004
                   126 -2.148750970097767E-006
                   127  3.592584905473315E-004
                   128  0.000000000000000E+000
                   129  8.078597191967881E-005
                   130 -6.128758738339325E-004
                   131  0.000000000000000E+000
                   132 -3.759321757279436E-004
                   133 -8.971055513325803E-004
                   134  0.000000000000000E+000
                   135 -1.849759694265252E-005
                   136  0.000000000000000E+000
                   137  0.000000000000000E+000
                   138 -4.387997935980212E-006
                   139 -4.279783730179829E-005
                   140 -1.299394073745814E-004
                   141  0.000000000000000E+000
                   142  0.000000000000000E+000
                   143 -2.511850023984384E-004
                   144  1.102272183118710E-004
                   145  0.000000000000000E+000
                   146 -9.144826625416958E-006
                   147  3.710372425497911E-005
                   148  0.000000000000000E+000
                   149  0.000000000000000E+000
                   150  4.382945604705937E-005
                   151 -3.665323644917181E-005
                   152 -6.462847083566033E-005
                   153  6.608021969236411E-004
                   154 -2.310649487364130E-004
                   155  5.042017096554664E-005
                   156  3.356353433918015E-005
                   157  3.841844812892761E-004
                   158  0.000000000000000E+000
                   159 -1.302976834480486E-004
                   160 -5.527802067241090E-004