[Molden Format]
[Atoms] AU
  N     1    7    -0.0680752200   -4.3177001500    0.0000000200        
  C     2    6     0.0516738100   -1.7890355100   -0.0000000100        
  C     3    6    -2.2787857800   -0.4036778400   -0.0000000300        
  C     4    6     2.3483184800   -0.3539282100   -0.0000000400        
  C     5    6    -2.2737444000    2.1797828900   -0.0000000200        
  C     6    6     2.3023460300    2.2305558900    0.0000000000        
  C     7    6     0.0020048500    3.5264997000    0.0000000200        
  H     8    1    -3.4814848600   -6.6910076800    0.0000000700        
  H     9    1     1.7326414200   -5.0493423800    0.0000000100        
  H    10    1    -4.0092655700   -1.4535372800   -0.0000000500        
  H    11    1     4.1167849400   -1.3499661000   -0.0000000500        
  H    12    1    -4.0314986500    3.1940093200   -0.0000000300        
  H    13    1     4.0412971700    3.2764629500    0.0000000200        
  H    14    1    -0.0194444200    5.5542088100    0.0000000600        
[5D]
[7F]
[GTO]
  1  0
   s    12 1.00
  0.114200D+05  0.172695D-04
  0.171200D+04  0.134411D-03
  0.389300D+03  0.694561D-03
  0.110000D+03  0.278531D-02
  0.355700D+02  0.863457D-02
  0.125400D+02  0.199805D-01
  0.464400D+01  0.262908D-01
  0.129300D+01 -0.243845D-01
  0.511800D+00 -0.924934D-01
  0.178700D+00 -0.339683D+00
  0.246240D-01  0.345111D+00
  0.112530D-01  0.752750D+00
   s    10 1.00
  0.114200D+05  0.523000D-03
  0.171200D+04  0.404500D-02
  0.389300D+03  0.207750D-01
  0.110000D+03  0.807269D-01
  0.355700D+02  0.233074D+00
  0.125400D+02  0.433501D+00
  0.464400D+01  0.347472D+00
  0.129300D+01  0.412620D-01
  0.511800D+00 -0.850799D-02
  0.178700D+00  0.238400D-02
   s    10 1.00
  0.114200D+05 -0.115000D-03
  0.171200D+04 -0.895000D-03
  0.389300D+03 -0.462400D-02
  0.110000D+03 -0.185280D-01
  0.355700D+02 -0.573390D-01
  0.125400D+02 -0.132076D+00
  0.464400D+01 -0.172510D+00
  0.129300D+01  0.151814D+00
  0.511800D+00  0.599944D+00
  0.178700D+00  0.387462D+00
   s     1 1.00
  0.129300D+01  0.100000D+01
   s     1 1.00
  0.178700D+00  0.100000D+01
   p     5 1.00
  0.266300D+02  0.146700D-01
  0.594800D+01  0.917640D-01
  0.174200D+01  0.298683D+00
  0.555000D+00  0.498487D+00
  0.172500D+00  0.337023D+00
   p     1 1.00
  0.174200D+01  0.100000D+01
   p     1 1.00
  0.555000D+00  0.100000D+01
   d     1 1.00
  0.165400D+01  0.100000D+01
   d     1 1.00
  0.469000D+00  0.100000D+01
   f     1 1.00
  0.109300D+01  0.100000D+01
  
  2  0
   s    10 1.00
  0.823600D+04  0.531000D-03
  0.123500D+04  0.410800D-02
  0.280800D+03  0.210870D-01
  0.792700D+02  0.818530D-01
  0.255900D+02  0.234817D+00
  0.899700D+01  0.434401D+00
  0.331900D+01  0.346129D+00
  0.905900D+00  0.393780D-01
  0.364300D+00 -0.898300D-02
  0.128500D+00  0.238500D-02
   s    10 1.00
  0.823600D+04 -0.113000D-03
  0.123500D+04 -0.878000D-03
  0.280800D+03 -0.454000D-02
  0.792700D+02 -0.181330D-01
  0.255900D+02 -0.557600D-01
  0.899700D+01 -0.126895D+00
  0.331900D+01 -0.170352D+00
  0.905900D+00  0.140382D+00
  0.364300D+00  0.598684D+00
  0.128500D+00  0.395389D+00
   s     1 1.00
  0.905900D+00  0.100000D+01
   s     1 1.00
  0.364300D+00  0.100000D+01
   p     5 1.00
  0.187100D+02  0.140310D-01
  0.413300D+01  0.868660D-01
  0.120000D+01  0.290216D+00
  0.382700D+00  0.501008D+00
  0.120900D+00  0.343406D+00
   p     1 1.00
  0.382700D+00  0.100000D+01
   p     1 1.00
  0.120900D+00  0.100000D+01
   d     1 1.00
  0.109700D+01  0.100000D+01
   d     1 1.00
  0.318000D+00  0.100000D+01
   f     1 1.00
  0.761000D+00  0.100000D+01
  
  3  0
   s    10 1.00
  0.823600D+04  0.531000D-03
  0.123500D+04  0.410800D-02
  0.280800D+03  0.210870D-01
  0.792700D+02  0.818530D-01
  0.255900D+02  0.234817D+00
  0.899700D+01  0.434401D+00
  0.331900D+01  0.346129D+00
  0.905900D+00  0.393780D-01
  0.364300D+00 -0.898300D-02
  0.128500D+00  0.238500D-02
   s    10 1.00
  0.823600D+04 -0.113000D-03
  0.123500D+04 -0.878000D-03
  0.280800D+03 -0.454000D-02
  0.792700D+02 -0.181330D-01
  0.255900D+02 -0.557600D-01
  0.899700D+01 -0.126895D+00
  0.331900D+01 -0.170352D+00
  0.905900D+00  0.140382D+00
  0.364300D+00  0.598684D+00
  0.128500D+00  0.395389D+00
   s     1 1.00
  0.905900D+00  0.100000D+01
   s     1 1.00
  0.364300D+00  0.100000D+01
   p     5 1.00
  0.187100D+02  0.140310D-01
  0.413300D+01  0.868660D-01
  0.120000D+01  0.290216D+00
  0.382700D+00  0.501008D+00
  0.120900D+00  0.343406D+00
   p     1 1.00
  0.382700D+00  0.100000D+01
   p     1 1.00
  0.120900D+00  0.100000D+01
   d     1 1.00
  0.109700D+01  0.100000D+01
   d     1 1.00
  0.318000D+00  0.100000D+01
   f     1 1.00
  0.761000D+00  0.100000D+01
  
  4  0
   s    10 1.00
  0.823600D+04  0.531000D-03
  0.123500D+04  0.410800D-02
  0.280800D+03  0.210870D-01
  0.792700D+02  0.818530D-01
  0.255900D+02  0.234817D+00
  0.899700D+01  0.434401D+00
  0.331900D+01  0.346129D+00
  0.905900D+00  0.393780D-01
  0.364300D+00 -0.898300D-02
  0.128500D+00  0.238500D-02
   s    10 1.00
  0.823600D+04 -0.113000D-03
  0.123500D+04 -0.878000D-03
  0.280800D+03 -0.454000D-02
  0.792700D+02 -0.181330D-01
  0.255900D+02 -0.557600D-01
  0.899700D+01 -0.126895D+00
  0.331900D+01 -0.170352D+00
  0.905900D+00  0.140382D+00
  0.364300D+00  0.598684D+00
  0.128500D+00  0.395389D+00
   s     1 1.00
  0.905900D+00  0.100000D+01
   s     1 1.00
  0.364300D+00  0.100000D+01
   p     5 1.00
  0.187100D+02  0.140310D-01
  0.413300D+01  0.868660D-01
  0.120000D+01  0.290216D+00
  0.382700D+00  0.501008D+00
  0.120900D+00  0.343406D+00
   p     1 1.00
  0.382700D+00  0.100000D+01
   p     1 1.00
  0.120900D+00  0.100000D+01
   d     1 1.00
  0.109700D+01  0.100000D+01
   d     1 1.00
  0.318000D+00  0.100000D+01
   f     1 1.00
  0.761000D+00  0.100000D+01
  
  5  0
   s    10 1.00
  0.823600D+04  0.531000D-03
  0.123500D+04  0.410800D-02
  0.280800D+03  0.210870D-01
  0.792700D+02  0.818530D-01
  0.255900D+02  0.234817D+00
  0.899700D+01  0.434401D+00
  0.331900D+01  0.346129D+00
  0.905900D+00  0.393780D-01
  0.364300D+00 -0.898300D-02
  0.128500D+00  0.238500D-02
   s    10 1.00
  0.823600D+04 -0.113000D-03
  0.123500D+04 -0.878000D-03
  0.280800D+03 -0.454000D-02
  0.792700D+02 -0.181330D-01
  0.255900D+02 -0.557600D-01
  0.899700D+01 -0.126895D+00
  0.331900D+01 -0.170352D+00
  0.905900D+00  0.140382D+00
  0.364300D+00  0.598684D+00
  0.128500D+00  0.395389D+00
   s     1 1.00
  0.905900D+00  0.100000D+01
   s     1 1.00
  0.364300D+00  0.100000D+01
   p     5 1.00
  0.187100D+02  0.140310D-01
  0.413300D+01  0.868660D-01
  0.120000D+01  0.290216D+00
  0.382700D+00  0.501008D+00
  0.120900D+00  0.343406D+00
   p     1 1.00
  0.382700D+00  0.100000D+01
   p     1 1.00
  0.120900D+00  0.100000D+01
   d     1 1.00
  0.109700D+01  0.100000D+01
   d     1 1.00
  0.318000D+00  0.100000D+01
   f     1 1.00
  0.761000D+00  0.100000D+01
  
  6  0
   s    10 1.00
  0.823600D+04  0.531000D-03
  0.123500D+04  0.410800D-02
  0.280800D+03  0.210870D-01
  0.792700D+02  0.818530D-01
  0.255900D+02  0.234817D+00
  0.899700D+01  0.434401D+00
  0.331900D+01  0.346129D+00
  0.905900D+00  0.393780D-01
  0.364300D+00 -0.898300D-02
  0.128500D+00  0.238500D-02
   s    10 1.00
  0.823600D+04 -0.113000D-03
  0.123500D+04 -0.878000D-03
  0.280800D+03 -0.454000D-02
  0.792700D+02 -0.181330D-01
  0.255900D+02 -0.557600D-01
  0.899700D+01 -0.126895D+00
  0.331900D+01 -0.170352D+00
  0.905900D+00  0.140382D+00
  0.364300D+00  0.598684D+00
  0.128500D+00  0.395389D+00
   s     1 1.00
  0.905900D+00  0.100000D+01
   s     1 1.00
  0.364300D+00  0.100000D+01
   p     5 1.00
  0.187100D+02  0.140310D-01
  0.413300D+01  0.868660D-01
  0.120000D+01  0.290216D+00
  0.382700D+00  0.501008D+00
  0.120900D+00  0.343406D+00
   p     1 1.00
  0.382700D+00  0.100000D+01
   p     1 1.00
  0.120900D+00  0.100000D+01
   d     1 1.00
  0.109700D+01  0.100000D+01
   d     1 1.00
  0.318000D+00  0.100000D+01
   f     1 1.00
  0.761000D+00  0.100000D+01
  
  7  0
   s    10 1.00
  0.823600D+04  0.531000D-03
  0.123500D+04  0.410800D-02
  0.280800D+03  0.210870D-01
  0.792700D+02  0.818530D-01
  0.255900D+02  0.234817D+00
  0.899700D+01  0.434401D+00
  0.331900D+01  0.346129D+00
  0.905900D+00  0.393780D-01
  0.364300D+00 -0.898300D-02
  0.128500D+00  0.238500D-02
   s    10 1.00
  0.823600D+04 -0.113000D-03
  0.123500D+04 -0.878000D-03
  0.280800D+03 -0.454000D-02
  0.792700D+02 -0.181330D-01
  0.255900D+02 -0.557600D-01
  0.899700D+01 -0.126895D+00
  0.331900D+01 -0.170352D+00
  0.905900D+00  0.140382D+00
  0.364300D+00  0.598684D+00
  0.128500D+00  0.395389D+00
   s     1 1.00
  0.905900D+00  0.100000D+01
   s     1 1.00
  0.364300D+00  0.100000D+01
   p     5 1.00
  0.187100D+02  0.140310D-01
  0.413300D+01  0.868660D-01
  0.120000D+01  0.290216D+00
  0.382700D+00  0.501008D+00
  0.120900D+00  0.343406D+00
   p     1 1.00
  0.382700D+00  0.100000D+01
   p     1 1.00
  0.120900D+00  0.100000D+01
   d     1 1.00
  0.109700D+01  0.100000D+01
   d     1 1.00
  0.318000D+00  0.100000D+01
   f     1 1.00
  0.761000D+00  0.100000D+01
  
  8  0
   s     4 1.00
  0.130100D+02  0.196850D-01
  0.196200D+01  0.137977D+00
  0.444600D+00  0.478148D+00
  0.122000D+00  0.501240D+00
   s     1 1.00
  0.122000D+00  0.100000D+01
   p     1 1.00
  0.727000D+00  0.100000D+01
  
  9  0
   s     4 1.00
  0.130100D+02  0.196850D-01
  0.196200D+01  0.137977D+00
  0.444600D+00  0.478148D+00
  0.122000D+00  0.501240D+00
   s     1 1.00
  0.122000D+00  0.100000D+01
   p     1 1.00
  0.727000D+00  0.100000D+01
  
 10  0
   s     4 1.00
  0.130100D+02  0.196850D-01
  0.196200D+01  0.137977D+00
  0.444600D+00  0.478148D+00
  0.122000D+00  0.501240D+00
   s     1 1.00
  0.122000D+00  0.100000D+01
   p     1 1.00
  0.727000D+00  0.100000D+01
  
 11  0
   s     4 1.00
  0.130100D+02  0.196850D-01
  0.196200D+01  0.137977D+00
  0.444600D+00  0.478148D+00
  0.122000D+00  0.501240D+00
   s     1 1.00
  0.122000D+00  0.100000D+01
   p     1 1.00
  0.727000D+00  0.100000D+01
  
 12  0
   s     4 1.00
  0.130100D+02  0.196850D-01
  0.196200D+01  0.137977D+00
  0.444600D+00  0.478148D+00
  0.122000D+00  0.501240D+00
   s     1 1.00
  0.122000D+00  0.100000D+01
   p     1 1.00
  0.727000D+00  0.100000D+01
  
 13  0
   s     4 1.00
  0.130100D+02  0.196850D-01
  0.196200D+01  0.137977D+00
  0.444600D+00  0.478148D+00
  0.122000D+00  0.501240D+00
   s     1 1.00
  0.122000D+00  0.100000D+01
   p     1 1.00
  0.727000D+00  0.100000D+01
  
 14  0
   s     4 1.00
  0.130100D+02  0.196850D-01
  0.196200D+01  0.137977D+00
  0.444600D+00  0.478148D+00
  0.122000D+00  0.501240D+00
   s     1 1.00
  0.122000D+00  0.100000D+01
   p     1 1.00
  0.727000D+00  0.100000D+01
  
[MO]
 Sym= __1_A'_
 Ene=  0.000000000000000E+000
 Spin= Alpha
 Occup=    2.00000000000000     
                     1  8.421547930595466E-005
                     2  0.998381638123044     
                     3 -3.992407934209745E-003
                     4  1.856103847029937E-003
                     5  6.402934896371037E-003
                     6  2.722915784970047E-003
                     7  5.502510797537099E-003
                     8  0.000000000000000E+000
                     9 -7.241740175196401E-004
                    10 -7.091819805934888E-004
                    11  0.000000000000000E+000
                    12 -2.430879039539799E-003
                    13 -1.954769233872806E-003
                    14  0.000000000000000E+000
                    15 -3.034419149823479E-005
                    16  0.000000000000000E+000
                    17  0.000000000000000E+000
                    18 -1.485625068480986E-004
                    19 -5.871068155058533E-005
                    20  1.191098875809129E-004
                    21  0.000000000000000E+000
                    22  0.000000000000000E+000
                    23 -1.604882771804323E-004
                    24  4.657915204062251E-004
                    25  0.000000000000000E+000
                    26 -2.941448154938733E-006
                    27 -4.175260247005255E-005
                    28  0.000000000000000E+000
                    29  0.000000000000000E+000
                    30  3.351481209512750E-005
                    31 -9.879408916926333E-005
                    32 -2.751760705488556E-004
                    33  7.032467513791926E-005
                    34  3.051509105878555E-004
                    35 -1.122816984106081E-004
                    36 -1.012791442530391E-004
                    37 -1.864864837807138E-003
                    38  0.000000000000000E+000
                    39  3.433461743120021E-004
                    40  6.458868091567587E-005
                    41  0.000000000000000E+000
                    42 -1.938993827957819E-003
                    43  4.730244424899346E-003
                    44  0.000000000000000E+000
                    45  1.337114902486934E-005
                    46  0.000000000000000E+000
                    47  0.000000000000000E+000
                    48 -9.586442626409816E-005
                    49  1.053964233829882E-005
                    50 -1.921131195409067E-004
                    51  0.000000000000000E+000
                    52  0.000000000000000E+000
                    53 -1.183383666709015E-005
                    54  7.458882374805786E-004
                    55  0.000000000000000E+000
                    56 -5.714290890030062E-006
                    57 -7.909531163223160E-005
                    58  0.000000000000000E+000
                    59  0.000000000000000E+000
                    60  2.025172434173206E-005
                    61 -1.344974754673504E-004
                    62 -5.133460124230301E-004
                    63 -1.904133275818681E-003
                    64 -9.786911936971871E-005
                    65  2.146873363073168E-003
                    66 -2.936514508505232E-004
                    67 -4.393447357878855E-005
                    68  0.000000000000000E+000
                    69  3.698266083584433E-004
                    70  8.494832121377544E-004
                    71  0.000000000000000E+000
                    72 -1.784197691414276E-003
                    73  6.358620107399804E-004
                    74  0.000000000000000E+000
                    75 -4.768571742612784E-005
                    76  0.000000000000000E+000
                    77  0.000000000000000E+000
                    78 -4.574151263668928E-005
                    79 -2.447218287384169E-005
                    80 -1.323559468821950E-004
                    81  0.000000000000000E+000
                    82  0.000000000000000E+000
                    83  1.400042450497491E-005
                    84 -2.453094452881553E-005
                    85  0.000000000000000E+000
                    86  9.442403996353190E-006
                    87 -4.579924643189994E-005
                    88  0.000000000000000E+000
                    89  0.000000000000000E+000
                    90 -2.810714947176710E-005
                    91 -1.561860115767600E-004
                    92 -1.760349750706287E-004
                    93 -5.357738588334920E-004
                    94  1.476784578138739E-004
                    95 -4.142409120019129E-005
                    96  6.599568696585784E-005
                    97 -9.695576620610561E-005
                    98  0.000000000000000E+000
                    99  3.375037079135480E-004
                   100  3.600685096341674E-004
                   101  0.000000000000000E+000
                   102  5.953166849240303E-004
                   103 -1.636744500128209E-003
                   104  0.000000000000000E+000
                   105 -1.438750190833884E-005
                   106  0.000000000000000E+000
                   107  0.000000000000000E+000
                   108 -3.526829983899782E-005
                   109 -1.145099155726964E-005
                   110  7.230066348614047E-005
                   111  0.000000000000000E+000
                   112  0.000000000000000E+000
                   113 -1.484271899088445E-004
                   114  1.134547725094086E-004
                   115  0.000000000000000E+000
                   116 -1.775147739156059E-005
                   117 -2.179954963829169E-005
                   118  0.000000000000000E+000
                   119  0.000000000000000E+000
                   120 -7.561185116372310E-006
                   121 -4.513776453151427E-005
                   122 -2.408676255069315E-004
                   123 -6.706262995972306E-004
                   124  1.712755774544244E-004
                   125  2.822905015711948E-004
                   126 -3.966592803968633E-005
                   127 -2.068520029958415E-004
                   128  0.000000000000000E+000
                   129  2.335190332860278E-004
                   130  6.311666356212828E-004
                   131  0.000000000000000E+000
                   132  4.432647065159700E-004
                   133  1.850462164125281E-003
                   134  0.000000000000000E+000
                   135  1.541778327242386E-005
                   136  0.000000000000000E+000
                   137  0.000000000000000E+000
                   138  4.872819726284036E-005
                   139 -5.313892814002835E-006
                   140  1.997097129163993E-004
                   141  0.000000000000000E+000
                   142  0.000000000000000E+000
                   143  3.868088456574886E-004
                   144  1.944761124681970E-004
                   145  0.000000000000000E+000
                   146 -1.236759006926907E-005
                   147 -6.211356516289350E-005
                   148  0.000000000000000E+000
                   149  0.000000000000000E+000
                   150 -8.953250328899417E-006
                   151 -5.529010509602130E-005
                   152 -1.351955214405284E-004
                   153 -4.203596042648076E-004
                   154  5.628310383776256E-005
                   155  2.064975226014288E-004
                   156  7.695949128187079E-006
                   157 -1.541135953982940E-005
                   158  0.000000000000000E+000
                   159 -1.351903883011334E-005
                   160  4.787502863156892E-005
                   161  0.000000000000000E+000
                   162  7.200574650318459E-004
                   163 -3.295793023829186E-004
                   164  0.000000000000000E+000
                   165  1.834020427787316E-006
                   166  0.000000000000000E+000
                   167  0.000000000000000E+000
                   168  5.205290828645646E-006
                   169  1.299432277411722E-005
                   170  1.075334958720602E-004
                   171  0.000000000000000E+000
                   172  0.000000000000000E+000
                   173  4.790672562200456E-005
                   174  3.800144240763109E-005
                   175  0.000000000000000E+000
                   176  4.413543438174171E-006
                   177 -1.420009808805106E-005
                   178  0.000000000000000E+000
                   179  0.000000000000000E+000
                   180 -2.501021923057400E-005
                   181 -3.076797561678666E-005
                   182 -1.370341483172338E-004
                   183 -4.092056111479694E-004
                   184  3.108989378928825E-005
                   185  2.181614808523245E-004
                   186 -4.335627913792075E-005
                   187 -5.343543603257934E-005
                   188  0.000000000000000E+000
                   189  2.468204909847555E-004
                   190  1.113060687371539E-004
                   191  0.000000000000000E+000
                   192  1.239517720708279E-003
                   193 -3.012110209619849E-004
                   194  0.000000000000000E+000
                   195  5.561032984249563E-007
                   196  0.000000000000000E+000
                   197  0.000000000000000E+000
                   198 -2.756740773966752E-006
                   199  3.829358420308120E-006
                   200 -6.595364769273472E-006
                   201  0.000000000000000E+000
                   202  0.000000000000000E+000
                   203 -6.554301189296259E-005
                   204 -1.874311305011114E-004
                   205  0.000000000000000E+000
                   206 -8.867674729908538E-006
                   207 -3.755961191301640E-006
                   208  0.000000000000000E+000
                   209  0.000000000000000E+000
                   210  7.677155044527106E-006
                   211 -3.769397715043829E-006
                   212 -2.663815589353697E-005
                   213  1.275767336593656E-004
                   214  9.431109993248520E-006
                   215  2.746247123933961E-005
                   216  0.000000000000000E+000
                   217 -1.191730222533870E-003
                   218 -4.108999755010608E-004
                   219 -2.037124962769966E-004
                   220  3.901971664308290E-005
                   221  0.000000000000000E+000
                   222 -1.580098506195551E-004
                   223 -6.636267947168807E-004
                   224  2.002957905723641E-005
                   225 -5.882090528488815E-005
                   226  0.000000000000000E+000
                   227  7.596044246201748E-005
                   228 -6.089973096040056E-004
                   229 -4.171346534897249E-005
                   230 -1.635898773473704E-005
                   231  0.000000000000000E+000
                   232  5.025035448661990E-005
                   233 -4.371397461194518E-004
                   234  1.420964055178509E-005
                   235 -4.003267824931505E-006
                   236  0.000000000000000E+000
                   237  3.599357037524558E-005
                   238 -3.587164772867036E-004
                   239 -1.015980700969235E-005
                   240 -3.764882943367809E-006
                   241  0.000000000000000E+000
                   242 -6.557371363974501E-005
                   243  7.975215227671670E-005
                   244  7.162271784433696E-008
                   245  2.828366994824386E-005
                   246  0.000000000000000E+000
 Sym= __2_A'_
 Ene=  0.000000000000000E+000
 Spin= Alpha
 Occup=    2.00000000000000     
                     1  4.915239415005161E-005
                     2  3.350889321577174E-004
                     3 -2.720229310222972E-003
                     4 -1.247821425713984E-004
                     5 -1.316432815830107E-003
                     6  2.532361801483484E-004
                     7 -2.654226445889688E-003
                     8  0.000000000000000E+000
                     9  3.847114425905412E-005
                    10  1.119019949241511E-004
                    11  0.000000000000000E+000
                    12  5.897779192260415E-005
                    13  3.234439281463693E-004
                    14  0.000000000000000E+000
                    15 -2.877073913722883E-005
                    16  0.000000000000000E+000
                    17  0.000000000000000E+000
                    18  3.837721800984462E-005
                    19 -1.962005841510905E-005
                    20  1.082008490790051E-004
                    21  0.000000000000000E+000
                    22  0.000000000000000E+000
                    23 -1.315979819768635E-004
                    24  1.528434658346752E-004
                    25  0.000000000000000E+000
                    26  1.789400508311818E-005
                    27 -9.602048805300061E-005
                    28  0.000000000000000E+000
                    29  0.000000000000000E+000
                    30  6.683658538835921E-005
                    31 -1.481930522005862E-004
                    32  -1.00090316018294     
                    33 -9.082616845426916E-003
                    34 -2.764407519911955E-003
                    35  8.057754656091780E-003
                    36  1.819674542313654E-004
                    37  3.043637258349491E-003
                    38  0.000000000000000E+000
                    39  7.853172483618032E-005
                    40 -1.720271824477353E-004
                    41  0.000000000000000E+000
                    42  1.345293900327280E-004
                    43 -3.956491225045941E-003
                    44  0.000000000000000E+000
                    45  5.308717787736717E-004
                    46  0.000000000000000E+000
                    47  0.000000000000000E+000
                    48  1.950566502411376E-004
                    49 -3.387556546464555E-005
                    50 -5.489494022494275E-004
                    51  0.000000000000000E+000
                    52  0.000000000000000E+000
                    53  6.618045669142552E-004
                    54  3.758005411544137E-004
                    55  0.000000000000000E+000
                    56 -1.058424032024938E-005
                    57 -9.974310106621034E-005
                    58  0.000000000000000E+000
                    59  0.000000000000000E+000
                    60  2.741607709010172E-005
                    61 -3.836471308918882E-004
                    62 -1.223395843285516E-002
                    63  1.999398101045687E-003
                    64  2.419828550230689E-004
                    65 -2.710327531809170E-003
                    66 -5.187666903445713E-005
                    67 -6.949937874290333E-005
                    68  0.000000000000000E+000
                    69 -5.426718506873318E-004
                    70 -1.439855685618668E-004
                    71  0.000000000000000E+000
                    72  2.091229301193219E-003
                    73 -2.775443397562660E-004
                    74  0.000000000000000E+000
                    75 -3.305435790728221E-005
                    76  0.000000000000000E+000
                    77  0.000000000000000E+000
                    78  1.804617153950060E-006
                    79 -2.550615033969255E-006
                    80  4.296634485962127E-004
                    81  0.000000000000000E+000
                    82  0.000000000000000E+000
                    83  6.482567472278986E-004
                    84  2.597347278569199E-004
                    85  0.000000000000000E+000
                    86 -2.769312626091160E-005
                    87  5.850341307229662E-005
                    88  0.000000000000000E+000
                    89  0.000000000000000E+000
                    90 -4.062538598475882E-005
                    91 -1.491939342638880E-004
                    92 -1.503876729896654E-002
                    93  2.056177918330702E-003
                    94  2.985520306569604E-004
                    95 -3.161967349112758E-003
                    96 -1.137950559153172E-004
                    97 -1.042775880531852E-004
                    98  0.000000000000000E+000
                    99  9.097701256109990E-004
                   100 -3.276865206954711E-005
                   101  0.000000000000000E+000
                   102 -1.708217355606490E-003
                   103 -8.135695488013771E-006
                   104  0.000000000000000E+000
                   105 -2.410029381976260E-005
                   106  0.000000000000000E+000
                   107  0.000000000000000E+000
                   108  4.951952053671444E-006
                   109 -4.963987209911907E-006
                   110  4.218610577008604E-004
                   111  0.000000000000000E+000
                   112  0.000000000000000E+000
                   113  3.949295899799414E-004
                   114 -2.432364936860028E-004
                   115  0.000000000000000E+000
                   116  3.073204338767201E-005
                   117  7.247536715671363E-005
                   118  0.000000000000000E+000
                   119  0.000000000000000E+000
                   120  3.633079044021942E-006
                   121 -1.328829936874226E-004
                   122  9.218579476470972E-005
                   123  6.851940040773433E-004
                   124 -2.299911826778660E-004
                   125  1.281768753483702E-004
                   126 -2.148752114197505E-006
                   127  3.592584765964890E-004
                   128  0.000000000000000E+000
                   129  8.078597083947853E-005
                   130 -6.128758712955323E-004
                   131  0.000000000000000E+000
                   132 -3.759321738645966E-004
                   133 -8.971055556011484E-004
                   134  0.000000000000000E+000
                   135 -1.849759724169881E-005
                   136  0.000000000000000E+000
                   137  0.000000000000000E+000
                   138 -4.387998453850772E-006
                   139 -4.279783714462371E-005
                   140 -1.299394060219691E-004
                   141  0.000000000000000E+000
                   142  0.000000000000000E+000
                   143 -2.511850030133694E-004
                   144  1.102272159368884E-004
                   145  0.000000000000000E+000
                   146 -9.144826494286121E-006
                   147  3.710372474989994E-005
                   148  0.000000000000000E+000
                   149  0.000000000000000E+000
                   150  4.382945596675053E-005
                   151 -3.665323590031538E-005
                   152 -6.462850558917841E-005
                   153  6.608022035446400E-004
                   154 -2.310649486760245E-004
                   155  5.042016546309646E-005
                   156  3.356353269438860E-005
                   157  3.841844743184379E-004
                   158  0.000000000000000E+000
                   159 -1.302976830381551E-004
                   160 -5.527802061600582E-004