[Molden Format]
[Atoms] AU
  N     1    7    -4.4519150800    0.1645695100   -0.0000004400        
  C     2    6    -1.7695092000   -0.0145096000   -0.0000001700        
  C     3    6    -0.4270927200   -0.0061402300   -2.2691546100        
  C     4    6    -0.4270931100   -0.0061391100    2.2691544900        
  C     5    6     2.1889955900   -0.0004823800   -2.2566388900        
  C     6    6     2.1889952100   -0.0004812700    2.2566392100        
  C     7    6     3.5149715000    0.0022090000    0.0000002700        
  H     8    1    -5.3130101500   -0.8650459100   -1.8277697800        
  H     9    1    -5.2412525100   -0.7792438000    1.6754551200        
  H    10    1    -1.4305344500   -0.0005073500   -4.0318143700        
  H    11    1    -1.4305351200   -0.0005053700    4.0318140800        
  H    12    1     3.1914120400   -0.0010699000   -4.0209976100        
  H    13    1     3.1914113700   -0.0010679200    4.0209980900        
  H    14    1     5.5428332300    0.0050250700    0.0000004400        
[5D]
[7F]
[GTO]
  1  0
   s    12 1.00
  0.114200D+05  0.172695D-04
  0.171200D+04  0.134411D-03
  0.389300D+03  0.694561D-03
  0.110000D+03  0.278531D-02
  0.355700D+02  0.863457D-02
  0.125400D+02  0.199805D-01
  0.464400D+01  0.262908D-01
  0.129300D+01 -0.243845D-01
  0.511800D+00 -0.924934D-01
  0.178700D+00 -0.339683D+00
  0.246240D-01  0.345111D+00
  0.112530D-01  0.752750D+00
   s    10 1.00
  0.114200D+05  0.523000D-03
  0.171200D+04  0.404500D-02
  0.389300D+03  0.207750D-01
  0.110000D+03  0.807269D-01
  0.355700D+02  0.233074D+00
  0.125400D+02  0.433501D+00
  0.464400D+01  0.347472D+00
  0.129300D+01  0.412620D-01
  0.511800D+00 -0.850799D-02
  0.178700D+00  0.238400D-02
   s    10 1.00
  0.114200D+05 -0.115000D-03
  0.171200D+04 -0.895000D-03
  0.389300D+03 -0.462400D-02
  0.110000D+03 -0.185280D-01
  0.355700D+02 -0.573390D-01
  0.125400D+02 -0.132076D+00
  0.464400D+01 -0.172510D+00
  0.129300D+01  0.151814D+00
  0.511800D+00  0.599944D+00
  0.178700D+00  0.387462D+00
   s     1 1.00
  0.129300D+01  0.100000D+01
   s     1 1.00
  0.178700D+00  0.100000D+01
   p     5 1.00
  0.266300D+02  0.146700D-01
  0.594800D+01  0.917640D-01
  0.174200D+01  0.298683D+00
  0.555000D+00  0.498487D+00
  0.172500D+00  0.337023D+00
   p     1 1.00
  0.174200D+01  0.100000D+01
   p     1 1.00
  0.555000D+00  0.100000D+01
   d     1 1.00
  0.165400D+01  0.100000D+01
   d     1 1.00
  0.469000D+00  0.100000D+01
   f     1 1.00
  0.109300D+01  0.100000D+01
  
  2  0
   s    10 1.00
  0.823600D+04  0.531000D-03
  0.123500D+04  0.410800D-02
  0.280800D+03  0.210870D-01
  0.792700D+02  0.818530D-01
  0.255900D+02  0.234817D+00
  0.899700D+01  0.434401D+00
  0.331900D+01  0.346129D+00
  0.905900D+00  0.393780D-01
  0.364300D+00 -0.898300D-02
  0.128500D+00  0.238500D-02
   s    10 1.00
  0.823600D+04 -0.113000D-03
  0.123500D+04 -0.878000D-03
  0.280800D+03 -0.454000D-02
  0.792700D+02 -0.181330D-01
  0.255900D+02 -0.557600D-01
  0.899700D+01 -0.126895D+00
  0.331900D+01 -0.170352D+00
  0.905900D+00  0.140382D+00
  0.364300D+00  0.598684D+00
  0.128500D+00  0.395389D+00
   s     1 1.00
  0.905900D+00  0.100000D+01
   s     1 1.00
  0.364300D+00  0.100000D+01
   p     5 1.00
  0.187100D+02  0.140310D-01
  0.413300D+01  0.868660D-01
  0.120000D+01  0.290216D+00
  0.382700D+00  0.501008D+00
  0.120900D+00  0.343406D+00
   p     1 1.00
  0.382700D+00  0.100000D+01
   p     1 1.00
  0.120900D+00  0.100000D+01
   d     1 1.00
  0.109700D+01  0.100000D+01
   d     1 1.00
  0.318000D+00  0.100000D+01
   f     1 1.00
  0.761000D+00  0.100000D+01
  
  3  0
   s    10 1.00
  0.823600D+04  0.531000D-03
  0.123500D+04  0.410800D-02
  0.280800D+03  0.210870D-01
  0.792700D+02  0.818530D-01
  0.255900D+02  0.234817D+00
  0.899700D+01  0.434401D+00
  0.331900D+01  0.346129D+00
  0.905900D+00  0.393780D-01
  0.364300D+00 -0.898300D-02
  0.128500D+00  0.238500D-02
   s    10 1.00
  0.823600D+04 -0.113000D-03
  0.123500D+04 -0.878000D-03
  0.280800D+03 -0.454000D-02
  0.792700D+02 -0.181330D-01
  0.255900D+02 -0.557600D-01
  0.899700D+01 -0.126895D+00
  0.331900D+01 -0.170352D+00
  0.905900D+00  0.140382D+00
  0.364300D+00  0.598684D+00
  0.128500D+00  0.395389D+00
   s     1 1.00
  0.905900D+00  0.100000D+01
   s     1 1.00
  0.364300D+00  0.100000D+01
   p     5 1.00
  0.187100D+02  0.140310D-01
  0.413300D+01  0.868660D-01
  0.120000D+01  0.290216D+00
  0.382700D+00  0.501008D+00
  0.120900D+00  0.343406D+00
   p     1 1.00
  0.382700D+00  0.100000D+01
   p     1 1.00
  0.120900D+00  0.100000D+01
   d     1 1.00
  0.109700D+01  0.100000D+01
   d     1 1.00
  0.318000D+00  0.100000D+01
   f     1 1.00
  0.761000D+00  0.100000D+01
  
  4  0
   s    10 1.00
  0.823600D+04  0.531000D-03
  0.123500D+04  0.410800D-02
  0.280800D+03  0.210870D-01
  0.792700D+02  0.818530D-01
  0.255900D+02  0.234817D+00
  0.899700D+01  0.434401D+00
  0.331900D+01  0.346129D+00
  0.905900D+00  0.393780D-01
  0.364300D+00 -0.898300D-02
  0.128500D+00  0.238500D-02
   s    10 1.00
  0.823600D+04 -0.113000D-03
  0.123500D+04 -0.878000D-03
  0.280800D+03 -0.454000D-02
  0.792700D+02 -0.181330D-01
  0.255900D+02 -0.557600D-01
  0.899700D+01 -0.126895D+00
  0.331900D+01 -0.170352D+00
  0.905900D+00  0.140382D+00
  0.364300D+00  0.598684D+00
  0.128500D+00  0.395389D+00
   s     1 1.00
  0.905900D+00  0.100000D+01
   s     1 1.00
  0.364300D+00  0.100000D+01
   p     5 1.00
  0.187100D+02  0.140310D-01
  0.413300D+01  0.868660D-01
  0.120000D+01  0.290216D+00
  0.382700D+00  0.501008D+00
  0.120900D+00  0.343406D+00
   p     1 1.00
  0.382700D+00  0.100000D+01
   p     1 1.00
  0.120900D+00  0.100000D+01
   d     1 1.00
  0.109700D+01  0.100000D+01
   d     1 1.00
  0.318000D+00  0.100000D+01
   f     1 1.00
  0.761000D+00  0.100000D+01
  
  5  0
   s    10 1.00
  0.823600D+04  0.531000D-03
  0.123500D+04  0.410800D-02
  0.280800D+03  0.210870D-01
  0.792700D+02  0.818530D-01
  0.255900D+02  0.234817D+00
  0.899700D+01  0.434401D+00
  0.331900D+01  0.346129D+00
  0.905900D+00  0.393780D-01
  0.364300D+00 -0.898300D-02
  0.128500D+00  0.238500D-02
   s    10 1.00
  0.823600D+04 -0.113000D-03
  0.123500D+04 -0.878000D-03
  0.280800D+03 -0.454000D-02
  0.792700D+02 -0.181330D-01
  0.255900D+02 -0.557600D-01
  0.899700D+01 -0.126895D+00
  0.331900D+01 -0.170352D+00
  0.905900D+00  0.140382D+00
  0.364300D+00  0.598684D+00
  0.128500D+00  0.395389D+00
   s     1 1.00
  0.905900D+00  0.100000D+01
   s     1 1.00
  0.364300D+00  0.100000D+01
   p     5 1.00
  0.187100D+02  0.140310D-01
  0.413300D+01  0.868660D-01
  0.120000D+01  0.290216D+00
  0.382700D+00  0.501008D+00
  0.120900D+00  0.343406D+00
   p     1 1.00
  0.382700D+00  0.100000D+01
   p     1 1.00
  0.120900D+00  0.100000D+01
   d     1 1.00
  0.109700D+01  0.100000D+01
   d     1 1.00
  0.318000D+00  0.100000D+01
   f     1 1.00
  0.761000D+00  0.100000D+01
  
  6  0
   s    10 1.00
  0.823600D+04  0.531000D-03
  0.123500D+04  0.410800D-02
  0.280800D+03  0.210870D-01
  0.792700D+02  0.818530D-01
  0.255900D+02  0.234817D+00
  0.899700D+01  0.434401D+00
  0.331900D+01  0.346129D+00
  0.905900D+00  0.393780D-01
  0.364300D+00 -0.898300D-02
  0.128500D+00  0.238500D-02
   s    10 1.00
  0.823600D+04 -0.113000D-03
  0.123500D+04 -0.878000D-03
  0.280800D+03 -0.454000D-02
  0.792700D+02 -0.181330D-01
  0.255900D+02 -0.557600D-01
  0.899700D+01 -0.126895D+00
  0.331900D+01 -0.170352D+00
  0.905900D+00  0.140382D+00
  0.364300D+00  0.598684D+00
  0.128500D+00  0.395389D+00
   s     1 1.00
  0.905900D+00  0.100000D+01
   s     1 1.00
  0.364300D+00  0.100000D+01
   p     5 1.00
  0.187100D+02  0.140310D-01
  0.413300D+01  0.868660D-01
  0.120000D+01  0.290216D+00
  0.382700D+00  0.501008D+00
  0.120900D+00  0.343406D+00
   p     1 1.00
  0.382700D+00  0.100000D+01
   p     1 1.00
  0.120900D+00  0.100000D+01
   d     1 1.00
  0.109700D+01  0.100000D+01
   d     1 1.00
  0.318000D+00  0.100000D+01
   f     1 1.00
  0.761000D+00  0.100000D+01
  
  7  0
   s    10 1.00
  0.823600D+04  0.531000D-03
  0.123500D+04  0.410800D-02
  0.280800D+03  0.210870D-01
  0.792700D+02  0.818530D-01
  0.255900D+02  0.234817D+00
  0.899700D+01  0.434401D+00
  0.331900D+01  0.346129D+00
  0.905900D+00  0.393780D-01
  0.364300D+00 -0.898300D-02
  0.128500D+00  0.238500D-02
   s    10 1.00
  0.823600D+04 -0.113000D-03
  0.123500D+04 -0.878000D-03
  0.280800D+03 -0.454000D-02
  0.792700D+02 -0.181330D-01
  0.255900D+02 -0.557600D-01
  0.899700D+01 -0.126895D+00
  0.331900D+01 -0.170352D+00
  0.905900D+00  0.140382D+00
  0.364300D+00  0.598684D+00
  0.128500D+00  0.395389D+00
   s     1 1.00
  0.905900D+00  0.100000D+01
   s     1 1.00
  0.364300D+00  0.100000D+01
   p     5 1.00
  0.187100D+02  0.140310D-01
  0.413300D+01  0.868660D-01
  0.120000D+01  0.290216D+00
  0.382700D+00  0.501008D+00
  0.120900D+00  0.343406D+00
   p     1 1.00
  0.382700D+00  0.100000D+01
   p     1 1.00
  0.120900D+00  0.100000D+01
   d     1 1.00
  0.109700D+01  0.100000D+01
   d     1 1.00
  0.318000D+00  0.100000D+01
   f     1 1.00
  0.761000D+00  0.100000D+01
  
  8  0
   s     4 1.00
  0.130100D+02  0.196850D-01
  0.196200D+01  0.137977D+00
  0.444600D+00  0.478148D+00
  0.122000D+00  0.501240D+00
   s     1 1.00
  0.122000D+00  0.100000D+01
   p     1 1.00
  0.727000D+00  0.100000D+01
  
  9  0
   s     4 1.00
  0.130100D+02  0.196850D-01
  0.196200D+01  0.137977D+00
  0.444600D+00  0.478148D+00
  0.122000D+00  0.501240D+00
   s     1 1.00
  0.122000D+00  0.100000D+01
   p     1 1.00
  0.727000D+00  0.100000D+01
  
 10  0
   s     4 1.00
  0.130100D+02  0.196850D-01
  0.196200D+01  0.137977D+00
  0.444600D+00  0.478148D+00
  0.122000D+00  0.501240D+00
   s     1 1.00
  0.122000D+00  0.100000D+01
   p     1 1.00
  0.727000D+00  0.100000D+01
  
 11  0
   s     4 1.00
  0.130100D+02  0.196850D-01
  0.196200D+01  0.137977D+00
  0.444600D+00  0.478148D+00
  0.122000D+00  0.501240D+00
   s     1 1.00
  0.122000D+00  0.100000D+01
   p     1 1.00
  0.727000D+00  0.100000D+01
  
 12  0
   s     4 1.00
  0.130100D+02  0.196850D-01
  0.196200D+01  0.137977D+00
  0.444600D+00  0.478148D+00
  0.122000D+00  0.501240D+00
   s     1 1.00
  0.122000D+00  0.100000D+01
   p     1 1.00
  0.727000D+00  0.100000D+01
  
 13  0
   s     4 1.00
  0.130100D+02  0.196850D-01
  0.196200D+01  0.137977D+00
  0.444600D+00  0.478148D+00
  0.122000D+00  0.501240D+00
   s     1 1.00
  0.122000D+00  0.100000D+01
   p     1 1.00
  0.727000D+00  0.100000D+01
  
 14  0
   s     4 1.00
  0.130100D+02  0.196850D-01
  0.196200D+01  0.137977D+00
  0.444600D+00  0.478148D+00
  0.122000D+00  0.501240D+00
   s     1 1.00
  0.122000D+00  0.100000D+01
   p     1 1.00
  0.727000D+00  0.100000D+01
  
[MO]
 Sym= __1_a__
 Ene=  0.000000000000000E+000
 Spin= Alpha
 Occup=    2.00000000000000     
                     1  1.822590771933510E-004
                     2  0.998425133094545     
                     3  1.859072373312280E-003
                     4  1.558592980757650E-003
                     5  5.791225636442510E-003
                     6  5.814659536916580E-003
                     7 -4.721923208259420E-003
                     8  2.121555311261710E-004
                     9 -7.825520198808300E-004
                    10  3.655951457292110E-004
                    11  1.156707570373330E-005
                    12 -1.693858958576610E-003
                    13  3.176985892474420E-003
                    14 -1.473226069028100E-004
                    15 -7.025940700887419E-005
                    16 -1.819440531265150E-005
                    17 -2.514171700289780E-005
                    18  8.086484008686100E-005
                    19  1.991533978095630E-005
                    20 -3.590475392263640E-004
                    21  3.298023942288740E-005
                    22  6.895171722027960E-006
                    23  4.196407801282680E-005
                    24 -4.788123484342480E-004
                    25  1.299492338757008E-006
                    26 -9.158030444001801E-005
                    27 -6.970145882825789E-006
                    28 -6.146975181128040E-006
                    29  6.529039177194300E-006
                    30 -7.053056570433485E-005
                    31 -5.758796227073449E-005
                    32 -3.799092381158780E-004
                    33  6.799339222096740E-004
                    34  2.419769251833750E-004
                    35 -1.013207535106340E-004
                    36 -3.764546822042170E-003
                    37 -6.460612205036390E-005
                    38 -2.383603284285430E-005
                    39  8.409418413987101E-005
                    40 -5.402659715179630E-006
                    41  3.135537160457770E-005
                    42  5.006828184616690E-003
                    43  8.043553338856010E-004
                    44 -7.334490939412860E-005
                    45 -2.017956131667467E-004
                    46 -4.790273963388820E-006
                    47  7.746174724352540E-007
                    48  1.822164574208494E-004
                    49  4.471794236276290E-005
                    50  3.798458878949052E-004
                    51  4.440901809061770E-005
                    52 -5.372952222378120E-006
                    53 -1.250388176601954E-005
                    54 -3.585802967553260E-004
                    55  2.821543200158745E-006
                    56 -5.518658444460986E-005
                    57  5.858087263580035E-006
                    58  5.293680249768560E-006
                    59  1.636963411147490E-007
                    60 -3.133280832188243E-005
                    61  4.350751860797964E-005
                    62 -3.741402317755010E-004
                    63 -1.707211685540600E-003
                    64  8.066863918210500E-005
                    65  9.532830472270760E-004
                    66  4.262859951369600E-004
                    67 -1.229068156411820E-004
                    68 -5.023556092358370E-004
                    69  5.677438563525650E-004
                    70  8.024730827108760E-005
                    71  1.440698999234540E-004
                    72 -4.444984563729200E-004
                    73 -3.544290676532570E-004
                    74 -9.524530054390350E-004
                    75 -6.205749143833047E-005
                    76 -1.287332914589300E-005
                    77  1.905978134963080E-005
                    78  6.048165130166640E-005
                    79 -9.837635964237019E-006
                    80  1.669817379148555E-004
                    81  1.195212272630160E-004
                    82 -3.530008426326150E-005
                    83 -1.021333003366738E-004
                    84  5.471803676761640E-005
                    85 -1.161888121560245E-005
                    86 -6.194369841350501E-005
                    87  1.989472094787316E-005
                    88 -1.160040357390110E-005
                    89  1.263372140291680E-005
                    90 -4.828792973597616E-005
                    91 -1.071268061569674E-005
                    92 -3.714418219032670E-004
                    93 -1.723912678054650E-003
                    94  9.687777283006470E-005
                    95  8.618951473034350E-004
                    96  4.557640252215930E-004
                    97 -1.270330173368680E-004
                    98  5.121453987868130E-004
                    99  5.675451331392870E-004
                   100  8.904662103979030E-005
                   101 -8.980697512720069E-005
                   102 -5.793552851144320E-004
                   103 -3.631649910115290E-004
                   104  8.680376467447810E-004
                   105 -6.604187942605558E-005
                   106  9.458187021279080E-006
                   107 -1.937021687488890E-005
                   108  5.907516364814800E-005
                   109 -1.067578220552280E-005
                   110  1.464875959215195E-004
                   111 -1.162451561330510E-004
                   112  3.294971164583590E-005
                   113 -9.512436232551779E-005
                   114  5.593235843677010E-005
                   115  8.147915303400246E-006
                   116 -5.825570541263550E-005
                   117  2.004993165638055E-005
                   118  9.467692624815701E-006
                   119 -1.172809556551250E-005
                   120 -4.596106197227027E-005
                   121 -1.046339160327050E-005
                   122 -1.991832240158530E-004
                   123 -3.998167715333430E-004
                   124  5.608700457505630E-005
                   125  5.738345076393850E-004
                   126 -4.480306781257920E-004
                   127 -6.078277031903360E-005
                   128  1.159500864975480E-005
                   129  2.307882286682340E-004
                   130 -2.506167365942250E-005
                   131  4.587082095415270E-005
                   132  9.151915771509369E-004
                   133  1.601223209155010E-004
                   134 -2.391655862837220E-004
                   135  7.485544921916970E-006
                   136 -1.333532607900740E-006
                   137 -4.576318808311990E-006
                   138 -1.370845052781790E-006
                   139  9.716868926513560E-006
                   140  8.277264145459705E-005
                   141  1.737477795909140E-004
                   142  9.419335384169249E-006
                   143 -1.956961993107848E-004
                   144 -1.440478256872000E-005
                   145 -1.002126625322412E-005
                   146 -1.601114189532169E-005
                   147  2.571057027015119E-006
                   148 -1.576782040430966E-006
                   149 -2.609091731061230E-006
                   150 -4.628724923087466E-005
                   151 -2.172280734753180E-006
                   152 -1.956789079655740E-004
                   153 -3.809376290471170E-004
                   154  5.454728211281000E-005
                   155  5.575426549184080E-004
                   156 -4.549288339561780E-004
                   157 -5.991782975517240E-005
                   158 -1.280832497442310E-005
                   159  2.177143234111260E-004
                   160 -2.739431658229030E-005
                   161 -4.024995429497980E-005
                   162  7.996240772395310E-004
                   163  1.646813234246340E-004
                   164  3.136030460063090E-004
                   165  6.639426389100432E-006
                   166  1.027599405190340E-006
                   167  4.537908302487260E-006
                   168 -3.638255110663740E-007
                   169  1.018861223635320E-005
                   170  7.348522420958099E-005
                   171 -1.641141394388660E-004
                   172 -9.332148069895490E-006
                   173 -1.896930402294084E-004
                   174 -1.413512355801750E-005
                   175  8.988428631546625E-006
                   176 -1.624116872727954E-005
                   177  2.785346564888589E-006
                   178  1.190541259381946E-006
                   179  2.585924148847000E-006
                   180 -4.454110359785405E-005
                   181 -2.699234607868753E-006
                   182 -1.275756077122610E-004
                   183 -3.923682278014500E-004
                   184  3.100607318434320E-005
                   185  1.635596533253660E-004
                   186 -2.437342354175510E-005
                   187 -6.755528354240720E-005
                   188 -1.866824159817670E-006
                   189  1.046372147818270E-004
                   190  2.194689469944690E-005
                   191  1.011605727359000E-005
                   192 -3.800844744955360E-004
                   193 -1.106853282971180E-004
                   194  6.736403686843851E-005
                   195 -8.525443156710879E-006
                   196 -7.803871161134130E-008
                   197  1.647768147577330E-007
                   198  3.485679272269080E-006
                   199 -2.026434139387060E-006
                   200 -1.108576534931860E-004
                   201 -7.264781073954160E-006
                   202 -4.371870690340900E-007
                   203  5.413363956179620E-005
                   204  1.914122833441880E-005
                   205  5.438416449732645E-008
                   206  3.437063111792558E-006
                   207  3.221306950640500E-006
                   208  4.951943343839060E-007
                   209 -7.165843005590540E-009
                   210 -5.939606111985340E-006
                   211 -3.140297106976693E-006
                   212  1.101884188582960E-003
                   213 -1.121946863647010E-003
                   214  1.477194810686950E-004
                   215  2.579398353273340E-004
                   216  2.741486784205240E-004
                   217  1.668632683068820E-003
                   218 -1.559065219937700E-003
                   219  1.672858475241460E-004
                   220  2.854881626662260E-004
                   221 -3.176948276726570E-004
                   222 -3.899636992484150E-004
                   223 -4.309960182053790E-004
                   224 -5.827045006904230E-005
                   225  9.407717854638679E-006
                   226  4.115844389010790E-005
                   227 -3.957982066275200E-004
                   228 -3.958769343084210E-004
                   229 -5.623795496339130E-005
                   230  9.818064057865610E-006
                   231 -4.150700563104650E-005
                   232 -8.101950438349720E-005
                   233 -4.766005423086860E-004
                   234  2.506086146160130E-006
                   235 -1.971432040624160E-006
                   236 -6.610736686922970E-006
                   237 -8.513064521560160E-005
                   238 -4.800539314347990E-004
                   239  1.873484942082640E-006
                   240 -2.200850207420870E-006
                   241  6.040063993800550E-006
                   242  2.951284942408300E-006
                   243  1.168711055426010E-004
                   244  3.018455351774610E-005
                   245  1.427560440660610E-006
                   246 -2.322353129842820E-007
 Sym= __2_a__
 Ene=  0.000000000000000E+000
 Spin= Alpha
 Occup=    2.00000000000000     
                     1 -2.819794338486090E-005
                     2 -1.011180760174350E-004
                     3  2.236479867610490E-003
                     4 -9.215249751696089E-006
                     5  1.201895367429070E-003
                     6  2.046716693968900E-003
                     7  1.698189974838900E-004
                     8 -4.811127137719170E-005
                     9 -1.408773358079330E-004
                    10  9.598326947656769E-005
                    11 -4.635195016557860E-006
                    12  4.002885773546990E-006
                    13  3.191850741363370E-005
                    14  4.315914359715820E-006
                    15 -7.382476529203335E-005
                    16 -1.193798058112780E-006
                    17 -4.027240400777030E-007
                    18  4.206149605487820E-005
                    19 -6.113846570189140E-006
                    20  1.596280200519134E-004
                    21  1.019972671723130E-005
                    22  3.550742138226650E-006
                    23  9.918483117211040E-005
                    24 -2.151853575895980E-005
                    25 -2.689311436278170E-006
                    26  1.378126498933738E-004
                    27 -5.347794312758836E-005
                    28 -9.809877720148880E-007
                    29 -2.259365053651740E-006
                    30  1.235793250529869E-004
                    31  3.209488812888100E-005
                    32   1.00095887047110     
                    33  8.841055499474650E-003
                    34  2.777358556053970E-003
                    35 -8.218904676636531E-003
                    36 -2.699926518012650E-003
                    37  6.589680208092420E-004
                    38  9.847979064168360E-006
                    39  1.038525434085400E-003
                    40 -2.405503406673210E-004
                    41 -1.207005503080770E-005
                    42  3.507130539924330E-003
                    43 -1.278618973350480E-004
                    44  6.770215726536410E-006
                    45  2.893408113095776E-004
                    46 -2.013909406010810E-006
                    47  5.096671919297770E-007
                    48  4.250694796634180E-004
                    49 -2.708133184043530E-005
                    50 -1.048370124723333E-003
                    51  8.770426322907240E-006
                    52 -2.067662791350470E-006
                    53 -1.013583547806620E-004
                    54  4.334527630318130E-005
                    55  9.294062515048226E-008
                    56  3.145026329620253E-004
                    57 -8.209828702900502E-006
                    58 -9.260801018625720E-007
                    59 -4.911113944021770E-007
                    60  8.873440941316030E-005
                    61  1.630779010167278E-005
                    62  1.264911101056150E-002
                    63 -1.890466807599490E-003
                    64 -3.101988797064570E-004
                    65  3.150903565100950E-003
                    66 -1.145009104834450E-004
                    67  1.039172749988850E-004
                    68  2.306651047265750E-004
                    69  3.010615839690690E-005
                    70 -3.266279017682310E-007
                    71  5.302254138404820E-004
                    72  1.474043345060180E-004
                    73 -3.123021810291290E-005
                    74 -1.835796396943640E-003
                    75 -1.274967835713732E-005
                    76  2.413661096983120E-005
                    77  7.935276403468811E-006
                    78 -3.464230506357920E-005
                    79 -4.354954058674450E-006
                    80 -4.140165776368448E-004
                    81 -4.602634147692550E-004
                    82 -3.039711967019650E-006
                    83  7.568713143581260E-004
                    84 -2.298720707878500E-006
                    85  5.085225239539937E-005
                    86  1.090196191708306E-004
                    87 -3.166616488145935E-008
                    88 -1.664957900289022E-005
                    89 -6.633150360766180E-006
                    90 -3.020537404238038E-005
                    91  4.810937397029508E-006
                    92  1.288988035089330E-002
                    93 -1.891005225403870E-003
                    94 -3.099278390569120E-004
                    95  3.148020083437240E-003
                    96 -1.139159992263160E-004
                    97  1.031041731083710E-004
                    98 -2.281364775777680E-004
                    99  2.685354063360910E-005
                   100  1.385355778386100E-006
                   101 -5.277135248203380E-004
                   102  1.570389643590860E-004
                   103 -2.984323220777560E-005
                   104  1.840996606842770E-003
                   105 -1.221992533682444E-005
                   106 -2.439257411601500E-005
                   107 -7.840619914912339E-006
                   108 -3.488873331425500E-005
                   109 -4.261882965591280E-006
                   110 -4.177855778703500E-004
                   111  4.633351183979150E-004
                   112  1.528707417884460E-006
                   113  7.599840850089800E-004
                   114 -4.070937516375930E-006
                   115 -5.091785307746526E-005
                   116  1.093003100387845E-004
                   117  1.859145305140485E-007
                   118  1.615042510557704E-005
                   119  7.027053233601350E-006
                   120 -2.983199390538205E-005
                   121  4.883366235727206E-006
                   122 -1.368737183038090E-004
                   123 -6.999416482763230E-004
                   124  2.522014502089900E-004
                   125 -3.162033502549970E-004
                   126 -2.152221174595680E-004
                   127  1.557476835080490E-005
                   128 -4.027748239144820E-005
                   129  6.023369790376820E-004
                   130 -8.551333204087680E-007
                   131  3.631664822979470E-005
                   132  5.807608204473470E-004
                   133  5.474618401069340E-006
                   134  3.335154879861370E-004
                   135 -2.342690044644703E-007
                   136  4.222809400704350E-005
                   137  1.152149190283040E-007
                   138 -3.356122630138980E-005
                   139 -1.255730668585480E-006
                   140  1.925759777193207E-004
                   141 -2.549951927741720E-004
                   142  1.701533074619600E-006
                   143 -2.651271665278720E-004
                   144 -4.339799738625990E-006
                   145 -1.834686678569608E-005
                   146  1.396284984939992E-005
                   147  4.013971110212178E-008
                   148 -1.360263342923828E-005
                   149 -2.007176756149420E-006
                   150 -2.599441125083697E-005
                   151 -6.134107655759523E-007
                   152 -1.319897373126560E-004
                   153 -7.015266566278200E-004
                   154  2.519298411789260E-004
                   155 -3.159752854436840E-004
                   156 -2.141156376467670E-004
                   157  1.532164272416040E-005
                   158  4.028154110502000E-005
                   159  6.028226473862630E-004
                   160 -5.725932344297360E-007