[Molden Format]
[Atoms] AU
  N     1    7    -4.4519150800    0.1645695100   -0.0000004400        
  C     2    6    -1.7695092000   -0.0145096000   -0.0000001700        
  C     3    6    -0.4270927200   -0.0061402300   -2.2691546100        
  C     4    6    -0.4270931100   -0.0061391100    2.2691544900        
  C     5    6     2.1889955900   -0.0004823800   -2.2566388900        
  C     6    6     2.1889952100   -0.0004812700    2.2566392100        
  C     7    6     3.5149715000    0.0022090000    0.0000002700        
  H     8    1    -5.3130101500   -0.8650459100   -1.8277697800        
  H     9    1    -5.2412525100   -0.7792438000    1.6754551200        
  H    10    1    -1.4305344500   -0.0005073500   -4.0318143700        
  H    11    1    -1.4305351200   -0.0005053700    4.0318140800        
  H    12    1     3.1914120400   -0.0010699000   -4.0209976100        
  H    13    1     3.1914113700   -0.0010679200    4.0209980900        
  H    14    1     5.5428332300    0.0050250700    0.0000004400        
[5D]
[7F]
[GTO]
  1  0
   s    12 1.00
  0.114200D+05  0.172695D-04
  0.171200D+04  0.134411D-03
  0.389300D+03  0.694561D-03
  0.110000D+03  0.278531D-02
  0.355700D+02  0.863457D-02
  0.125400D+02  0.199805D-01
  0.464400D+01  0.262908D-01
  0.129300D+01 -0.243845D-01
  0.511800D+00 -0.924934D-01
  0.178700D+00 -0.339683D+00
  0.246240D-01  0.345111D+00
  0.112530D-01  0.752750D+00
   s    10 1.00
  0.114200D+05  0.523000D-03
  0.171200D+04  0.404500D-02
  0.389300D+03  0.207750D-01
  0.110000D+03  0.807269D-01
  0.355700D+02  0.233074D+00
  0.125400D+02  0.433501D+00
  0.464400D+01  0.347472D+00
  0.129300D+01  0.412620D-01
  0.511800D+00 -0.850799D-02
  0.178700D+00  0.238400D-02
   s    10 1.00
  0.114200D+05 -0.115000D-03
  0.171200D+04 -0.895000D-03
  0.389300D+03 -0.462400D-02
  0.110000D+03 -0.185280D-01
  0.355700D+02 -0.573390D-01
  0.125400D+02 -0.132076D+00
  0.464400D+01 -0.172510D+00
  0.129300D+01  0.151814D+00
  0.511800D+00  0.599944D+00
  0.178700D+00  0.387462D+00
   s     1 1.00
  0.129300D+01  0.100000D+01
   s     1 1.00
  0.178700D+00  0.100000D+01
   p     5 1.00
  0.266300D+02  0.146700D-01
  0.594800D+01  0.917640D-01
  0.174200D+01  0.298683D+00
  0.555000D+00  0.498487D+00
  0.172500D+00  0.337023D+00
   p     1 1.00
  0.174200D+01  0.100000D+01
   p     1 1.00
  0.555000D+00  0.100000D+01
   d     1 1.00
  0.165400D+01  0.100000D+01
   d     1 1.00
  0.469000D+00  0.100000D+01
   f     1 1.00
  0.109300D+01  0.100000D+01
  
  2  0
   s    10 1.00
  0.823600D+04  0.531000D-03
  0.123500D+04  0.410800D-02
  0.280800D+03  0.210870D-01
  0.792700D+02  0.818530D-01
  0.255900D+02  0.234817D+00
  0.899700D+01  0.434401D+00
  0.331900D+01  0.346129D+00
  0.905900D+00  0.393780D-01
  0.364300D+00 -0.898300D-02
  0.128500D+00  0.238500D-02
   s    10 1.00
  0.823600D+04 -0.113000D-03
  0.123500D+04 -0.878000D-03
  0.280800D+03 -0.454000D-02
  0.792700D+02 -0.181330D-01
  0.255900D+02 -0.557600D-01
  0.899700D+01 -0.126895D+00
  0.331900D+01 -0.170352D+00
  0.905900D+00  0.140382D+00
  0.364300D+00  0.598684D+00
  0.128500D+00  0.395389D+00
   s     1 1.00
  0.905900D+00  0.100000D+01
   s     1 1.00
  0.364300D+00  0.100000D+01
   p     5 1.00
  0.187100D+02  0.140310D-01
  0.413300D+01  0.868660D-01
  0.120000D+01  0.290216D+00
  0.382700D+00  0.501008D+00
  0.120900D+00  0.343406D+00
   p     1 1.00
  0.382700D+00  0.100000D+01
   p     1 1.00
  0.120900D+00  0.100000D+01
   d     1 1.00
  0.109700D+01  0.100000D+01
   d     1 1.00
  0.318000D+00  0.100000D+01
   f     1 1.00
  0.761000D+00  0.100000D+01
  
  3  0
   s    10 1.00
  0.823600D+04  0.531000D-03
  0.123500D+04  0.410800D-02
  0.280800D+03  0.210870D-01
  0.792700D+02  0.818530D-01
  0.255900D+02  0.234817D+00
  0.899700D+01  0.434401D+00
  0.331900D+01  0.346129D+00
  0.905900D+00  0.393780D-01
  0.364300D+00 -0.898300D-02
  0.128500D+00  0.238500D-02
   s    10 1.00
  0.823600D+04 -0.113000D-03
  0.123500D+04 -0.878000D-03
  0.280800D+03 -0.454000D-02
  0.792700D+02 -0.181330D-01
  0.255900D+02 -0.557600D-01
  0.899700D+01 -0.126895D+00
  0.331900D+01 -0.170352D+00
  0.905900D+00  0.140382D+00
  0.364300D+00  0.598684D+00
  0.128500D+00  0.395389D+00
   s     1 1.00
  0.905900D+00  0.100000D+01
   s     1 1.00
  0.364300D+00  0.100000D+01
   p     5 1.00
  0.187100D+02  0.140310D-01
  0.413300D+01  0.868660D-01
  0.120000D+01  0.290216D+00
  0.382700D+00  0.501008D+00
  0.120900D+00  0.343406D+00
   p     1 1.00
  0.382700D+00  0.100000D+01
   p     1 1.00
  0.120900D+00  0.100000D+01
   d     1 1.00
  0.109700D+01  0.100000D+01
   d     1 1.00
  0.318000D+00  0.100000D+01
   f     1 1.00
  0.761000D+00  0.100000D+01
  
  4  0
   s    10 1.00
  0.823600D+04  0.531000D-03
  0.123500D+04  0.410800D-02
  0.280800D+03  0.210870D-01
  0.792700D+02  0.818530D-01
  0.255900D+02  0.234817D+00
  0.899700D+01  0.434401D+00
  0.331900D+01  0.346129D+00
  0.905900D+00  0.393780D-01
  0.364300D+00 -0.898300D-02
  0.128500D+00  0.238500D-02
   s    10 1.00
  0.823600D+04 -0.113000D-03
  0.123500D+04 -0.878000D-03
  0.280800D+03 -0.454000D-02
  0.792700D+02 -0.181330D-01
  0.255900D+02 -0.557600D-01
  0.899700D+01 -0.126895D+00
  0.331900D+01 -0.170352D+00
  0.905900D+00  0.140382D+00
  0.364300D+00  0.598684D+00
  0.128500D+00  0.395389D+00
   s     1 1.00
  0.905900D+00  0.100000D+01
   s     1 1.00
  0.364300D+00  0.100000D+01
   p     5 1.00
  0.187100D+02  0.140310D-01
  0.413300D+01  0.868660D-01
  0.120000D+01  0.290216D+00
  0.382700D+00  0.501008D+00
  0.120900D+00  0.343406D+00
   p     1 1.00
  0.382700D+00  0.100000D+01
   p     1 1.00
  0.120900D+00  0.100000D+01
   d     1 1.00
  0.109700D+01  0.100000D+01
   d     1 1.00
  0.318000D+00  0.100000D+01
   f     1 1.00
  0.761000D+00  0.100000D+01
  
  5  0
   s    10 1.00
  0.823600D+04  0.531000D-03
  0.123500D+04  0.410800D-02
  0.280800D+03  0.210870D-01
  0.792700D+02  0.818530D-01
  0.255900D+02  0.234817D+00
  0.899700D+01  0.434401D+00
  0.331900D+01  0.346129D+00
  0.905900D+00  0.393780D-01
  0.364300D+00 -0.898300D-02
  0.128500D+00  0.238500D-02
   s    10 1.00
  0.823600D+04 -0.113000D-03
  0.123500D+04 -0.878000D-03
  0.280800D+03 -0.454000D-02
  0.792700D+02 -0.181330D-01
  0.255900D+02 -0.557600D-01
  0.899700D+01 -0.126895D+00
  0.331900D+01 -0.170352D+00
  0.905900D+00  0.140382D+00
  0.364300D+00  0.598684D+00
  0.128500D+00  0.395389D+00
   s     1 1.00
  0.905900D+00  0.100000D+01
   s     1 1.00
  0.364300D+00  0.100000D+01
   p     5 1.00
  0.187100D+02  0.140310D-01
  0.413300D+01  0.868660D-01
  0.120000D+01  0.290216D+00
  0.382700D+00  0.501008D+00
  0.120900D+00  0.343406D+00
   p     1 1.00
  0.382700D+00  0.100000D+01
   p     1 1.00
  0.120900D+00  0.100000D+01
   d     1 1.00
  0.109700D+01  0.100000D+01
   d     1 1.00
  0.318000D+00  0.100000D+01
   f     1 1.00
  0.761000D+00  0.100000D+01
  
  6  0
   s    10 1.00
  0.823600D+04  0.531000D-03
  0.123500D+04  0.410800D-02
  0.280800D+03  0.210870D-01
  0.792700D+02  0.818530D-01
  0.255900D+02  0.234817D+00
  0.899700D+01  0.434401D+00
  0.331900D+01  0.346129D+00
  0.905900D+00  0.393780D-01
  0.364300D+00 -0.898300D-02
  0.128500D+00  0.238500D-02
   s    10 1.00
  0.823600D+04 -0.113000D-03
  0.123500D+04 -0.878000D-03
  0.280800D+03 -0.454000D-02
  0.792700D+02 -0.181330D-01
  0.255900D+02 -0.557600D-01
  0.899700D+01 -0.126895D+00
  0.331900D+01 -0.170352D+00
  0.905900D+00  0.140382D+00
  0.364300D+00  0.598684D+00
  0.128500D+00  0.395389D+00
   s     1 1.00
  0.905900D+00  0.100000D+01
   s     1 1.00
  0.364300D+00  0.100000D+01
   p     5 1.00
  0.187100D+02  0.140310D-01
  0.413300D+01  0.868660D-01
  0.120000D+01  0.290216D+00
  0.382700D+00  0.501008D+00
  0.120900D+00  0.343406D+00
   p     1 1.00
  0.382700D+00  0.100000D+01
   p     1 1.00
  0.120900D+00  0.100000D+01
   d     1 1.00
  0.109700D+01  0.100000D+01
   d     1 1.00
  0.318000D+00  0.100000D+01
   f     1 1.00
  0.761000D+00  0.100000D+01
  
  7  0
   s    10 1.00
  0.823600D+04  0.531000D-03
  0.123500D+04  0.410800D-02
  0.280800D+03  0.210870D-01
  0.792700D+02  0.818530D-01
  0.255900D+02  0.234817D+00
  0.899700D+01  0.434401D+00
  0.331900D+01  0.346129D+00
  0.905900D+00  0.393780D-01
  0.364300D+00 -0.898300D-02
  0.128500D+00  0.238500D-02
   s    10 1.00
  0.823600D+04 -0.113000D-03
  0.123500D+04 -0.878000D-03
  0.280800D+03 -0.454000D-02
  0.792700D+02 -0.181330D-01
  0.255900D+02 -0.557600D-01
  0.899700D+01 -0.126895D+00
  0.331900D+01 -0.170352D+00
  0.905900D+00  0.140382D+00
  0.364300D+00  0.598684D+00
  0.128500D+00  0.395389D+00
   s     1 1.00
  0.905900D+00  0.100000D+01
   s     1 1.00
  0.364300D+00  0.100000D+01
   p     5 1.00
  0.187100D+02  0.140310D-01
  0.413300D+01  0.868660D-01
  0.120000D+01  0.290216D+00
  0.382700D+00  0.501008D+00
  0.120900D+00  0.343406D+00
   p     1 1.00
  0.382700D+00  0.100000D+01
   p     1 1.00
  0.120900D+00  0.100000D+01
   d     1 1.00
  0.109700D+01  0.100000D+01
   d     1 1.00
  0.318000D+00  0.100000D+01
   f     1 1.00
  0.761000D+00  0.100000D+01
  
  8  0
   s     4 1.00
  0.130100D+02  0.196850D-01
  0.196200D+01  0.137977D+00
  0.444600D+00  0.478148D+00
  0.122000D+00  0.501240D+00
   s     1 1.00
  0.122000D+00  0.100000D+01
   p     1 1.00
  0.727000D+00  0.100000D+01
  
  9  0
   s     4 1.00
  0.130100D+02  0.196850D-01
  0.196200D+01  0.137977D+00
  0.444600D+00  0.478148D+00
  0.122000D+00  0.501240D+00
   s     1 1.00
  0.122000D+00  0.100000D+01
   p     1 1.00
  0.727000D+00  0.100000D+01
  
 10  0
   s     4 1.00
  0.130100D+02  0.196850D-01
  0.196200D+01  0.137977D+00
  0.444600D+00  0.478148D+00
  0.122000D+00  0.501240D+00
   s     1 1.00
  0.122000D+00  0.100000D+01
   p     1 1.00
  0.727000D+00  0.100000D+01
  
 11  0
   s     4 1.00
  0.130100D+02  0.196850D-01
  0.196200D+01  0.137977D+00
  0.444600D+00  0.478148D+00
  0.122000D+00  0.501240D+00
   s     1 1.00
  0.122000D+00  0.100000D+01
   p     1 1.00
  0.727000D+00  0.100000D+01
  
 12  0
   s     4 1.00
  0.130100D+02  0.196850D-01
  0.196200D+01  0.137977D+00
  0.444600D+00  0.478148D+00
  0.122000D+00  0.501240D+00
   s     1 1.00
  0.122000D+00  0.100000D+01
   p     1 1.00
  0.727000D+00  0.100000D+01
  
 13  0
   s     4 1.00
  0.130100D+02  0.196850D-01
  0.196200D+01  0.137977D+00
  0.444600D+00  0.478148D+00
  0.122000D+00  0.501240D+00
   s     1 1.00
  0.122000D+00  0.100000D+01
   p     1 1.00
  0.727000D+00  0.100000D+01
  
 14  0
   s     4 1.00
  0.130100D+02  0.196850D-01
  0.196200D+01  0.137977D+00
  0.444600D+00  0.478148D+00
  0.122000D+00  0.501240D+00
   s     1 1.00
  0.122000D+00  0.100000D+01
   p     1 1.00
  0.727000D+00  0.100000D+01
  
[MO]
 Sym= __1_A__
 Ene=   1.00000000000000     
 Spin= Alpha
 Occup=    1.00000000000000     
                     1  1.822590771933513E-004
                     2  0.998425133094545     
                     3  1.859072373312284E-003
                     4  1.558592980757650E-003
                     5  5.791225636442514E-003
                     6  5.814659536916581E-003
                     7 -4.721923208259417E-003
                     8  2.121555311261709E-004
                     9 -7.825520198808302E-004
                    10  3.655951457292112E-004
                    11  1.156707570373330E-005
                    12 -1.693858958576611E-003
                    13  3.176985892474423E-003
                    14 -1.473226069028102E-004
                    15 -7.025940700887430E-005
                    16 -1.819440531265147E-005
                    17 -2.514171700289781E-005
                    18  8.086484008686100E-005
                    19  1.991533978095628E-005
                    20 -3.590475392263626E-004
                    21  3.298023942288743E-005
                    22  6.895171722027960E-006
                    23  4.196407801282690E-005
                    24 -4.788123484342484E-004
                    25  1.299492338757009E-006
                    26 -9.158030444001775E-005
                    27 -6.970145882825815E-006
                    28 -6.146975181128038E-006
                    29  6.529039177194299E-006
                    30 -7.053056570433487E-005
                    31 -5.758796227073434E-005
                    32 -3.799092381158779E-004
                    33  6.799339222096735E-004
                    34  2.419769251833746E-004
                    35 -1.013207535106338E-004
                    36 -3.764546822042170E-003
                    37 -6.460612205036394E-005
                    38 -2.383603284285430E-005
                    39  8.409418413987102E-005
                    40 -5.402659715179632E-006
                    41  3.135537160457767E-005
                    42  5.006828184616690E-003
                    43  8.043553338856006E-004
                    44 -7.334490939412856E-005
                    45 -2.017956131667465E-004
                    46 -4.790273963388821E-006
                    47  7.746174724352538E-007
                    48  1.822164574208495E-004
                    49  4.471794236276288E-005
                    50  3.798458878949052E-004
                    51  4.440901809061767E-005
                    52 -5.372952222378120E-006
                    53 -1.250388176601955E-005
                    54 -3.585802967553263E-004
                    55  2.821543200158745E-006
                    56 -5.518658444460988E-005
                    57  5.858087263580037E-006
                    58  5.293680249768552E-006
                    59  1.636963411147490E-007
                    60 -3.133280832188235E-005
                    61  4.350751860797965E-005
                    62 -3.741402317755011E-004
                    63 -1.707211685540600E-003
                    64  8.066863918210500E-005
                    65  9.532830472270765E-004
                    66  4.262859951369596E-004
                    67 -1.229068156411824E-004
                    68 -5.023556092358367E-004
                    69  5.677438563525650E-004
                    70  8.024730827108758E-005
                    71  1.440698999234538E-004
                    72 -4.444984563729201E-004
                    73 -3.544290676532571E-004
                    74 -9.524530054390354E-004
                    75 -6.205749143833061E-005
                    76 -1.287332914589299E-005
                    77  1.905978134963081E-005
                    78  6.048165130166634E-005
                    79 -9.837635964237021E-006
                    80  1.669817379148556E-004
                    81  1.195212272630158E-004
                    82 -3.530008426326155E-005
                    83 -1.021333003366739E-004
                    84  5.471803676761644E-005
                    85 -1.161888121560245E-005
                    86 -6.194369841350501E-005
                    87  1.989472094787316E-005
                    88 -1.160040357390111E-005
                    89  1.263372140291680E-005
                    90 -4.828792973597614E-005
                    91 -1.071268061569676E-005
                    92 -3.714418219032667E-004
                    93 -1.723912678054647E-003
                    94  9.687777283006470E-005
                    95  8.618951473034347E-004
                    96  4.557640252215933E-004
                    97 -1.270330173368676E-004
                    98  5.121453987868131E-004
                    99  5.675451331392873E-004
                   100  8.904662103979026E-005
                   101 -8.980697512720067E-005
                   102 -5.793552851144321E-004
                   103 -3.631649910115286E-004
                   104  8.680376467447809E-004
                   105 -6.604187942605543E-005
                   106  9.458187021279078E-006
                   107 -1.937021687488887E-005
                   108  5.907516364814794E-005
                   109 -1.067578220552275E-005
                   110  1.464875959215196E-004
                   111 -1.162451561330510E-004
                   112  3.294971164583587E-005
                   113 -9.512436232551787E-005
                   114  5.593235843677010E-005
                   115  8.147915303400242E-006
                   116 -5.825570541263547E-005
                   117  2.004993165638056E-005
                   118  9.467692624815701E-006
                   119 -1.172809556551251E-005
                   120 -4.596106197227023E-005
                   121 -1.046339160327050E-005
                   122 -1.991832240158533E-004
                   123 -3.998167715333429E-004
                   124  5.608700457505632E-005
                   125  5.738345076393847E-004
                   126 -4.480306781257920E-004
                   127 -6.078277031903361E-005
                   128  1.159500864975480E-005
                   129  2.307882286682345E-004
                   130 -2.506167365942245E-005
                   131  4.587082095415269E-005
                   132  9.151915771509368E-004
                   133  1.601223209155014E-004
                   134 -2.391655862837222E-004
                   135  7.485544921916964E-006
                   136 -1.333532607900740E-006
                   137 -4.576318808311991E-006
                   138 -1.370845052781791E-006
                   139  9.716868926513565E-006
                   140  8.277264145459693E-005
                   141  1.737477795909139E-004
                   142  9.419335384169251E-006
                   143 -1.956961993107847E-004
                   144 -1.440478256872002E-005
                   145 -1.002126625322411E-005
                   146 -1.601114189532169E-005
                   147  2.571057027015120E-006
                   148 -1.576782040430967E-006
                   149 -2.609091731061226E-006
                   150 -4.628724923087459E-005
                   151 -2.172280734753179E-006
                   152 -1.956789079655739E-004
                   153 -3.809376290471165E-004
                   154  5.454728211280995E-005
                   155  5.575426549184081E-004
                   156 -4.549288339561784E-004
                   157 -5.991782975517242E-005
                   158 -1.280832497442310E-005
                   159  2.177143234111259E-004
                   160 -2.739431658229034E-005
                   161 -4.024995429497984E-005
                   162  7.996240772395314E-004
                   163  1.646813234246344E-004
                   164  3.136030460063091E-004
                   165  6.639426389100418E-006
                   166  1.027599405190340E-006
                   167  4.537908302487257E-006
                   168 -3.638255110663738E-007
                   169  1.018861223635323E-005
                   170  7.348522420958085E-005
                   171 -1.641141394388657E-004
                   172 -9.332148069895486E-006
                   173 -1.896930402294085E-004
                   174 -1.413512355801754E-005
                   175  8.988428631546625E-006
                   176 -1.624116872727951E-005
                   177  2.785346564888589E-006
                   178  1.190541259381946E-006
                   179  2.585924148847000E-006
                   180 -4.454110359785407E-005
                   181 -2.699234607868753E-006
                   182 -1.275756077122606E-004
                   183 -3.923682278014499E-004
                   184  3.100607318434322E-005
                   185  1.635596533253656E-004
                   186 -2.437342354175506E-005
                   187 -6.755528354240720E-005
                   188 -1.866824159817670E-006
                   189  1.046372147818272E-004
                   190  2.194689469944693E-005
                   191  1.011605727359004E-005
                   192 -3.800844744955360E-004
                   193 -1.106853282971184E-004
                   194  6.736403686843848E-005
                   195 -8.525443156710869E-006
                   196 -7.803871161134132E-008
                   197  1.647768147577333E-007
                   198  3.485679272269088E-006
                   199 -2.026434139387057E-006
                   200 -1.108576534931860E-004
                   201 -7.264781073954157E-006
                   202 -4.371870690340903E-007
                   203  5.413363956179616E-005
                   204  1.914122833441879E-005
                   205  5.438416449732650E-008
                   206  3.437063111792560E-006
                   207  3.221306950640501E-006
                   208  4.951943343839056E-007
                   209 -7.165843005590545E-009
                   210 -5.939606111985340E-006
                   211 -3.140297106976694E-006
                   212  1.101884188582960E-003
                   213 -1.121946863647014E-003
                   214  1.477194810686946E-004
                   215  2.579398353273343E-004
                   216  2.741486784205240E-004
                   217  1.668632683068825E-003
                   218 -1.559065219937697E-003
                   219  1.672858475241458E-004
                   220  2.854881626662264E-004
                   221 -3.176948276726575E-004
                   222 -3.899636992484154E-004
                   223 -4.309960182053788E-004
                   224 -5.827045006904229E-005
                   225  9.407717854638683E-006
                   226  4.115844389010785E-005
                   227 -3.957982066275202E-004
                   228 -3.958769343084206E-004
                   229 -5.623795496339127E-005
                   230  9.818064057865611E-006
                   231 -4.150700563104652E-005
                   232 -8.101950438349716E-005
                   233 -4.766005423086862E-004
                   234  2.506086146160130E-006
                   235 -1.971432040624160E-006
                   236 -6.610736686922966E-006
                   237 -8.513064521560156E-005
                   238 -4.800539314347991E-004
                   239  1.873484942082636E-006
                   240 -2.200850207420871E-006
                   241  6.040063993800547E-006
                   242  2.951284942408301E-006
                   243  1.168711055426006E-004
                   244  3.018455351774611E-005
                   245  1.427560440660610E-006
                   246 -2.322353129842825E-007
 Sym= __2_A__
 Ene=   2.00000000000000     
 Spin= Alpha
 Occup=    1.00000000000000     
                     1 -2.819794338486086E-005
                     2 -1.011180760174352E-004
                     3  2.236479867610490E-003
                     4 -9.215249751696091E-006
                     5  1.201895367429068E-003
                     6  2.046716693968904E-003
                     7  1.698189974838899E-004
                     8 -4.811127137719168E-005
                     9 -1.408773358079325E-004
                    10  9.598326947656768E-005
                    11 -4.635195016557859E-006
                    12  4.002885773546989E-006
                    13  3.191850741363372E-005
                    14  4.315914359715821E-006
                    15 -7.382476529203331E-005
                    16 -1.193798058112780E-006
                    17 -4.027240400777033E-007
                    18  4.206149605487816E-005
                    19 -6.113846570189144E-006
                    20  1.596280200519135E-004
                    21  1.019972671723132E-005
                    22  3.550742138226645E-006
                    23  9.918483117211038E-005
                    24 -2.151853575895976E-005
                    25 -2.689311436278165E-006
                    26  1.378126498933739E-004
                    27 -5.347794312758834E-005
                    28 -9.809877720148886E-007
                    29 -2.259365053651739E-006
                    30  1.235793250529870E-004
                    31  3.209488812888101E-005
                    32   1.00095887047110     
                    33  8.841055499474651E-003
                    34  2.777358556053966E-003
                    35 -8.218904676636531E-003
                    36 -2.699926518012649E-003
                    37  6.589680208092417E-004
                    38  9.847979064168357E-006
                    39  1.038525434085400E-003
                    40 -2.405503406673208E-004
                    41 -1.207005503080773E-005
                    42  3.507130539924331E-003
                    43 -1.278618973350478E-004
                    44  6.770215726536414E-006
                    45  2.893408113095775E-004
                    46 -2.013909406010806E-006
                    47  5.096671919297770E-007
                    48  4.250694796634174E-004
                    49 -2.708133184043532E-005
                    50 -1.048370124723333E-003
                    51  8.770426322907240E-006
                    52 -2.067662791350474E-006
                    53 -1.013583547806620E-004
                    54  4.334527630318132E-005
                    55  9.294062515048226E-008
                    56  3.145026329620253E-004
                    57 -8.209828702900520E-006
                    58 -9.260801018625722E-007
                    59 -4.911113944021767E-007
                    60  8.873440941316026E-005
                    61  1.630779010167277E-005
                    62  1.264911101056155E-002
                    63 -1.890466807599486E-003
                    64 -3.101988797064571E-004
                    65  3.150903565100949E-003
                    66 -1.145009104834449E-004
                    67  1.039172749988848E-004
                    68  2.306651047265752E-004
                    69  3.010615839690686E-005
                    70 -3.266279017682305E-007
                    71  5.302254138404819E-004
                    72  1.474043345060182E-004
                    73 -3.123021810291285E-005
                    74 -1.835796396943636E-003
                    75 -1.274967835713732E-005
                    76  2.413661096983123E-005
                    77  7.935276403468809E-006
                    78 -3.464230506357926E-005
                    79 -4.354954058674451E-006
                    80 -4.140165776368434E-004
                    81 -4.602634147692555E-004
                    82 -3.039711967019646E-006
                    83  7.568713143581254E-004
                    84 -2.298720707878499E-006
                    85  5.085225239539950E-005
                    86  1.090196191708306E-004
                    87 -3.166616488145932E-008
                    88 -1.664957900289023E-005
                    89 -6.633150360766178E-006
                    90 -3.020537404238034E-005
                    91  4.810937397029510E-006
                    92  1.288988035089331E-002
                    93 -1.891005225403871E-003
                    94 -3.099278390569122E-004
                    95  3.148020083437243E-003
                    96 -1.139159992263156E-004
                    97  1.031041731083712E-004
                    98 -2.281364775777676E-004
                    99  2.685354063360912E-005
                   100  1.385355778386098E-006
                   101 -5.277135248203378E-004
                   102  1.570389643590855E-004
                   103 -2.984323220777556E-005
                   104  1.840996606842775E-003
                   105 -1.221992533682445E-005
                   106 -2.439257411601496E-005
                   107 -7.840619914912337E-006
                   108 -3.488873331425494E-005
                   109 -4.261882965591282E-006
                   110 -4.177855778703507E-004
                   111  4.633351183979149E-004
                   112  1.528707417884460E-006
                   113  7.599840850089808E-004
                   114 -4.070937516375926E-006
                   115 -5.091785307746523E-005
                   116  1.093003100387847E-004
                   117  1.859145305140482E-007
                   118  1.615042510557705E-005
                   119  7.027053233601349E-006
                   120 -2.983199390538201E-005
                   121  4.883366235727204E-006
                   122 -1.368737183038093E-004
                   123 -6.999416482763232E-004
                   124  2.522014502089902E-004
                   125 -3.162033502549972E-004
                   126 -2.152221174595684E-004
                   127  1.557476835080494E-005
                   128 -4.027748239144819E-005
                   129  6.023369790376824E-004
                   130 -8.551333204087677E-007
                   131  3.631664822979469E-005
                   132  5.807608204473470E-004
                   133  5.474618401069337E-006
                   134  3.335154879861373E-004
                   135 -2.342690044644705E-007
                   136  4.222809400704353E-005
                   137  1.152149190283038E-007
                   138 -3.356122630138972E-005
                   139 -1.255730668585476E-006
                   140  1.925759777193209E-004
                   141 -2.549951927741715E-004
                   142  1.701533074619599E-006
                   143 -2.651271665278720E-004
                   144 -4.339799738625990E-006
                   145 -1.834686678569608E-005
                   146  1.396284984939992E-005
                   147  4.013971110212175E-008
                   148 -1.360263342923827E-005
                   149 -2.007176756149416E-006
                   150 -2.599441125083692E-005
                   151 -6.134107655759537E-007
                   152 -1.319897373126561E-004
                   153 -7.015266566278197E-004
                   154  2.519298411789264E-004
                   155 -3.159752854436835E-004
                   156 -2.141156376467674E-004
                   157  1.532164272416036E-005
                   158  4.028154110501995E-005
                   159  6.028226473862631E-004
                   160 -5.725932344297363E-007