[Molden Format]
[Atoms] AU
  N     1    7    -4.5082829200   -0.1342819900   -0.4228200100        
  C     2    6    -1.7496705200   -0.0824342700   -0.1838819400        
  C     3    6    -0.3491890900    0.2202010900   -2.3813599000        
  C     4    6    -0.4819141000   -0.3194027500    2.1144844200        
  C     5    6     2.2679837200    0.2851297300   -2.2867536700        
  C     6    6     2.1285900100   -0.2535069600    2.1993448600        
  C     7    6     3.5096699900    0.0491470500   -0.0030301700        
  H     8    1    -5.1840567300   -2.1697885400    0.7751543100        
  H     9    1    -5.2312650200    1.3935123600    1.0889586400        
  H    10    1    -1.3260875200    0.4019365300   -4.1451509600        
  H    11    1    -1.5448115400   -0.5543420500    3.8263524900        
  H    12    1     3.3318141500    0.5199799700   -3.9976458500        
  H    13    1     3.0845146800   -0.4378414600    3.9798216900        
  H    14    1     5.5368142800    0.0998677000    0.0666404700        
[5D]
[7F]
[GTO]
  1  0
   s    12 1.00
  0.114200D+05  0.172695D-04
  0.171200D+04  0.134411D-03
  0.389300D+03  0.694561D-03
  0.110000D+03  0.278531D-02
  0.355700D+02  0.863457D-02
  0.125400D+02  0.199805D-01
  0.464400D+01  0.262908D-01
  0.129300D+01 -0.243845D-01
  0.511800D+00 -0.924934D-01
  0.178700D+00 -0.339683D+00
  0.246240D-01  0.345111D+00
  0.112530D-01  0.752750D+00
   s    10 1.00
  0.114200D+05  0.523000D-03
  0.171200D+04  0.404500D-02
  0.389300D+03  0.207750D-01
  0.110000D+03  0.807269D-01
  0.355700D+02  0.233074D+00
  0.125400D+02  0.433501D+00
  0.464400D+01  0.347472D+00
  0.129300D+01  0.412620D-01
  0.511800D+00 -0.850799D-02
  0.178700D+00  0.238400D-02
   s    10 1.00
  0.114200D+05 -0.115000D-03
  0.171200D+04 -0.895000D-03
  0.389300D+03 -0.462400D-02
  0.110000D+03 -0.185280D-01
  0.355700D+02 -0.573390D-01
  0.125400D+02 -0.132076D+00
  0.464400D+01 -0.172510D+00
  0.129300D+01  0.151814D+00
  0.511800D+00  0.599944D+00
  0.178700D+00  0.387462D+00
   s     1 1.00
  0.129300D+01  0.100000D+01
   s     1 1.00
  0.178700D+00  0.100000D+01
   p     5 1.00
  0.266300D+02  0.146700D-01
  0.594800D+01  0.917640D-01
  0.174200D+01  0.298683D+00
  0.555000D+00  0.498487D+00
  0.172500D+00  0.337023D+00
   p     1 1.00
  0.174200D+01  0.100000D+01
   p     1 1.00
  0.555000D+00  0.100000D+01
   d     1 1.00
  0.165400D+01  0.100000D+01
   d     1 1.00
  0.469000D+00  0.100000D+01
   f     1 1.00
  0.109300D+01  0.100000D+01
  
  2  0
   s    10 1.00
  0.823600D+04  0.531000D-03
  0.123500D+04  0.410800D-02
  0.280800D+03  0.210870D-01
  0.792700D+02  0.818530D-01
  0.255900D+02  0.234817D+00
  0.899700D+01  0.434401D+00
  0.331900D+01  0.346129D+00
  0.905900D+00  0.393780D-01
  0.364300D+00 -0.898300D-02
  0.128500D+00  0.238500D-02
   s    10 1.00
  0.823600D+04 -0.113000D-03
  0.123500D+04 -0.878000D-03
  0.280800D+03 -0.454000D-02
  0.792700D+02 -0.181330D-01
  0.255900D+02 -0.557600D-01
  0.899700D+01 -0.126895D+00
  0.331900D+01 -0.170352D+00
  0.905900D+00  0.140382D+00
  0.364300D+00  0.598684D+00
  0.128500D+00  0.395389D+00
   s     1 1.00
  0.905900D+00  0.100000D+01
   s     1 1.00
  0.364300D+00  0.100000D+01
   p     5 1.00
  0.187100D+02  0.140310D-01
  0.413300D+01  0.868660D-01
  0.120000D+01  0.290216D+00
  0.382700D+00  0.501008D+00
  0.120900D+00  0.343406D+00
   p     1 1.00
  0.382700D+00  0.100000D+01
   p     1 1.00
  0.120900D+00  0.100000D+01
   d     1 1.00
  0.109700D+01  0.100000D+01
   d     1 1.00
  0.318000D+00  0.100000D+01
   f     1 1.00
  0.761000D+00  0.100000D+01
  
  3  0
   s    10 1.00
  0.823600D+04  0.531000D-03
  0.123500D+04  0.410800D-02
  0.280800D+03  0.210870D-01
  0.792700D+02  0.818530D-01
  0.255900D+02  0.234817D+00
  0.899700D+01  0.434401D+00
  0.331900D+01  0.346129D+00
  0.905900D+00  0.393780D-01
  0.364300D+00 -0.898300D-02
  0.128500D+00  0.238500D-02
   s    10 1.00
  0.823600D+04 -0.113000D-03
  0.123500D+04 -0.878000D-03
  0.280800D+03 -0.454000D-02
  0.792700D+02 -0.181330D-01
  0.255900D+02 -0.557600D-01
  0.899700D+01 -0.126895D+00
  0.331900D+01 -0.170352D+00
  0.905900D+00  0.140382D+00
  0.364300D+00  0.598684D+00
  0.128500D+00  0.395389D+00
   s     1 1.00
  0.905900D+00  0.100000D+01
   s     1 1.00
  0.364300D+00  0.100000D+01
   p     5 1.00
  0.187100D+02  0.140310D-01
  0.413300D+01  0.868660D-01
  0.120000D+01  0.290216D+00
  0.382700D+00  0.501008D+00
  0.120900D+00  0.343406D+00
   p     1 1.00
  0.382700D+00  0.100000D+01
   p     1 1.00
  0.120900D+00  0.100000D+01
   d     1 1.00
  0.109700D+01  0.100000D+01
   d     1 1.00
  0.318000D+00  0.100000D+01
   f     1 1.00
  0.761000D+00  0.100000D+01
  
  4  0
   s    10 1.00
  0.823600D+04  0.531000D-03
  0.123500D+04  0.410800D-02
  0.280800D+03  0.210870D-01
  0.792700D+02  0.818530D-01
  0.255900D+02  0.234817D+00
  0.899700D+01  0.434401D+00
  0.331900D+01  0.346129D+00
  0.905900D+00  0.393780D-01
  0.364300D+00 -0.898300D-02
  0.128500D+00  0.238500D-02
   s    10 1.00
  0.823600D+04 -0.113000D-03
  0.123500D+04 -0.878000D-03
  0.280800D+03 -0.454000D-02
  0.792700D+02 -0.181330D-01
  0.255900D+02 -0.557600D-01
  0.899700D+01 -0.126895D+00
  0.331900D+01 -0.170352D+00
  0.905900D+00  0.140382D+00
  0.364300D+00  0.598684D+00
  0.128500D+00  0.395389D+00
   s     1 1.00
  0.905900D+00  0.100000D+01
   s     1 1.00
  0.364300D+00  0.100000D+01
   p     5 1.00
  0.187100D+02  0.140310D-01
  0.413300D+01  0.868660D-01
  0.120000D+01  0.290216D+00
  0.382700D+00  0.501008D+00
  0.120900D+00  0.343406D+00
   p     1 1.00
  0.382700D+00  0.100000D+01
   p     1 1.00
  0.120900D+00  0.100000D+01
   d     1 1.00
  0.109700D+01  0.100000D+01
   d     1 1.00
  0.318000D+00  0.100000D+01
   f     1 1.00
  0.761000D+00  0.100000D+01
  
  5  0
   s    10 1.00
  0.823600D+04  0.531000D-03
  0.123500D+04  0.410800D-02
  0.280800D+03  0.210870D-01
  0.792700D+02  0.818530D-01
  0.255900D+02  0.234817D+00
  0.899700D+01  0.434401D+00
  0.331900D+01  0.346129D+00
  0.905900D+00  0.393780D-01
  0.364300D+00 -0.898300D-02
  0.128500D+00  0.238500D-02
   s    10 1.00
  0.823600D+04 -0.113000D-03
  0.123500D+04 -0.878000D-03
  0.280800D+03 -0.454000D-02
  0.792700D+02 -0.181330D-01
  0.255900D+02 -0.557600D-01
  0.899700D+01 -0.126895D+00
  0.331900D+01 -0.170352D+00
  0.905900D+00  0.140382D+00
  0.364300D+00  0.598684D+00
  0.128500D+00  0.395389D+00
   s     1 1.00
  0.905900D+00  0.100000D+01
   s     1 1.00
  0.364300D+00  0.100000D+01
   p     5 1.00
  0.187100D+02  0.140310D-01
  0.413300D+01  0.868660D-01
  0.120000D+01  0.290216D+00
  0.382700D+00  0.501008D+00
  0.120900D+00  0.343406D+00
   p     1 1.00
  0.382700D+00  0.100000D+01
   p     1 1.00
  0.120900D+00  0.100000D+01
   d     1 1.00
  0.109700D+01  0.100000D+01
   d     1 1.00
  0.318000D+00  0.100000D+01
   f     1 1.00
  0.761000D+00  0.100000D+01
  
  6  0
   s    10 1.00
  0.823600D+04  0.531000D-03
  0.123500D+04  0.410800D-02
  0.280800D+03  0.210870D-01
  0.792700D+02  0.818530D-01
  0.255900D+02  0.234817D+00
  0.899700D+01  0.434401D+00
  0.331900D+01  0.346129D+00
  0.905900D+00  0.393780D-01
  0.364300D+00 -0.898300D-02
  0.128500D+00  0.238500D-02
   s    10 1.00
  0.823600D+04 -0.113000D-03
  0.123500D+04 -0.878000D-03
  0.280800D+03 -0.454000D-02
  0.792700D+02 -0.181330D-01
  0.255900D+02 -0.557600D-01
  0.899700D+01 -0.126895D+00
  0.331900D+01 -0.170352D+00
  0.905900D+00  0.140382D+00
  0.364300D+00  0.598684D+00
  0.128500D+00  0.395389D+00
   s     1 1.00
  0.905900D+00  0.100000D+01
   s     1 1.00
  0.364300D+00  0.100000D+01
   p     5 1.00
  0.187100D+02  0.140310D-01
  0.413300D+01  0.868660D-01
  0.120000D+01  0.290216D+00
  0.382700D+00  0.501008D+00
  0.120900D+00  0.343406D+00
   p     1 1.00
  0.382700D+00  0.100000D+01
   p     1 1.00
  0.120900D+00  0.100000D+01
   d     1 1.00
  0.109700D+01  0.100000D+01
   d     1 1.00
  0.318000D+00  0.100000D+01
   f     1 1.00
  0.761000D+00  0.100000D+01
  
  7  0
   s    10 1.00
  0.823600D+04  0.531000D-03
  0.123500D+04  0.410800D-02
  0.280800D+03  0.210870D-01
  0.792700D+02  0.818530D-01
  0.255900D+02  0.234817D+00
  0.899700D+01  0.434401D+00
  0.331900D+01  0.346129D+00
  0.905900D+00  0.393780D-01
  0.364300D+00 -0.898300D-02
  0.128500D+00  0.238500D-02
   s    10 1.00
  0.823600D+04 -0.113000D-03
  0.123500D+04 -0.878000D-03
  0.280800D+03 -0.454000D-02
  0.792700D+02 -0.181330D-01
  0.255900D+02 -0.557600D-01
  0.899700D+01 -0.126895D+00
  0.331900D+01 -0.170352D+00
  0.905900D+00  0.140382D+00
  0.364300D+00  0.598684D+00
  0.128500D+00  0.395389D+00
   s     1 1.00
  0.905900D+00  0.100000D+01
   s     1 1.00
  0.364300D+00  0.100000D+01
   p     5 1.00
  0.187100D+02  0.140310D-01
  0.413300D+01  0.868660D-01
  0.120000D+01  0.290216D+00
  0.382700D+00  0.501008D+00
  0.120900D+00  0.343406D+00
   p     1 1.00
  0.382700D+00  0.100000D+01
   p     1 1.00
  0.120900D+00  0.100000D+01
   d     1 1.00
  0.109700D+01  0.100000D+01
   d     1 1.00
  0.318000D+00  0.100000D+01
   f     1 1.00
  0.761000D+00  0.100000D+01
  
  8  0
   s     4 1.00
  0.130100D+02  0.196850D-01
  0.196200D+01  0.137977D+00
  0.444600D+00  0.478148D+00
  0.122000D+00  0.501240D+00
   s     1 1.00
  0.122000D+00  0.100000D+01
   p     1 1.00
  0.727000D+00  0.100000D+01
  
  9  0
   s     4 1.00
  0.130100D+02  0.196850D-01
  0.196200D+01  0.137977D+00
  0.444600D+00  0.478148D+00
  0.122000D+00  0.501240D+00
   s     1 1.00
  0.122000D+00  0.100000D+01
   p     1 1.00
  0.727000D+00  0.100000D+01
  
 10  0
   s     4 1.00
  0.130100D+02  0.196850D-01
  0.196200D+01  0.137977D+00
  0.444600D+00  0.478148D+00
  0.122000D+00  0.501240D+00
   s     1 1.00
  0.122000D+00  0.100000D+01
   p     1 1.00
  0.727000D+00  0.100000D+01
  
 11  0
   s     4 1.00
  0.130100D+02  0.196850D-01
  0.196200D+01  0.137977D+00
  0.444600D+00  0.478148D+00
  0.122000D+00  0.501240D+00
   s     1 1.00
  0.122000D+00  0.100000D+01
   p     1 1.00
  0.727000D+00  0.100000D+01
  
 12  0
   s     4 1.00
  0.130100D+02  0.196850D-01
  0.196200D+01  0.137977D+00
  0.444600D+00  0.478148D+00
  0.122000D+00  0.501240D+00
   s     1 1.00
  0.122000D+00  0.100000D+01
   p     1 1.00
  0.727000D+00  0.100000D+01
  
 13  0
   s     4 1.00
  0.130100D+02  0.196850D-01
  0.196200D+01  0.137977D+00
  0.444600D+00  0.478148D+00
  0.122000D+00  0.501240D+00
   s     1 1.00
  0.122000D+00  0.100000D+01
   p     1 1.00
  0.727000D+00  0.100000D+01
  
 14  0
   s     4 1.00
  0.130100D+02  0.196850D-01
  0.196200D+01  0.137977D+00
  0.444600D+00  0.478148D+00
  0.122000D+00  0.501240D+00
   s     1 1.00
  0.122000D+00  0.100000D+01
   p     1 1.00
  0.727000D+00  0.100000D+01
  
[MO]
 Sym= __1_A__
 Ene=   1.00000000000000     
 Spin= Alpha
 Occup=    1.00000000000000     
                     1 -3.683596904351925E-004
                     2  0.998216925245646     
                     3 -2.946192569074844E-002
                     4  1.403043752845596E-003
                     5  4.973548551164749E-003
                     6  1.225792572602189E-002
                     7 -1.821530816071795E-003
                     8  2.193255948647871E-002
                     9 -1.480507932412200E-003
                    10  1.210512516949797E-004
                    11 -1.687395667524178E-003
                    12 -3.788934204798306E-003
                    13  3.552802640627815E-004
                    14 -5.623731387576637E-003
                    15  1.153799894035034E-004
                    16  3.969579784976257E-005
                    17 -1.978692786135888E-005
                    18  6.316709990827650E-005
                    19  1.569515331322612E-006
                    20  4.524764286694481E-004
                    21  8.174259231000816E-004
                    22 -6.996224297917394E-005
                    23  1.941432386202992E-004
                    24 -4.910560727079589E-005
                    25  4.559667081972957E-005
                    26 -4.934576260155663E-005
                    27  6.890360137945890E-006
                    28  4.730907174623744E-005
                    29  1.985283151563621E-005
                    30  1.455994819257491E-005
                    31 -3.435329934415328E-006
                    32 -3.563963124103205E-004
                    33  6.315745154411268E-004
                    34  2.593523749162541E-004
                    35  1.267009950831121E-004
                    36  1.149168600091465E-003
                    37  2.929372830950176E-004
                    38 -1.417648074348007E-003
                    39 -5.240544644415202E-004
                    40 -1.112920664931947E-004
                    41  7.479921005130822E-004
                    42  3.458138503241864E-003
                    43  3.161669218621069E-004
                    44 -2.001383196229578E-003
                    45  4.370567260957610E-005
                    46 -2.890361479254553E-004
                    47 -1.549138037284627E-005
                    48 -4.641679376562248E-005
                    49  2.817166344136653E-005
                    50  1.545021014483903E-004
                    51  2.662039679331688E-004
                    52  7.361471944854501E-006
                    53 -1.174432785986713E-004
                    54 -4.048201102839508E-005
                    55  9.943058373896551E-005
                    56 -9.317844189366295E-006
                    57  8.947589216231616E-006
                    58  1.105681744933393E-004
                    59  5.268408988775387E-007
                    60 -6.517427222076291E-005
                    61 -8.800340041613845E-006
                    62 -8.651476377221587E-004
                    63 -3.558211145390296E-005
                    64 -1.746242896323876E-004
                    65  3.207898662657356E-003
                    66 -3.630325707882171E-003
                    67 -1.937050903071328E-004
                    68  1.095498747693414E-003
                    69  7.555917320092362E-004
                    70 -4.662626618458983E-005
                    71  6.784071923596585E-004
                    72  1.581356319282485E-003
                    73  3.171729436506533E-004
                    74 -2.363205337264734E-003
                    75  1.080410758238657E-004
                    76 -9.391400797032286E-005
                    77 -2.758523879465609E-005
                    78  2.963769460193764E-005
                    79  1.212810327031785E-005
                    80  2.710765294622274E-004
                    81 -2.568181079155189E-004
                    82 -5.612564166309483E-005
                    83 -2.120772234772042E-005
                    84  2.704396448780561E-005
                    85 -3.008321450783807E-005
                    86 -1.837550828904934E-004
                    87 -1.573173253524792E-005
                    88  8.518623733826473E-006
                    89  2.264357231155408E-005
                    90 -7.368339706948452E-005
                    91  5.758381850886242E-006
                    92  2.969421937371189E-005
                    93 -5.902351086741618E-004
                    94  3.159571610409532E-004
                    95 -1.272437253674022E-003
                    96 -3.123736766599132E-004
                    97 -1.306642994625875E-004
                    98  1.023914033033614E-003
                    99  1.123739055613156E-004
                   100 -5.052288761303419E-005
                   101  3.328940625351109E-004
                   102 -1.737027500845784E-003
                   103 -1.087256637322234E-005
                   104 -2.680662038615475E-004
                   105 -3.460447631610255E-005
                   106 -2.377044948957322E-005
                   107  2.035699009042974E-006
                   108  3.274638178654384E-005
                   109  4.134520013284525E-006
                   110 -8.891807571444539E-005
                   111  2.372208309452190E-004
                   112  4.329199963220544E-005
                   113 -1.210596237309967E-004
                   114 -3.535164044222258E-005
                   115 -3.139212852441990E-005
                   116  3.070500633404093E-005
                   117 -7.667592645523054E-006
                   118 -9.492283653333377E-006
                   119 -5.795382971496702E-006
                   120  1.113792539578728E-005
                   121  2.331342889021486E-007
                   122 -3.087617515676083E-004
                   123 -2.010003435434434E-003
                   124  1.659795994115645E-004
                   125  6.708179465527738E-004
                   126  1.741477739740658E-003
                   127  9.504905499227915E-005
                   128 -1.943696852461364E-004
                   129  4.654492227077373E-004
                   130 -3.091503232689272E-005
                   131  3.589536619335774E-004
                   132  1.433584903905943E-003
                   133 -5.150227214243945E-005
                   134  8.528483440003693E-004
                   135  7.423270564727007E-005
                   136 -2.907781744157678E-005
                   137 -8.531686523228354E-006
                   138 -6.640982668565248E-005
                   139 -9.450150532381123E-007
                   140  2.402392091780735E-004
                   141  1.522935070036505E-004
                   142 -2.444054109030893E-006
                   143 -3.681717840297644E-004
                   144 -4.256718495219746E-005
                   145 -1.444405815760719E-005
                   146 -4.556599187015899E-005
                   147 -7.918371107304964E-006
                   148  1.139479744181217E-005
                   149 -5.042093923254757E-006
                   150 -9.585953790963424E-005
                   151  6.737587033943555E-006
                   152 -1.374723339973302E-004
                   153 -3.640003598157075E-004
                   154 -6.241589920610949E-005
                   155  6.841159913599027E-004
                   156  4.241387917792095E-004
                   157 -2.914299346439853E-005
                   158  6.165918622739119E-005
                   159 -3.247810610447511E-004
                   160 -1.226157839691101E-005
                   161  3.915680399487985E-005
                   162 -5.724982577703586E-004
                   163 -1.415558909574057E-004
                   164  9.727786359586475E-004
                   165 -4.938889562367459E-006
                   166 -1.304236217690659E-005
                   167 -9.899078557897473E-007
                   168  1.636386920877941E-005
                   169  1.823806915808974E-006
                   170 -5.456249871998660E-005
                   171  7.229436443020591E-005
                   172  2.038663208378879E-005
                   173 -5.527608975917178E-005
                   174 -1.011596815847173E-005
                   175 -5.886912181882714E-006
                   176 -1.505148942194801E-005
                   177 -1.103221589707577E-006
                   178 -7.446533590242036E-006
                   179  2.890248040260524E-006
                   180  1.553988246125867E-006
                   181  8.575651923751533E-007
                   182 -1.296325513403914E-004
                   183 -2.230565079645968E-004
                   184  2.813835563077510E-005
                   185  2.479307001004340E-004
                   186 -2.355277768843170E-004
                   187 -1.799865894135412E-005
                   188 -7.741998600363010E-005
                   189  1.474049729818813E-004
                   190 -4.415108300830743E-005
                   191  4.036714887520746E-004
                   192 -5.042674918932124E-004
                   193 -1.721788606600321E-004
                   194  1.297628964889582E-003
                   195  2.764846802029615E-005
                   196 -9.617332648690758E-006
                   197 -5.379726440788017E-006
                   198 -1.544375304551336E-005
                   199  4.353640705027477E-007
                   200 -4.352034278531994E-005
                   201 -2.691670618432849E-004
                   202 -1.505747037312430E-006
                   203  9.686850316878734E-006
                   204  3.302423136706319E-005
                   205  1.337724324612480E-006
                   206  4.597962647578250E-006
                   207 -2.773058362728814E-006
                   208  1.578910379523480E-005
                   209 -2.833036595259879E-007
                   210 -5.140727710542773E-006
                   211 -2.014144791893646E-006
                   212 -7.905112944189075E-004
                   213  1.275899876464464E-003
                   214  1.284781653339014E-004
                   215 -2.465197177056370E-005
                   216  1.202203571181672E-004
                   217 -1.162092305254565E-003
                   218  1.319587392603055E-003
                   219  1.426463428528807E-004
                   220 -8.815939145050037E-006
                   221  1.438105474909799E-004
                   222  1.346879436838917E-003
                   223 -1.689879339239111E-003
                   224 -3.805655483209493E-005
                   225 -1.589476635017827E-005
                   226  1.384103640924983E-004
                   227  7.363477195480668E-004
                   228 -2.370715651652421E-004
                   229 -1.597229925159481E-005
                   230  1.184463205428740E-005
                   231 -1.111497212477096E-004
                   232  8.749255602985850E-004
                   233 -1.767898538037840E-004
                   234 -1.889693798182137E-006
                   235 -5.934153476389277E-006
                   236  5.068585781895450E-005
                   237  8.237895486958755E-005
                   238 -5.448184708140299E-004
                   239 -1.907682513471185E-005
                   240 -1.507915624140655E-008
                   241 -8.684931055420887E-006
                   242 -3.639531974901685E-004
                   243  2.270945742078784E-004
                   244  3.814484061343396E-005
                   245  1.010487097663682E-006
                   246 -3.391272426093167E-006
 Sym= __2_A__
 Ene=   2.00000000000000     
 Spin= Alpha
 Occup=    1.00000000000000     
                     1 -2.872177738348761E-005
                     2 -4.813510674128175E-005
                     3 -9.276298856801849E-006
                     4 -2.004918879522497E-005
                     5  9.358945001201864E-004
                     6  1.623415116222450E-003
                     7 -8.798809897497054E-005
                     8  9.068955331734574E-004
                     9 -1.459356000966011E-004
                    10  2.642892903268308E-006
                    11 -9.634968435331681E-005
                    12  1.357387127200033E-004
                    13  2.096254349111125E-005
                    14 -1.367329782584274E-004
                    15 -4.794882415825670E-005
                    16  2.884381268908269E-005
                    17  4.189366524906785E-006
                    18  5.466711035482188E-005
                    19 -6.352712289483717E-007
                    20  3.810033865495566E-005
                    21 -5.155325261641598E-005
                    22 -2.027187191066618E-005
                    23  1.050938610404892E-004
                    24  1.653180538867965E-005
                    25 -2.481946173755042E-005
                    26  1.233848127079349E-004
                    27  1.035510412568570E-005
                    28 -6.229100692641839E-005
                    29 -1.100179003823132E-005
                    30  1.023886754001010E-004
                    31 -7.371325944878971E-007
                    32   1.00082000296920     
                    33  8.598261154450908E-003
                    34  2.840424718014305E-003
                    35 -8.434291422230457E-003
                    36 -1.397256820172748E-003
                    37 -8.207593285544081E-005
                    38  3.028065830858122E-005
                    39  6.847131854959250E-004
                    40  8.812362873760538E-005
                    41 -3.738158467427412E-004
                    42  2.488306954449506E-003
                    43  4.046727604268685E-005
                    44  3.659340924393071E-004
                    45  3.148802620563034E-004
                    46 -6.718812737638091E-006
                    47 -1.044999099474155E-004
                    48  3.160708459515908E-004
                    49  1.702039970168924E-005
                    50 -1.012199808940632E-003
                    51 -3.655299470307168E-004
                    52  2.146709996266908E-004
                    53 -1.073389876876142E-004
                    54  3.814677892623868E-005
                    55 -2.841981805036196E-005
                    56  2.548652374559638E-004
                    57  6.287196342205174E-006
                    58 -3.131909156704596E-005
                    59 -3.890518292924857E-005
                    60  7.287501634421721E-005
                    61 -1.517979178059129E-006
                    62  1.733889408604737E-002
                    63 -1.412356981287414E-003
                    64 -2.880942868875030E-004
                    65  2.763783280718044E-003
                    66 -3.540642670274053E-004
                    67 -6.320596640873998E-005
                    68  4.292254556521049E-004
                    69  2.150608307501263E-005
                    70 -3.762542254391588E-005
                    71  3.037593366361502E-004
                    72  2.118130356402222E-004
                    73  2.184392650770353E-004
                    74 -1.778393301702838E-003
                    75  1.221028614832714E-005
                    76  2.288103738503570E-005
                    77  3.501804428942857E-006
                    78 -4.629006733008872E-005
                    79 -5.146234320755877E-006
                    80 -5.522291749784443E-004
                    81 -3.726929423206259E-004
                    82  4.448933166779227E-006
                    83  8.086762277972222E-004
                    84  9.207158974069873E-005
                    85  3.513277208093292E-005
                    86  1.085633312919123E-004
                    87  1.938761735302579E-005
                    88 -2.918912172953738E-005
                    89 -2.610750766674365E-005
                    90 -2.624090413615060E-005
                    91  6.740956483023886E-006
                    92  1.870584454287929E-002
                    93 -1.758852546458377E-003
                    94 -3.364488408461368E-004
                    95  3.383988749073639E-003
                    96 -2.253780034710545E-004
                    97  2.463329802160400E-005
                    98 -2.953345782813377E-004
                    99 -1.164866715865119E-004
                   100  9.118788047700553E-005
                   101 -8.109545165103041E-004
                   102  3.154606940249614E-004
                   103 -1.681205147680164E-004
                   104  1.476039716118493E-003
                   105  4.761793580529508E-006
                   106 -2.093208818848192E-006
                   107  1.649298245767943E-006
                   108 -2.121483178074684E-005
                   109 -8.393254359648351E-007
                   110 -1.442166594069568E-004
                   111  5.227602085652286E-004
                   112 -2.512041814881564E-005
                   113  6.094287922880094E-004
                   114 -2.604922856776498E-005
                   115 -4.338779672055828E-005
                   116  8.391984658933099E-005
                   117 -1.468145234361615E-005
                   118  1.772543993855718E-005
                   119 -1.965612905285629E-005
                   120 -2.838697413452070E-005
                   121 -3.647986315390806E-007
                   122 -1.574584339340114E-005
                   123 -7.256444574728234E-004
                   124  2.434189528670368E-004
                   125 -4.155551310675114E-004
                   126 -7.082159542923241E-005
                   127  3.320565209865640E-006
                   128 -5.467420784668000E-005
                   129  6.283097029377718E-004
                   130  1.192155867845738E-005
                   131  5.637363769577508E-005
                   132  3.154671374630445E-004
                   133 -4.105686796337454E-005
                   134  4.267594277831740E-004
                   135  2.185954782697195E-006
                   136  3.550646011425045E-005
                   137  5.298403254254634E-006
                   138 -3.972341064066932E-005
                   139 -6.603886404728801E-006
                   140  1.866129689203439E-004
                   141 -2.876646140101790E-004
                   142 -2.036151578407760E-005
                   143 -2.213019679695938E-004
                   144  2.131903040703765E-005
                   145 -9.083372050081401E-006
                   146  1.232526628664864E-005
                   147 -1.929511251240456E-006
                   148 -2.069770532418556E-006
                   149 -5.447958083378137E-006
                   150 -1.971605622373531E-005
                   151  2.138056935009885E-006
                   152  5.433015845346247E-005
                   153 -7.492127085788342E-004
                   154  2.282567994711512E-004
                   155 -1.282191700203996E-004
                   156 -1.183367759821324E-004
                   157 -1.103383208068977E-005
                   158  3.511790150727460E-005
                   159  4.773324187257954E-004
                   160  1.450551713597649E-005