[Molden Format]
[Atoms] AU
  N     1    7     0.0000000000    0.0000000000   -4.2907334100        
  C     2    6     0.0000000000    0.0000000000   -1.7772236300        
  C     3    6     0.0000000000   -2.3389203600   -0.4111016300        
  C     4    6     0.0000000000    2.3389203600   -0.4111016300        
  C     5    6     0.0000000000   -2.2998668500    2.1639215300        
  C     6    6     0.0000000000    2.2998668500    2.1639215300        
  C     7    6     0.0000000000    0.0000000000    3.4755251800        
  H     8    1     0.0000000000   -1.9299607200   -5.4813572000        
  H     9    1     0.0000000000    1.6528040300   -5.3103747800        
  H    10    1     0.0000000000   -4.0745407300   -1.4447408500        
  H    11    1     0.0000000000    4.0745407300   -1.4447408500        
  H    12    1     0.0000000000   -4.0420632100    3.1963889500        
  H    13    1     0.0000000000    4.0420632100    3.1963889500        
  H    14    1     0.0000000000    0.0000000000    5.5020335600        
[5D]
[7F]
[GTO]
  1  0
   s    12 1.00
  0.114200D+05  0.172695D-04
  0.171200D+04  0.134411D-03
  0.389300D+03  0.694561D-03
  0.110000D+03  0.278531D-02
  0.355700D+02  0.863457D-02
  0.125400D+02  0.199805D-01
  0.464400D+01  0.262908D-01
  0.129300D+01 -0.243845D-01
  0.511800D+00 -0.924934D-01
  0.178700D+00 -0.339683D+00
  0.246240D-01  0.345111D+00
  0.112530D-01  0.752750D+00
   s    10 1.00
  0.114200D+05  0.523000D-03
  0.171200D+04  0.404500D-02
  0.389300D+03  0.207750D-01
  0.110000D+03  0.807269D-01
  0.355700D+02  0.233074D+00
  0.125400D+02  0.433501D+00
  0.464400D+01  0.347472D+00
  0.129300D+01  0.412620D-01
  0.511800D+00 -0.850799D-02
  0.178700D+00  0.238400D-02
   s    10 1.00
  0.114200D+05 -0.115000D-03
  0.171200D+04 -0.895000D-03
  0.389300D+03 -0.462400D-02
  0.110000D+03 -0.185280D-01
  0.355700D+02 -0.573390D-01
  0.125400D+02 -0.132076D+00
  0.464400D+01 -0.172510D+00
  0.129300D+01  0.151814D+00
  0.511800D+00  0.599944D+00
  0.178700D+00  0.387462D+00
   s     1 1.00
  0.129300D+01  0.100000D+01
   s     1 1.00
  0.178700D+00  0.100000D+01
   p     5 1.00
  0.266300D+02  0.146700D-01
  0.594800D+01  0.917640D-01
  0.174200D+01  0.298683D+00
  0.555000D+00  0.498487D+00
  0.172500D+00  0.337023D+00
   p     1 1.00
  0.174200D+01  0.100000D+01
   p     1 1.00
  0.555000D+00  0.100000D+01
   d     1 1.00
  0.165400D+01  0.100000D+01
   d     1 1.00
  0.469000D+00  0.100000D+01
   f     1 1.00
  0.109300D+01  0.100000D+01
  
  2  0
   s    10 1.00
  0.823600D+04  0.531000D-03
  0.123500D+04  0.410800D-02
  0.280800D+03  0.210870D-01
  0.792700D+02  0.818530D-01
  0.255900D+02  0.234817D+00
  0.899700D+01  0.434401D+00
  0.331900D+01  0.346129D+00
  0.905900D+00  0.393780D-01
  0.364300D+00 -0.898300D-02
  0.128500D+00  0.238500D-02
   s    10 1.00
  0.823600D+04 -0.113000D-03
  0.123500D+04 -0.878000D-03
  0.280800D+03 -0.454000D-02
  0.792700D+02 -0.181330D-01
  0.255900D+02 -0.557600D-01
  0.899700D+01 -0.126895D+00
  0.331900D+01 -0.170352D+00
  0.905900D+00  0.140382D+00
  0.364300D+00  0.598684D+00
  0.128500D+00  0.395389D+00
   s     1 1.00
  0.905900D+00  0.100000D+01
   s     1 1.00
  0.364300D+00  0.100000D+01
   p     5 1.00
  0.187100D+02  0.140310D-01
  0.413300D+01  0.868660D-01
  0.120000D+01  0.290216D+00
  0.382700D+00  0.501008D+00
  0.120900D+00  0.343406D+00
   p     1 1.00
  0.382700D+00  0.100000D+01
   p     1 1.00
  0.120900D+00  0.100000D+01
   d     1 1.00
  0.109700D+01  0.100000D+01
   d     1 1.00
  0.318000D+00  0.100000D+01
   f     1 1.00
  0.761000D+00  0.100000D+01
  
  3  0
   s    10 1.00
  0.823600D+04  0.531000D-03
  0.123500D+04  0.410800D-02
  0.280800D+03  0.210870D-01
  0.792700D+02  0.818530D-01
  0.255900D+02  0.234817D+00
  0.899700D+01  0.434401D+00
  0.331900D+01  0.346129D+00
  0.905900D+00  0.393780D-01
  0.364300D+00 -0.898300D-02
  0.128500D+00  0.238500D-02
   s    10 1.00
  0.823600D+04 -0.113000D-03
  0.123500D+04 -0.878000D-03
  0.280800D+03 -0.454000D-02
  0.792700D+02 -0.181330D-01
  0.255900D+02 -0.557600D-01
  0.899700D+01 -0.126895D+00
  0.331900D+01 -0.170352D+00
  0.905900D+00  0.140382D+00
  0.364300D+00  0.598684D+00
  0.128500D+00  0.395389D+00
   s     1 1.00
  0.905900D+00  0.100000D+01
   s     1 1.00
  0.364300D+00  0.100000D+01
   p     5 1.00
  0.187100D+02  0.140310D-01
  0.413300D+01  0.868660D-01
  0.120000D+01  0.290216D+00
  0.382700D+00  0.501008D+00
  0.120900D+00  0.343406D+00
   p     1 1.00
  0.382700D+00  0.100000D+01
   p     1 1.00
  0.120900D+00  0.100000D+01
   d     1 1.00
  0.109700D+01  0.100000D+01
   d     1 1.00
  0.318000D+00  0.100000D+01
   f     1 1.00
  0.761000D+00  0.100000D+01
  
  4  0
   s    10 1.00
  0.823600D+04  0.531000D-03
  0.123500D+04  0.410800D-02
  0.280800D+03  0.210870D-01
  0.792700D+02  0.818530D-01
  0.255900D+02  0.234817D+00
  0.899700D+01  0.434401D+00
  0.331900D+01  0.346129D+00
  0.905900D+00  0.393780D-01
  0.364300D+00 -0.898300D-02
  0.128500D+00  0.238500D-02
   s    10 1.00
  0.823600D+04 -0.113000D-03
  0.123500D+04 -0.878000D-03
  0.280800D+03 -0.454000D-02
  0.792700D+02 -0.181330D-01
  0.255900D+02 -0.557600D-01
  0.899700D+01 -0.126895D+00
  0.331900D+01 -0.170352D+00
  0.905900D+00  0.140382D+00
  0.364300D+00  0.598684D+00
  0.128500D+00  0.395389D+00
   s     1 1.00
  0.905900D+00  0.100000D+01
   s     1 1.00
  0.364300D+00  0.100000D+01
   p     5 1.00
  0.187100D+02  0.140310D-01
  0.413300D+01  0.868660D-01
  0.120000D+01  0.290216D+00
  0.382700D+00  0.501008D+00
  0.120900D+00  0.343406D+00
   p     1 1.00
  0.382700D+00  0.100000D+01
   p     1 1.00
  0.120900D+00  0.100000D+01
   d     1 1.00
  0.109700D+01  0.100000D+01
   d     1 1.00
  0.318000D+00  0.100000D+01
   f     1 1.00
  0.761000D+00  0.100000D+01
  
  5  0
   s    10 1.00
  0.823600D+04  0.531000D-03
  0.123500D+04  0.410800D-02
  0.280800D+03  0.210870D-01
  0.792700D+02  0.818530D-01
  0.255900D+02  0.234817D+00
  0.899700D+01  0.434401D+00
  0.331900D+01  0.346129D+00
  0.905900D+00  0.393780D-01
  0.364300D+00 -0.898300D-02
  0.128500D+00  0.238500D-02
   s    10 1.00
  0.823600D+04 -0.113000D-03
  0.123500D+04 -0.878000D-03
  0.280800D+03 -0.454000D-02
  0.792700D+02 -0.181330D-01
  0.255900D+02 -0.557600D-01
  0.899700D+01 -0.126895D+00
  0.331900D+01 -0.170352D+00
  0.905900D+00  0.140382D+00
  0.364300D+00  0.598684D+00
  0.128500D+00  0.395389D+00
   s     1 1.00
  0.905900D+00  0.100000D+01
   s     1 1.00
  0.364300D+00  0.100000D+01
   p     5 1.00
  0.187100D+02  0.140310D-01
  0.413300D+01  0.868660D-01
  0.120000D+01  0.290216D+00
  0.382700D+00  0.501008D+00
  0.120900D+00  0.343406D+00
   p     1 1.00
  0.382700D+00  0.100000D+01
   p     1 1.00
  0.120900D+00  0.100000D+01
   d     1 1.00
  0.109700D+01  0.100000D+01
   d     1 1.00
  0.318000D+00  0.100000D+01
   f     1 1.00
  0.761000D+00  0.100000D+01
  
  6  0
   s    10 1.00
  0.823600D+04  0.531000D-03
  0.123500D+04  0.410800D-02
  0.280800D+03  0.210870D-01
  0.792700D+02  0.818530D-01
  0.255900D+02  0.234817D+00
  0.899700D+01  0.434401D+00
  0.331900D+01  0.346129D+00
  0.905900D+00  0.393780D-01
  0.364300D+00 -0.898300D-02
  0.128500D+00  0.238500D-02
   s    10 1.00
  0.823600D+04 -0.113000D-03
  0.123500D+04 -0.878000D-03
  0.280800D+03 -0.454000D-02
  0.792700D+02 -0.181330D-01
  0.255900D+02 -0.557600D-01
  0.899700D+01 -0.126895D+00
  0.331900D+01 -0.170352D+00
  0.905900D+00  0.140382D+00
  0.364300D+00  0.598684D+00
  0.128500D+00  0.395389D+00
   s     1 1.00
  0.905900D+00  0.100000D+01
   s     1 1.00
  0.364300D+00  0.100000D+01
   p     5 1.00
  0.187100D+02  0.140310D-01
  0.413300D+01  0.868660D-01
  0.120000D+01  0.290216D+00
  0.382700D+00  0.501008D+00
  0.120900D+00  0.343406D+00
   p     1 1.00
  0.382700D+00  0.100000D+01
   p     1 1.00
  0.120900D+00  0.100000D+01
   d     1 1.00
  0.109700D+01  0.100000D+01
   d     1 1.00
  0.318000D+00  0.100000D+01
   f     1 1.00
  0.761000D+00  0.100000D+01
  
  7  0
   s    10 1.00
  0.823600D+04  0.531000D-03
  0.123500D+04  0.410800D-02
  0.280800D+03  0.210870D-01
  0.792700D+02  0.818530D-01
  0.255900D+02  0.234817D+00
  0.899700D+01  0.434401D+00
  0.331900D+01  0.346129D+00
  0.905900D+00  0.393780D-01
  0.364300D+00 -0.898300D-02
  0.128500D+00  0.238500D-02
   s    10 1.00
  0.823600D+04 -0.113000D-03
  0.123500D+04 -0.878000D-03
  0.280800D+03 -0.454000D-02
  0.792700D+02 -0.181330D-01
  0.255900D+02 -0.557600D-01
  0.899700D+01 -0.126895D+00
  0.331900D+01 -0.170352D+00
  0.905900D+00  0.140382D+00
  0.364300D+00  0.598684D+00
  0.128500D+00  0.395389D+00
   s     1 1.00
  0.905900D+00  0.100000D+01
   s     1 1.00
  0.364300D+00  0.100000D+01
   p     5 1.00
  0.187100D+02  0.140310D-01
  0.413300D+01  0.868660D-01
  0.120000D+01  0.290216D+00
  0.382700D+00  0.501008D+00
  0.120900D+00  0.343406D+00
   p     1 1.00
  0.382700D+00  0.100000D+01
   p     1 1.00
  0.120900D+00  0.100000D+01
   d     1 1.00
  0.109700D+01  0.100000D+01
   d     1 1.00
  0.318000D+00  0.100000D+01
   f     1 1.00
  0.761000D+00  0.100000D+01
  
  8  0
   s     4 1.00
  0.130100D+02  0.196850D-01
  0.196200D+01  0.137977D+00
  0.444600D+00  0.478148D+00
  0.122000D+00  0.501240D+00
   s     1 1.00
  0.122000D+00  0.100000D+01
   p     1 1.00
  0.727000D+00  0.100000D+01
  
  9  0
   s     4 1.00
  0.130100D+02  0.196850D-01
  0.196200D+01  0.137977D+00
  0.444600D+00  0.478148D+00
  0.122000D+00  0.501240D+00
   s     1 1.00
  0.122000D+00  0.100000D+01
   p     1 1.00
  0.727000D+00  0.100000D+01
  
 10  0
   s     4 1.00
  0.130100D+02  0.196850D-01
  0.196200D+01  0.137977D+00
  0.444600D+00  0.478148D+00
  0.122000D+00  0.501240D+00
   s     1 1.00
  0.122000D+00  0.100000D+01
   p     1 1.00
  0.727000D+00  0.100000D+01
  
 11  0
   s     4 1.00
  0.130100D+02  0.196850D-01
  0.196200D+01  0.137977D+00
  0.444600D+00  0.478148D+00
  0.122000D+00  0.501240D+00
   s     1 1.00
  0.122000D+00  0.100000D+01
   p     1 1.00
  0.727000D+00  0.100000D+01
  
 12  0
   s     4 1.00
  0.130100D+02  0.196850D-01
  0.196200D+01  0.137977D+00
  0.444600D+00  0.478148D+00
  0.122000D+00  0.501240D+00
   s     1 1.00
  0.122000D+00  0.100000D+01
   p     1 1.00
  0.727000D+00  0.100000D+01
  
 13  0
   s     4 1.00
  0.130100D+02  0.196850D-01
  0.196200D+01  0.137977D+00
  0.444600D+00  0.478148D+00
  0.122000D+00  0.501240D+00
   s     1 1.00
  0.122000D+00  0.100000D+01
   p     1 1.00
  0.727000D+00  0.100000D+01
  
 14  0
   s     4 1.00
  0.130100D+02  0.196850D-01
  0.196200D+01  0.137977D+00
  0.444600D+00  0.478148D+00
  0.122000D+00  0.501240D+00
   s     1 1.00
  0.122000D+00  0.100000D+01
   p     1 1.00
  0.727000D+00  0.100000D+01
  
[MO]
 Sym= __1_a__
 Ene=  0.000000000000000E+000
 Spin= Alpha
 Occup=    2.00000000000000     
                     1  1.136726736842570E-005
                     2  0.998307668160367     
                     3  7.461095418257100E-003
                     4  1.838175101184850E-003
                     5  2.078066336990370E-003
                     6  7.597612948426489E-012
                     7  4.602747977973220E-004
                     8  4.736127840127090E-003
                     9 -7.787418094243630E-012
                    10  1.236507788308470E-004
                    11 -8.202362470510091E-005
                    12  1.021713794704410E-013
                    13 -1.143812443370540E-004
                    14 -3.448619972419470E-004
                    15  2.677887569815393E-004
                    16  6.555973349141070E-013
                    17 -6.902643448200760E-005
                    18 -4.914735900375560E-005
                    19 -2.957539022064110E-014
                    20  1.132831947313619E-004
                    21  2.411966132812310E-012
                    22  4.480903793974170E-005
                    23  5.265403339587000E-004
                    24 -2.763714942919790E-012
                    25 -1.504565169081568E-004
                    26 -4.876788926169648E-013
                    27  7.729057278142864E-006
                    28  4.945255582139800E-005
                    29  9.798965817990059E-013
                    30  1.571366438454195E-012
                    31 -2.094056079804226E-005
                    32 -3.447027897149760E-004
                    33  2.514307003478050E-003
                    34  1.334107947484610E-004
                    35 -2.037961904345470E-004
                    36 -6.996617760534640E-012
                    37 -5.091979279246900E-005
                    38 -6.588047977511940E-003
                    39  9.698495827079780E-012
                    40  2.140092512450210E-005
                    41  2.484831729151930E-004
                    42 -8.480563138276560E-012
                    43 -1.526649576550700E-004
                    44  4.601388130534260E-003
                    45  3.303452470530575E-004
                    46  4.952625884453970E-013
                    47 -1.575998958456740E-005
                    48  1.296462852261344E-004
                    49 -1.937801872735650E-012
                    50  1.302964767554886E-004
                    51  6.628455295472500E-012
                    52  4.417497250142830E-005
                    53 -3.953995888137400E-004
                    54  1.436788395604180E-011
                    55 -9.724242950128431E-005
                    56 -1.423376266413947E-012
                    57  1.036566565954548E-005
                    58  6.608835044170820E-005
                    59 -5.373140474210750E-014
                    60  2.558022975949402E-012
                    61  1.315412270738532E-006
                    62 -2.123051949469330E-004
                    63 -1.531452761133790E-003
                    64  4.303898062859970E-005
                    65  6.350247767570630E-004
                    66 -1.083506333620730E-011
                    67 -7.675629751770680E-004
                    68  8.493138684585350E-004
                    69  7.668519461322079E-012
                    70  5.770316438196620E-006
                    71  5.959658006550160E-004
                    72  1.936454501641360E-011
                    73 -7.809430492984130E-004
                    74 -5.480681527952420E-005
                    75  8.540884378658404E-005
                    76 -2.277287144051490E-012
                    77 -7.917301016711951E-006
                    78  3.354877644939740E-005
                    79 -1.133083550751550E-012
                    80 -9.406231460910491E-006
                    81  1.660188265857760E-013
                    82  1.633133217495940E-004
                    83 -2.255860064673880E-005
                    84  1.412337078735540E-012
                    85 -9.563687046560082E-005
                    86  2.651099069260101E-012
                    87 -3.202125060138788E-005
                    88  1.998441664292168E-005
                    89 -4.667207948079920E-012
                    90 -8.673849012712540E-013
                    91  1.198226981569732E-005
                    92 -2.253956594069150E-004
                    93 -1.693264480102330E-003
                    94  6.642053024623260E-005
                    95  5.630451978339631E-004
                    96  9.736190300269451E-012
                    97  8.206672472256200E-004
                    98  9.679216426999920E-004
                    99 -1.492671704260830E-011
                   100  5.513632431659580E-005
                   101  5.914790909602550E-004
                   102  4.358488237350970E-013
                   103  5.699230612215180E-004
                   104 -3.414844364127340E-004
                   105  8.871753193286841E-005
                   106  1.222362286203520E-012
                   107  3.782544899569420E-006
                   108  4.119043890061720E-005
                   109 -4.574365439367340E-013
                   110  1.463212746987470E-005
                   111  4.953983291581380E-012
                   112 -1.527760394693500E-004
                   113 -1.300591001865710E-005
                   114  9.945496076607550E-012
                   115 -8.991516893688292E-005
                   116 -1.933904131415838E-012
                   117  2.386428001100452E-005
                   118  2.010428765438060E-005
                   119 -7.706461993729680E-012
                   120 -6.258009396559076E-012
                   121 -1.337201257596459E-005
                   122 -1.530400801547550E-004
                   123 -7.012923504959749E-005
                   124  1.084782571024000E-004
                   125  1.599195020418370E-004
                   126 -3.448074887294420E-013
                   127  3.230959361473060E-005
                   128 -7.091682673117260E-004
                   129  6.381017390895210E-013
                   130  5.197354670800010E-005
                   131  3.577269489553760E-004
                   132 -7.094968319136730E-012
                   133 -9.272821903101840E-005
                   134  8.553097707531800E-004
                   135 -1.886248104044078E-005
                   136  2.362476454200470E-012
                   137  3.366044713279450E-007
                   138 -1.492142810192152E-007
                   139 -2.695237903784670E-013
                   140 -2.034916113296251E-004
                   141  4.115893850644100E-012
                   142  1.634408052123170E-004
                   143  8.662838344117340E-006
                   144  5.503493863517420E-012
                   145 -3.998800690388040E-005
                   146 -1.131068088917781E-013
                   147  2.716047807630324E-006
                   148 -1.115821158918876E-005
                   149  2.289709128631430E-012
                   150  1.974636475731422E-012
                   151 -4.523704516963372E-006
                   152 -1.520762928655910E-004
                   153 -2.934373541638150E-005
                   154  1.090578401598410E-004
                   155  1.421461105744100E-004
                   156  1.257064895765600E-011
                   157 -3.476203033120750E-005
                   158 -7.534117416159820E-004
                   159 -1.106965180759080E-011
                   160 -4.272973180380240E-005
                   161  3.399002569299020E-004
                   162 -8.871151871195670E-012
                   163  2.760522637307220E-004
                   164  6.137406102205630E-004
                   165 -1.708475370991537E-005
                   166 -3.293979647172560E-012
                   167 -2.077028041832080E-006
                   168 -5.220914423083240E-007
                   169  7.726805335672900E-013
                   170 -1.861667121763083E-004
                   171  2.858458464116760E-012
                   172 -1.503338232465490E-004
                   173  2.339836387606280E-005
                   174  5.228281142717600E-012
                   175 -3.872272291648094E-005
                   176  4.001957243867754E-013
                   177 -2.623160132138357E-006
                   178 -8.931278328746880E-006
                   179  2.348430595049710E-012
                   180 -9.152307618958657E-013
                   181  3.489712712121541E-006
                   182 -1.195168342682200E-004
                   183 -3.174271759804760E-004
                   184  3.606262660727650E-005
                   185  1.401036628357830E-004
                   186 -5.327885323562290E-012
                   187 -3.970316497955580E-006
                   188 -4.597417395039860E-005
                   189  5.279141384619560E-012
                   190  1.806652748964650E-005
                   191  2.707366102707150E-005
                   192  2.297307976083640E-012
                   193  1.476544795658350E-004
                   194  1.386737599819830E-005
                   195  1.830690223874616E-005
                   196  3.483907138432670E-012
                   197 -5.277223760325010E-007
                   198  8.470311177220159E-006
                   199 -4.956839121610960E-013
                   200  5.563943545673818E-005
                   201 -5.404054852180380E-012
                   202 -1.343970281620010E-005
                   203  5.501610767875520E-005
                   204  9.474182245584951E-012
                   205 -9.820116908689397E-006
                   206 -6.802579007611489E-014
                   207  6.611173915102134E-007
                   208  6.992991108155420E-007
                   209 -2.963394919391630E-013
                   210 -5.027636268940760E-013
                   211 -5.511434084708963E-007
                   212  1.711731433225170E-003
                   213 -1.168629343435220E-003
                   214 -1.633425724329070E-012
                   215  3.941134008245180E-004
                   216  3.104197222213520E-004
                   217  3.514964050135040E-003
                   218 -2.170995727566170E-003
                   219 -3.548162827263220E-013
                   220 -4.309913627291220E-004
                   221  3.585936199983680E-004
                   222 -5.534640627641340E-004
                   223 -2.828266990831660E-004
                   224 -1.378963515614130E-013
                   225 -1.272147954960000E-005
                   226 -4.124151432871210E-005
                   227 -6.045950969370380E-004
                   228 -1.741431387529870E-004
                   229 -2.973477214799580E-012
                   230  1.386131600640570E-005
                   231 -3.935975558625490E-005
                   232 -2.030186841783720E-004
                   233 -4.176306427333630E-004
                   234  3.591088597991860E-013
                   235 -4.555001948477670E-006
                   236  4.343134646402520E-006
                   237 -2.159429998272270E-004
                   238 -4.350719355739250E-004
                   239  3.458553056067260E-014
                   240  3.304103917697080E-006
                   241  2.223401626318540E-006
                   242  6.105808572059161E-005
                   243 -1.145787654058430E-004
                   244  2.340602650214890E-013
                   245 -5.176960718678380E-007
                   246  1.462934643960640E-005
 Sym= __2_a__
 Ene=  0.000000000000000E+000
 Spin= Alpha
 Occup=    2.00000000000000     
                     1 -5.084437085282680E-005
                     2 -2.432717422771130E-004
                     3  2.497293019065790E-003
                     4  1.171921592010450E-004
                     5  1.263721087611750E-003
                     6  6.947521575695430E-013
                     7 -9.937362373591049E-005
                     8  3.058295393638920E-003
                     9  9.548883964716820E-013
                    10 -2.213357643832090E-005
                    11 -6.667484646769970E-005
                    12 -3.305975977796630E-012
                    13  5.840675929717940E-005
                    14 -5.085231389648470E-004
                    15  4.224646213621142E-005
                    16  3.836555337170150E-013
                    17 -7.107876040770590E-006
                    18  6.545774282812500E-005
                    19 -1.192774336534810E-012
                    20 -2.205496542621299E-004
                    21 -2.129028719859260E-012
                    22  3.468132496077470E-005
                    23 -2.908075066742620E-004
                    24  4.219093213005390E-012
                    25  1.815298909357248E-004
                    26 -1.552722330221601E-012
                    27 -1.070050219644459E-005
                    28 -5.026632619822400E-006
                    29  8.635032972338780E-013
                    30  1.718400211985418E-013
                    31 -7.641742462658493E-006
                    32   1.00105610830502     
                    33  9.322505315271051E-003
                    34  2.641998084017060E-003
                    35 -7.822176321552720E-003
                    36 -4.693139320170900E-012
                    37 -6.888712809854320E-006
                    38 -4.195765932483100E-003
                    39  3.934354816842090E-012
                    40 -9.680154044329950E-006
                    41  1.005594392345160E-003
                    42  2.067586721019110E-011
                    43  4.521709399890920E-005
                    44  4.436691888929020E-003
                    45  4.770988802138961E-004
                    46 -9.873861436198700E-013
                    47 -6.085599630179300E-006
                    48 -4.263767875058380E-004
                    49 -2.311288561748250E-012
                    50  5.499605451039865E-004
                    51  5.220730852789920E-012
                    52  5.382867404015520E-005
                    53  9.224259612103080E-004
                    54  3.902273007139410E-013
                    55  3.844476205462333E-004
                    56  2.522485063740749E-012
                    57 -5.407875419859648E-006
                    58 -2.020537528074000E-004
                    59  3.114480002543900E-012
                    60 -8.461982051964032E-013
                    61  3.716397796848639E-007
                    62  7.290265128655100E-003
                    63 -2.062768476324880E-003
                    64 -2.739403757481100E-004
                    65  3.033631440008850E-003
                    66 -8.875447499267880E-012
                    67  7.403521056197040E-005
                    68  1.588470960524300E-005
                    69  2.134952433091110E-011
                    70  6.207309651196840E-004
                    71  2.342911810942990E-005
                    72 -9.590718840831970E-012
                    73 -2.070413159787440E-003
                    74  8.024745778937279E-005
                    75 -1.273116214222192E-005
                    76  5.196447629445990E-012
                    77  1.169666308392310E-005
                    78  2.993495131739580E-005
                    79  6.433464981679920E-013
                    80  7.409777990579258E-004
                    81  7.701466388797740E-012
                    82 -4.039444404253710E-004
                    83 -2.114583953412300E-005
                    84 -5.813309824541010E-012
                    85  7.350321053918165E-005
                    86  5.024735938222760E-012
                    87  4.552442681160294E-005
                    88 -1.285189767268184E-004
                    89 -2.736050710871420E-013
                    90  1.427161234899968E-012
                    91  5.084363724478727E-005
                    92  7.364085361291640E-003
                    93 -2.082576923173800E-003
                    94 -2.754089304176020E-004
                    95  3.020294257203730E-003
                    96  6.760852173707810E-013
                    97 -6.754872618572430E-005
                    98  1.992138133578320E-005
                    99 -3.941195943389990E-012
                   100 -5.900222439382460E-004
                   101  3.240445460390700E-005
                   102 -1.598532406439270E-011
                   103  2.105908512437380E-003
                   104  1.239089833203030E-004
                   105 -1.478703247546102E-005
                   106 -5.232039511585860E-012
                   107 -1.438969549305840E-005
                   108  3.003883297568300E-005
                   109  1.550151740943730E-012
                   110  7.733710794476184E-004
                   111 -1.883692615245840E-012
                   112  4.141961912998240E-004
                   113 -1.170584071123502E-005
                   114  9.094675779448819E-012
                   115  7.366512520492119E-005
                   116 -2.251082483749774E-012
                   117 -4.585628562589717E-005
                   118 -1.271200056015984E-004
                   119 -4.298629534590550E-013
                   120 -1.079975714124689E-012
                   121 -4.825768877129886E-005
                   122 -2.296870628252720E-004
                   123 -7.391339244671100E-004
                   124  2.242814148613560E-004
                   125 -1.051694772324570E-004
                   126  1.556810742702230E-012
                   127 -1.444885071070410E-005
                   128 -2.748759173157770E-004
                   129 -6.605974743430360E-012
                   130 -2.486621021505550E-005
                   131  5.285839524904570E-004
                   132  1.678217181859560E-012
                   133  3.144364644496790E-004
                   134  7.315149267165630E-004
                   135 -1.356863267241723E-005
                   136 -2.520967642190700E-012
                   137  5.207772541490220E-005
                   138  1.436586958028706E-005
                   139 -4.580638625348740E-012
                   140 -2.854817307757673E-004
                   141  1.649155519334920E-011
                   142 -2.116469196641240E-004
                   143 -1.130890009308766E-005
                   144  8.290078419911441E-012
                   145  1.015032765032129E-006
                   146 -5.320813593757344E-012
                   147 -4.251581566208952E-005
                   148 -3.994283395421100E-005
                   149  6.666624262658380E-013
                   150 -1.639348784353431E-012
                   151 -5.416789224963004E-006
                   152 -2.250248071677580E-004
                   153 -7.434514052795890E-004
                   154  2.265239804590250E-004
                   155 -1.206262726210770E-004
                   156  5.009820278263340E-012
                   157  1.587371292532900E-005
                   158 -2.749000719681260E-004
                   159 -7.160098599341570E-013
                   160  1.010495600607580E-005