[Molden Format]
[Atoms] AU
  N     1    7    -4.4767208000    0.1045494800   -0.2138294300        
  C     2    6    -1.7670706800   -0.0298855000   -0.0952771300        
  C     3    6    -0.3859437300    0.0926647900   -2.3367970500        
  C     4    6    -0.4691960000   -0.1176598800    2.1916293300        
  C     5    6     2.2250302000    0.0770696700   -2.2794446500        
  C     6    6     2.1509877400   -0.0826550700    2.2324138600        
  C     7    6     3.5085872600    0.0022118400    0.0033093800        
  H     8    1    -5.1772656300   -1.5465849800   -0.9584157500        
  H     9    1    -5.1565153200    0.1818989700    1.6018839500        
  H    10    1    -1.3703549900    0.2136872800   -4.1042062000        
  H    11    1    -1.5027727200   -0.2257846200    3.9337648400        
  H    12    1     3.2639439600    0.1576456600   -4.0204597000        
  H    13    1     3.1227698800   -0.1430848100    4.0127919900        
  H    14    1     5.5365942200    0.0139503000    0.0377459600        
[5D]
[7F]
[GTO]
  1  0
   s    12 1.00
  0.114200D+05  0.172695D-04
  0.171200D+04  0.134411D-03
  0.389300D+03  0.694561D-03
  0.110000D+03  0.278531D-02
  0.355700D+02  0.863457D-02
  0.125400D+02  0.199805D-01
  0.464400D+01  0.262908D-01
  0.129300D+01 -0.243845D-01
  0.511800D+00 -0.924934D-01
  0.178700D+00 -0.339683D+00
  0.246240D-01  0.345111D+00
  0.112530D-01  0.752750D+00
   s    10 1.00
  0.114200D+05  0.523000D-03
  0.171200D+04  0.404500D-02
  0.389300D+03  0.207750D-01
  0.110000D+03  0.807269D-01
  0.355700D+02  0.233074D+00
  0.125400D+02  0.433501D+00
  0.464400D+01  0.347472D+00
  0.129300D+01  0.412620D-01
  0.511800D+00 -0.850799D-02
  0.178700D+00  0.238400D-02
   s    10 1.00
  0.114200D+05 -0.115000D-03
  0.171200D+04 -0.895000D-03
  0.389300D+03 -0.462400D-02
  0.110000D+03 -0.185280D-01
  0.355700D+02 -0.573390D-01
  0.125400D+02 -0.132076D+00
  0.464400D+01 -0.172510D+00
  0.129300D+01  0.151814D+00
  0.511800D+00  0.599944D+00
  0.178700D+00  0.387462D+00
   s     1 1.00
  0.129300D+01  0.100000D+01
   s     1 1.00
  0.178700D+00  0.100000D+01
   p     5 1.00
  0.266300D+02  0.146700D-01
  0.594800D+01  0.917640D-01
  0.174200D+01  0.298683D+00
  0.555000D+00  0.498487D+00
  0.172500D+00  0.337023D+00
   p     1 1.00
  0.174200D+01  0.100000D+01
   p     1 1.00
  0.555000D+00  0.100000D+01
   d     1 1.00
  0.165400D+01  0.100000D+01
   d     1 1.00
  0.469000D+00  0.100000D+01
   f     1 1.00
  0.109300D+01  0.100000D+01
  
  2  0
   s    10 1.00
  0.823600D+04  0.531000D-03
  0.123500D+04  0.410800D-02
  0.280800D+03  0.210870D-01
  0.792700D+02  0.818530D-01
  0.255900D+02  0.234817D+00
  0.899700D+01  0.434401D+00
  0.331900D+01  0.346129D+00
  0.905900D+00  0.393780D-01
  0.364300D+00 -0.898300D-02
  0.128500D+00  0.238500D-02
   s    10 1.00
  0.823600D+04 -0.113000D-03
  0.123500D+04 -0.878000D-03
  0.280800D+03 -0.454000D-02
  0.792700D+02 -0.181330D-01
  0.255900D+02 -0.557600D-01
  0.899700D+01 -0.126895D+00
  0.331900D+01 -0.170352D+00
  0.905900D+00  0.140382D+00
  0.364300D+00  0.598684D+00
  0.128500D+00  0.395389D+00
   s     1 1.00
  0.905900D+00  0.100000D+01
   s     1 1.00
  0.364300D+00  0.100000D+01
   p     5 1.00
  0.187100D+02  0.140310D-01
  0.413300D+01  0.868660D-01
  0.120000D+01  0.290216D+00
  0.382700D+00  0.501008D+00
  0.120900D+00  0.343406D+00
   p     1 1.00
  0.382700D+00  0.100000D+01
   p     1 1.00
  0.120900D+00  0.100000D+01
   d     1 1.00
  0.109700D+01  0.100000D+01
   d     1 1.00
  0.318000D+00  0.100000D+01
   f     1 1.00
  0.761000D+00  0.100000D+01
  
  3  0
   s    10 1.00
  0.823600D+04  0.531000D-03
  0.123500D+04  0.410800D-02
  0.280800D+03  0.210870D-01
  0.792700D+02  0.818530D-01
  0.255900D+02  0.234817D+00
  0.899700D+01  0.434401D+00
  0.331900D+01  0.346129D+00
  0.905900D+00  0.393780D-01
  0.364300D+00 -0.898300D-02
  0.128500D+00  0.238500D-02
   s    10 1.00
  0.823600D+04 -0.113000D-03
  0.123500D+04 -0.878000D-03
  0.280800D+03 -0.454000D-02
  0.792700D+02 -0.181330D-01
  0.255900D+02 -0.557600D-01
  0.899700D+01 -0.126895D+00
  0.331900D+01 -0.170352D+00
  0.905900D+00  0.140382D+00
  0.364300D+00  0.598684D+00
  0.128500D+00  0.395389D+00
   s     1 1.00
  0.905900D+00  0.100000D+01
   s     1 1.00
  0.364300D+00  0.100000D+01
   p     5 1.00
  0.187100D+02  0.140310D-01
  0.413300D+01  0.868660D-01
  0.120000D+01  0.290216D+00
  0.382700D+00  0.501008D+00
  0.120900D+00  0.343406D+00
   p     1 1.00
  0.382700D+00  0.100000D+01
   p     1 1.00
  0.120900D+00  0.100000D+01
   d     1 1.00
  0.109700D+01  0.100000D+01
   d     1 1.00
  0.318000D+00  0.100000D+01
   f     1 1.00
  0.761000D+00  0.100000D+01
  
  4  0
   s    10 1.00
  0.823600D+04  0.531000D-03
  0.123500D+04  0.410800D-02
  0.280800D+03  0.210870D-01
  0.792700D+02  0.818530D-01
  0.255900D+02  0.234817D+00
  0.899700D+01  0.434401D+00
  0.331900D+01  0.346129D+00
  0.905900D+00  0.393780D-01
  0.364300D+00 -0.898300D-02
  0.128500D+00  0.238500D-02
   s    10 1.00
  0.823600D+04 -0.113000D-03
  0.123500D+04 -0.878000D-03
  0.280800D+03 -0.454000D-02
  0.792700D+02 -0.181330D-01
  0.255900D+02 -0.557600D-01
  0.899700D+01 -0.126895D+00
  0.331900D+01 -0.170352D+00
  0.905900D+00  0.140382D+00
  0.364300D+00  0.598684D+00
  0.128500D+00  0.395389D+00
   s     1 1.00
  0.905900D+00  0.100000D+01
   s     1 1.00
  0.364300D+00  0.100000D+01
   p     5 1.00
  0.187100D+02  0.140310D-01
  0.413300D+01  0.868660D-01
  0.120000D+01  0.290216D+00
  0.382700D+00  0.501008D+00
  0.120900D+00  0.343406D+00
   p     1 1.00
  0.382700D+00  0.100000D+01
   p     1 1.00
  0.120900D+00  0.100000D+01
   d     1 1.00
  0.109700D+01  0.100000D+01
   d     1 1.00
  0.318000D+00  0.100000D+01
   f     1 1.00
  0.761000D+00  0.100000D+01
  
  5  0
   s    10 1.00
  0.823600D+04  0.531000D-03
  0.123500D+04  0.410800D-02
  0.280800D+03  0.210870D-01
  0.792700D+02  0.818530D-01
  0.255900D+02  0.234817D+00
  0.899700D+01  0.434401D+00
  0.331900D+01  0.346129D+00
  0.905900D+00  0.393780D-01
  0.364300D+00 -0.898300D-02
  0.128500D+00  0.238500D-02
   s    10 1.00
  0.823600D+04 -0.113000D-03
  0.123500D+04 -0.878000D-03
  0.280800D+03 -0.454000D-02
  0.792700D+02 -0.181330D-01
  0.255900D+02 -0.557600D-01
  0.899700D+01 -0.126895D+00
  0.331900D+01 -0.170352D+00
  0.905900D+00  0.140382D+00
  0.364300D+00  0.598684D+00
  0.128500D+00  0.395389D+00
   s     1 1.00
  0.905900D+00  0.100000D+01
   s     1 1.00
  0.364300D+00  0.100000D+01
   p     5 1.00
  0.187100D+02  0.140310D-01
  0.413300D+01  0.868660D-01
  0.120000D+01  0.290216D+00
  0.382700D+00  0.501008D+00
  0.120900D+00  0.343406D+00
   p     1 1.00
  0.382700D+00  0.100000D+01
   p     1 1.00
  0.120900D+00  0.100000D+01
   d     1 1.00
  0.109700D+01  0.100000D+01
   d     1 1.00
  0.318000D+00  0.100000D+01
   f     1 1.00
  0.761000D+00  0.100000D+01
  
  6  0
   s    10 1.00
  0.823600D+04  0.531000D-03
  0.123500D+04  0.410800D-02
  0.280800D+03  0.210870D-01
  0.792700D+02  0.818530D-01
  0.255900D+02  0.234817D+00
  0.899700D+01  0.434401D+00
  0.331900D+01  0.346129D+00
  0.905900D+00  0.393780D-01
  0.364300D+00 -0.898300D-02
  0.128500D+00  0.238500D-02
   s    10 1.00
  0.823600D+04 -0.113000D-03
  0.123500D+04 -0.878000D-03
  0.280800D+03 -0.454000D-02
  0.792700D+02 -0.181330D-01
  0.255900D+02 -0.557600D-01
  0.899700D+01 -0.126895D+00
  0.331900D+01 -0.170352D+00
  0.905900D+00  0.140382D+00
  0.364300D+00  0.598684D+00
  0.128500D+00  0.395389D+00
   s     1 1.00
  0.905900D+00  0.100000D+01
   s     1 1.00
  0.364300D+00  0.100000D+01
   p     5 1.00
  0.187100D+02  0.140310D-01
  0.413300D+01  0.868660D-01
  0.120000D+01  0.290216D+00
  0.382700D+00  0.501008D+00
  0.120900D+00  0.343406D+00
   p     1 1.00
  0.382700D+00  0.100000D+01
   p     1 1.00
  0.120900D+00  0.100000D+01
   d     1 1.00
  0.109700D+01  0.100000D+01
   d     1 1.00
  0.318000D+00  0.100000D+01
   f     1 1.00
  0.761000D+00  0.100000D+01
  
  7  0
   s    10 1.00
  0.823600D+04  0.531000D-03
  0.123500D+04  0.410800D-02
  0.280800D+03  0.210870D-01
  0.792700D+02  0.818530D-01
  0.255900D+02  0.234817D+00
  0.899700D+01  0.434401D+00
  0.331900D+01  0.346129D+00
  0.905900D+00  0.393780D-01
  0.364300D+00 -0.898300D-02
  0.128500D+00  0.238500D-02
   s    10 1.00
  0.823600D+04 -0.113000D-03
  0.123500D+04 -0.878000D-03
  0.280800D+03 -0.454000D-02
  0.792700D+02 -0.181330D-01
  0.255900D+02 -0.557600D-01
  0.899700D+01 -0.126895D+00
  0.331900D+01 -0.170352D+00
  0.905900D+00  0.140382D+00
  0.364300D+00  0.598684D+00
  0.128500D+00  0.395389D+00
   s     1 1.00
  0.905900D+00  0.100000D+01
   s     1 1.00
  0.364300D+00  0.100000D+01
   p     5 1.00
  0.187100D+02  0.140310D-01
  0.413300D+01  0.868660D-01
  0.120000D+01  0.290216D+00
  0.382700D+00  0.501008D+00
  0.120900D+00  0.343406D+00
   p     1 1.00
  0.382700D+00  0.100000D+01
   p     1 1.00
  0.120900D+00  0.100000D+01
   d     1 1.00
  0.109700D+01  0.100000D+01
   d     1 1.00
  0.318000D+00  0.100000D+01
   f     1 1.00
  0.761000D+00  0.100000D+01
  
  8  0
   s     4 1.00
  0.130100D+02  0.196850D-01
  0.196200D+01  0.137977D+00
  0.444600D+00  0.478148D+00
  0.122000D+00  0.501240D+00
   s     1 1.00
  0.122000D+00  0.100000D+01
   p     1 1.00
  0.727000D+00  0.100000D+01
  
  9  0
   s     4 1.00
  0.130100D+02  0.196850D-01
  0.196200D+01  0.137977D+00
  0.444600D+00  0.478148D+00
  0.122000D+00  0.501240D+00
   s     1 1.00
  0.122000D+00  0.100000D+01
   p     1 1.00
  0.727000D+00  0.100000D+01
  
 10  0
   s     4 1.00
  0.130100D+02  0.196850D-01
  0.196200D+01  0.137977D+00
  0.444600D+00  0.478148D+00
  0.122000D+00  0.501240D+00
   s     1 1.00
  0.122000D+00  0.100000D+01
   p     1 1.00
  0.727000D+00  0.100000D+01
  
 11  0
   s     4 1.00
  0.130100D+02  0.196850D-01
  0.196200D+01  0.137977D+00
  0.444600D+00  0.478148D+00
  0.122000D+00  0.501240D+00
   s     1 1.00
  0.122000D+00  0.100000D+01
   p     1 1.00
  0.727000D+00  0.100000D+01
  
 12  0
   s     4 1.00
  0.130100D+02  0.196850D-01
  0.196200D+01  0.137977D+00
  0.444600D+00  0.478148D+00
  0.122000D+00  0.501240D+00
   s     1 1.00
  0.122000D+00  0.100000D+01
   p     1 1.00
  0.727000D+00  0.100000D+01
  
 13  0
   s     4 1.00
  0.130100D+02  0.196850D-01
  0.196200D+01  0.137977D+00
  0.444600D+00  0.478148D+00
  0.122000D+00  0.501240D+00
   s     1 1.00
  0.122000D+00  0.100000D+01
   p     1 1.00
  0.727000D+00  0.100000D+01
  
 14  0
   s     4 1.00
  0.130100D+02  0.196850D-01
  0.196200D+01  0.137977D+00
  0.444600D+00  0.478148D+00
  0.122000D+00  0.501240D+00
   s     1 1.00
  0.122000D+00  0.100000D+01
   p     1 1.00
  0.727000D+00  0.100000D+01
  
[MO]
 Sym= __1_A__
 Ene=   1.00000000000000     
 Spin= Alpha
 Occup=    1.00000000000000     
                     1  2.316580706877757E-004
                     2  0.998091137864686     
                     3  1.380481959498026E-003
                     4  1.933799195693564E-003
                     5  6.244772210775617E-003
                     6  5.846477749984971E-003
                     7 -4.274985034788598E-003
                     8  3.923469228877714E-003
                     9 -8.750785393149208E-004
                    10  2.976296812720124E-004
                    11 -4.649280334694397E-004
                    12 -1.699423277119560E-003
                    13  2.796611195601543E-003
                    14 -2.298193570726935E-003
                    15 -2.077385013178559E-006
                    16 -5.657117916630176E-005
                    17 -1.641826221453209E-005
                    18  4.922795416942906E-005
                    19  4.670770161573684E-005
                    20 -2.567267154064071E-004
                    21  4.200052853262559E-004
                    22 -1.973516506087039E-004
                    23  1.233274446271438E-004
                    24 -3.999545071895490E-004
                    25 -4.547756234878428E-005
                    26 -1.123017025345512E-004
                    27  2.558155412832371E-005
                    28  6.169898201472134E-005
                    29 -1.830726110111333E-005
                    30 -1.040254120846053E-004
                    31 -2.038570102991877E-005
                    32 -3.519448280637411E-004
                    33  6.901319944220667E-004
                    34  2.503552282908776E-004
                    35 -7.673558991108450E-005
                    36 -3.634129562519850E-003
                    37 -1.704242464252997E-004
                    38 -2.151795328703360E-004
                    39  2.066237949581718E-004
                    40 -5.107180698046309E-005
                    41  6.818228374678941E-004
                    42  4.785215354287379E-003
                    43  7.541448153275755E-004
                    44 -2.899547761441398E-003
                    45 -1.933924060106423E-004
                    46  2.680528693346168E-005
                    47  9.806572963393838E-006
                    48  1.870533425243492E-004
                    49  4.468367667332603E-005
                    50  5.179521952585665E-004
                    51  5.341338725711978E-004
                    52 -6.643600692337618E-005
                    53 -1.096805478636204E-004
                    54 -3.319610094608609E-004
                    55  3.289688807567434E-005
                    56 -4.902223006498333E-005
                    57  5.881941487758162E-007
                    58  2.998125817441308E-005
                    59  2.332018953118025E-006
                    60 -3.395996137917287E-005
                    61  2.514024669267294E-005
                    62 -6.464259126993092E-004
                    63 -2.578198831681595E-003
                    64 -2.228577333149165E-005
                    65  2.191489534426940E-003
                    66  3.043070493439168E-004
                    67 -1.289079874093666E-004
                    68 -5.660090678676444E-004
                    69  8.466324010907301E-004
                    70  4.229888560149504E-005
                    71  5.060802734874977E-004
                    72  1.337779533403129E-003
                    73 -1.845633926607344E-004
                    74 -1.436536159876873E-003
                    75 -6.628840675728097E-005
                    76 -2.967243503818913E-005
                    77  1.510325211832787E-005
                    78  7.740697386218872E-005
                    79 -3.416507941659805E-006
                    80  3.792325134399782E-004
                    81  1.920438305788215E-004
                    82 -5.435145150986220E-005
                    83 -5.566961519446608E-005
                    84  1.790043098881262E-005
                    85 -2.004717137372015E-005
                    86 -1.242208838905893E-004
                    87  1.663517336147334E-005
                    88  3.888142199582288E-006
                    89  1.364032482697916E-005
                    90 -6.875921613801701E-005
                    91 -1.018045297341527E-005
                    92 -7.924305397919640E-005
                    93 -7.324686677183995E-004
                    94  2.377740968897200E-004
                    95 -5.886017382429075E-004
                    96  4.997715674984770E-004
                    97 -1.382727924970224E-004
                    98  3.918382543352189E-004
                    99  3.017147168127116E-004
                   100  6.901878977850623E-005
                   101  3.071148424433056E-004
                   102 -2.145921138559988E-003
                   103 -2.594206056757834E-004
                   104  1.842900964854129E-004
                   105 -6.281275646817478E-005
                   106  5.287849339184857E-007
                   107 -8.854894370996713E-006
                   108  4.108341128147172E-005
                   109 -7.515731803218621E-006
                   110 -1.899269124964056E-005
                   111 -2.041497659163000E-004
                   112  9.920746026205569E-006
                   113 -2.205337890424940E-004
                   114  5.091113465339130E-005
                   115 -1.419963969208467E-005
                   116  2.044252765698924E-005
                   117  1.694009808507694E-005
                   118  1.821180662953670E-005
                   119 -1.013752197402970E-005
                   120 -1.820472508492964E-005
                   121 -6.189380779083726E-006
                   122 -2.889114019720210E-004
                   123 -7.055124924674645E-004
                   124  1.036520326231442E-004
                   125  8.200385610510381E-004
                   126 -4.643915781913544E-004
                   127 -5.081847144722132E-005
                   128 -2.265530348820240E-005
                   129  5.257695257580919E-004
                   130 -2.006935519889613E-005
                   131  2.379304461499636E-004
                   132  2.572652044563980E-003
                   133  1.054958455532585E-004
                   134  3.973991184018053E-004
                   135  2.651628975693875E-005
                   136  9.342185703935436E-007
                   137 -4.195153890795484E-006
                   138 -1.436734962190309E-005
                   139  8.928116385874306E-006
                   140  2.322487536142651E-004
                   141  3.426579487361126E-004
                   142  6.927787515652643E-006
                   143 -3.552785349393686E-004
                   144 -2.558400317139873E-005
                   145 -3.276783864153440E-005
                   146 -2.146632971895543E-005
                   147 -8.013332610330530E-007
                   148 -1.194690910939620E-005
                   149 -3.685902439808124E-006
                   150 -7.703660505978079E-005
                   151 -6.532224206541736E-007
                   152 -1.378646443689822E-004
                   153 -2.122281646522085E-004
                   154 -1.597468230404500E-005
                   155  4.772519739759126E-004
                   156 -3.838648335420054E-004
                   157 -4.081533936092180E-005
                   158 -5.783815989790900E-005
                   159 -1.357135118739266E-004
                   160 -3.230740658459977E-005
                   161  2.161398349938395E-004
                   162 -8.855558930645729E-004
                   163  4.948446277073761E-005
                   164  8.772204472894233E-004
                   165 -1.570049116739910E-005
                   166  7.425293943706506E-006
                   167  2.561039258368497E-006
                   168  1.454265609954097E-005
                   169  6.105959980688590E-006
                   170 -7.028355388364668E-005
                   171 -4.665992597323773E-005
                   172  5.437711613033119E-006
                   173  3.640683723317504E-006
                   174  5.934922620330494E-006
                   175 -9.167367348887222E-006
                   176 -7.160304178257936E-006
                   177  1.637774859842760E-006
                   178 -4.573156496109038E-006
                   179  1.877229288442814E-007
                   180 -8.938931269546556E-006
                   181 -3.697074068732998E-006
                   182 -1.466789769266973E-004
                   183 -4.547389708945473E-004
                   184  3.432170711060465E-005
                   185  1.873579786879809E-004
                   186 -1.837377419088391E-005
                   187 -2.618588766765555E-005
                   188 -7.836529986080294E-005
                   189  8.990879439495241E-005
                   190  4.271931414585053E-006
                   191  3.473499014780762E-004
                   192 -4.116060894311530E-004
                   193 -1.298533103091804E-004
                   194  1.896820603201700E-003
                   195 -7.696046441210541E-006
                   196  3.565486344415675E-006
                   197  9.386690475101606E-008
                   198  2.521038527349336E-006
                   199 -7.114433612307490E-007
                   200 -1.280221389795775E-004
                   201 -2.847794072840748E-004
                   202  5.874528310446844E-006
                   203  6.627789254991712E-005
                   204  2.002402798926415E-005
                   205  3.333139601040332E-006
                   206  2.521497401803051E-006
                   207  1.063142179942006E-006
                   208  2.238615171292744E-005
                   209 -1.137467385872351E-006
                   210 -4.880165111023689E-006
                   211 -2.523910910392171E-006
                   212  1.665608241985051E-003
                   213 -1.668228047928716E-003
                   214  1.264010076822776E-004
                   215  3.756845441204088E-004
                   216  9.403939688602276E-005
                   217  2.297550182426110E-003
                   218 -1.962666496467320E-003
                   219  1.723224625301314E-004
                   220  5.662418267500442E-005
                   221 -4.593498968162745E-004
                   222 -4.840600482495677E-004
                   223 -2.333030459155601E-004
                   224 -9.005834202555467E-005
                   225  6.020778786433469E-006
                   226  3.795743815673175E-005
                   227 -3.353301862620486E-004
                   228 -4.640299946150246E-004
                   229 -3.464744829951700E-005
                   230  1.376806091896795E-005
                   231 -4.824091166207728E-005
                   232 -2.042018841388315E-005
                   233 -6.693935243337235E-004
                   234 -1.036720106041903E-006
                   235 -1.157917648695561E-006
                   236  7.329442948575169E-007
                   237 -1.290352735850981E-004
                   238 -2.852245688409965E-004
                   239  1.675923829628954E-005
                   240 -3.083169500979641E-006
                   241  1.965180625587856E-005
                   242 -5.187834157199096E-006
                   243  1.187489428777743E-004
                   244  3.023296968224662E-005
                   245  1.833541798219762E-006
                   246  1.693160781915635E-006
 Sym= __2_A__
 Ene=   2.00000000000000     
 Spin= Alpha
 Occup=    1.00000000000000     
                     1 -7.483659706199509E-006
                     2 -8.638015034980754E-005
                     3  1.714776098533247E-003
                     4 -2.009470497720902E-005
                     5  1.203112610821244E-003
                     6  1.692727108207355E-003
                     7  7.010412288118191E-005
                     8 -2.071484007745589E-004
                     9 -1.553420530081996E-004
                    10  1.032621143103883E-004
                    11 -2.871623373908011E-005
                    12  1.281346644595891E-004
                    13  1.251613373122353E-004
                    14  5.160825805648957E-005
                    15 -6.429320157065050E-005
                    16  1.510279946652577E-005
                    17 -8.644146806145415E-006
                    18  4.476002650994582E-005
                    19 -7.981566885212467E-007
                    20  1.308884502714621E-004
                    21 -7.035971360764510E-005
                    22  3.435023352070541E-005
                    23  1.186089544341645E-004
                    24 -6.135552941040218E-005
                    25 -6.101647226481891E-005
                    26  1.301999716319752E-004
                    27 -7.594450339066162E-006
                    28 -1.097015888258300E-005
                    29 -2.195413264127939E-006
                    30  1.267016016654998E-004
                    31  3.348888729407559E-005
                    32   1.00092767059730     
                    33  8.724181529470125E-003
                    34  2.819181215717578E-003
                    35 -8.326442134232359E-003
                    36 -2.274249737381055E-003
                    37  5.117698274806451E-004
                    38  3.816484732808137E-005
                    39  1.079766982146807E-003
                    40 -1.863751502017106E-004
                    41 -1.418767868403795E-004
                    42  3.123338431242703E-003
                    43 -1.050011427894082E-004
                    44 -1.806299759212432E-004
                    45  3.040870402954485E-004
                    46  1.902386680786344E-005
                    47 -2.506369057445601E-005
                    48  3.818108492317838E-004
                    49 -8.833755080835377E-006
                    50 -1.011991739934861E-003
                    51 -1.807914731738872E-004
                    52  9.213209948102935E-005
                    53 -1.418011040028721E-004
                    54  1.562701237152384E-005
                    55 -1.251814671562137E-005
                    56  2.898489485538471E-004
                    57 -8.762584365155007E-006
                    58 -1.887159839994309E-005
                    59 -7.796002641964407E-006
                    60  7.372668843483540E-005
                    61  1.244492097700948E-005
                    62  1.364927197738434E-002
                    63 -1.800114189689814E-003
                    64 -2.872247318468122E-004
                    65  2.965611335685524E-003
                    66 -1.652917784704544E-004
                    67  6.407455554489720E-005
                    68  3.053732226841779E-004
                    69  3.216417116353498E-005
                    70 -1.744835687737846E-005
                    71  3.954205028316953E-004
                    72  4.257008865406745E-004
                    73  8.321178876622994E-005
                    74 -1.821843645633640E-003
                    75 -5.950704987372385E-006
                    76  2.569685614009781E-005
                    77  7.044956104753263E-006
                    78 -3.965341053213878E-005
                    79 -3.527724992858119E-006
                    80 -4.647709087749177E-004
                    81 -4.099090944469429E-004
                    82  1.499582929674619E-005
                    83  7.873644700706808E-004
                    84  1.034188944501617E-005
                    85  4.450190521818666E-005
                    86  1.091800457592326E-004
                    87  1.171435871590621E-005
                    88 -1.855346530435758E-005
                    89 -1.584270580135292E-005
                    90 -2.483222809871647E-005
                    91  2.353696354863437E-006
                    92  1.520617931398696E-002
                    93 -1.723903447923164E-003
                    94 -3.363128266323403E-004
                    95  3.255537782870235E-003
                    96 -2.044936136066834E-004
                    97  9.237182638759139E-005
                    98 -2.960092187940883E-004
                    99 -2.697304318379555E-005
                   100  3.361829856318975E-005
                   101 -6.434207516840009E-004
                   102  3.258139606716360E-005
                   103 -7.953863127734729E-005
                   104  1.698452358194009E-003
                   105 -3.596019157682471E-007
                   106 -1.570633604550928E-005
                   107 -2.367305690459172E-006
                   108 -3.216199636040472E-005
                   109 -3.209217385235219E-006
                   110 -3.286300781100771E-004
                   111  4.915676167925711E-004
                   112 -1.562058667326320E-005
                   113  6.990837925660280E-004
                   114 -1.468422660481410E-005
                   115 -5.148576187856161E-005
                   116  9.673862013033465E-005
                   117 -4.234487372507967E-006
                   118  2.042100394330644E-005
                   119 -1.841644487337757E-006
                   120 -3.292753580342163E-005
                   121  3.557763389777525E-006
                   122 -1.330879330703404E-004
                   123 -7.624617542007825E-004
                   124  2.414600069796938E-004
                   125 -2.749724514510349E-004
                   126 -1.707672106832369E-004
                   127  1.664046648483194E-005
                   128 -5.346540500632799E-005
                   129  6.082519913685522E-004
                   130 -9.491617284357746E-006
                   131  7.976795423785004E-005
                   132  7.036363227744844E-004
                   133 -1.736137750504510E-005
                   134  4.168624249273257E-004
                   135  5.324056481657237E-007
                   136  4.043308561039610E-005
                   137  8.127128372594335E-007
                   138 -3.337661882847910E-005
                   139 -2.849584033621800E-006
                   140  1.978269936375462E-004
                   141 -2.627376744778183E-004
                   142 -4.348257179049693E-007
                   143 -2.514508275631976E-004
                   144  1.052712623274295E-005
                   145 -1.725593345339562E-005
                   146  1.511841098027423E-005
                   147 -1.455195834508846E-006
                   148 -1.006063867387878E-005
                   149 -2.876848711297849E-006
                   150 -2.202407690507366E-005
                   151  8.683761421059297E-007
                   152 -9.341604453037768E-005
                   153 -7.225554967260721E-004
                   154  2.521798202230769E-004
                   155 -3.160473929307363E-004
                   156 -1.502799153905959E-004
                   157  1.575111830833927E-006
                   158  3.362923680281133E-005
                   159  5.546056266248706E-004
                   160  8.830074049977173E-006