[Molden Format]
[Atoms] AU
  N     1    7    -4.4767208000    0.1045494800   -0.2138294300        
  C     2    6    -1.7670706800   -0.0298855000   -0.0952771300        
  C     3    6    -0.3859437300    0.0926647900   -2.3367970500        
  C     4    6    -0.4691960000   -0.1176598800    2.1916293300        
  C     5    6     2.2250302000    0.0770696700   -2.2794446500        
  C     6    6     2.1509877400   -0.0826550700    2.2324138600        
  C     7    6     3.5085872600    0.0022118400    0.0033093800        
  H     8    1    -5.1772656300   -1.5465849800   -0.9584157500        
  H     9    1    -5.1565153200    0.1818989700    1.6018839500        
  H    10    1    -1.3703549900    0.2136872800   -4.1042062000        
  H    11    1    -1.5027727200   -0.2257846200    3.9337648400        
  H    12    1     3.2639439600    0.1576456600   -4.0204597000        
  H    13    1     3.1227698800   -0.1430848100    4.0127919900        
  H    14    1     5.5365942200    0.0139503000    0.0377459600        
[5D]
[7F]
[GTO]
  1  0
   s    12 1.00
  0.114200D+05  0.172695D-04
  0.171200D+04  0.134411D-03
  0.389300D+03  0.694561D-03
  0.110000D+03  0.278531D-02
  0.355700D+02  0.863457D-02
  0.125400D+02  0.199805D-01
  0.464400D+01  0.262908D-01
  0.129300D+01 -0.243845D-01
  0.511800D+00 -0.924934D-01
  0.178700D+00 -0.339683D+00
  0.246240D-01  0.345111D+00
  0.112530D-01  0.752750D+00
   s    10 1.00
  0.114200D+05  0.523000D-03
  0.171200D+04  0.404500D-02
  0.389300D+03  0.207750D-01
  0.110000D+03  0.807269D-01
  0.355700D+02  0.233074D+00
  0.125400D+02  0.433501D+00
  0.464400D+01  0.347472D+00
  0.129300D+01  0.412620D-01
  0.511800D+00 -0.850799D-02
  0.178700D+00  0.238400D-02
   s    10 1.00
  0.114200D+05 -0.115000D-03
  0.171200D+04 -0.895000D-03
  0.389300D+03 -0.462400D-02
  0.110000D+03 -0.185280D-01
  0.355700D+02 -0.573390D-01
  0.125400D+02 -0.132076D+00
  0.464400D+01 -0.172510D+00
  0.129300D+01  0.151814D+00
  0.511800D+00  0.599944D+00
  0.178700D+00  0.387462D+00
   s     1 1.00
  0.129300D+01  0.100000D+01
   s     1 1.00
  0.178700D+00  0.100000D+01
   p     5 1.00
  0.266300D+02  0.146700D-01
  0.594800D+01  0.917640D-01
  0.174200D+01  0.298683D+00
  0.555000D+00  0.498487D+00
  0.172500D+00  0.337023D+00
   p     1 1.00
  0.174200D+01  0.100000D+01
   p     1 1.00
  0.555000D+00  0.100000D+01
   d     1 1.00
  0.165400D+01  0.100000D+01
   d     1 1.00
  0.469000D+00  0.100000D+01
   f     1 1.00
  0.109300D+01  0.100000D+01
  
  2  0
   s    10 1.00
  0.823600D+04  0.531000D-03
  0.123500D+04  0.410800D-02
  0.280800D+03  0.210870D-01
  0.792700D+02  0.818530D-01
  0.255900D+02  0.234817D+00
  0.899700D+01  0.434401D+00
  0.331900D+01  0.346129D+00
  0.905900D+00  0.393780D-01
  0.364300D+00 -0.898300D-02
  0.128500D+00  0.238500D-02
   s    10 1.00
  0.823600D+04 -0.113000D-03
  0.123500D+04 -0.878000D-03
  0.280800D+03 -0.454000D-02
  0.792700D+02 -0.181330D-01
  0.255900D+02 -0.557600D-01
  0.899700D+01 -0.126895D+00
  0.331900D+01 -0.170352D+00
  0.905900D+00  0.140382D+00
  0.364300D+00  0.598684D+00
  0.128500D+00  0.395389D+00
   s     1 1.00
  0.905900D+00  0.100000D+01
   s     1 1.00
  0.364300D+00  0.100000D+01
   p     5 1.00
  0.187100D+02  0.140310D-01
  0.413300D+01  0.868660D-01
  0.120000D+01  0.290216D+00
  0.382700D+00  0.501008D+00
  0.120900D+00  0.343406D+00
   p     1 1.00
  0.382700D+00  0.100000D+01
   p     1 1.00
  0.120900D+00  0.100000D+01
   d     1 1.00
  0.109700D+01  0.100000D+01
   d     1 1.00
  0.318000D+00  0.100000D+01
   f     1 1.00
  0.761000D+00  0.100000D+01
  
  3  0
   s    10 1.00
  0.823600D+04  0.531000D-03
  0.123500D+04  0.410800D-02
  0.280800D+03  0.210870D-01
  0.792700D+02  0.818530D-01
  0.255900D+02  0.234817D+00
  0.899700D+01  0.434401D+00
  0.331900D+01  0.346129D+00
  0.905900D+00  0.393780D-01
  0.364300D+00 -0.898300D-02
  0.128500D+00  0.238500D-02
   s    10 1.00
  0.823600D+04 -0.113000D-03
  0.123500D+04 -0.878000D-03
  0.280800D+03 -0.454000D-02
  0.792700D+02 -0.181330D-01
  0.255900D+02 -0.557600D-01
  0.899700D+01 -0.126895D+00
  0.331900D+01 -0.170352D+00
  0.905900D+00  0.140382D+00
  0.364300D+00  0.598684D+00
  0.128500D+00  0.395389D+00
   s     1 1.00
  0.905900D+00  0.100000D+01
   s     1 1.00
  0.364300D+00  0.100000D+01
   p     5 1.00
  0.187100D+02  0.140310D-01
  0.413300D+01  0.868660D-01
  0.120000D+01  0.290216D+00
  0.382700D+00  0.501008D+00
  0.120900D+00  0.343406D+00
   p     1 1.00
  0.382700D+00  0.100000D+01
   p     1 1.00
  0.120900D+00  0.100000D+01
   d     1 1.00
  0.109700D+01  0.100000D+01
   d     1 1.00
  0.318000D+00  0.100000D+01
   f     1 1.00
  0.761000D+00  0.100000D+01
  
  4  0
   s    10 1.00
  0.823600D+04  0.531000D-03
  0.123500D+04  0.410800D-02
  0.280800D+03  0.210870D-01
  0.792700D+02  0.818530D-01
  0.255900D+02  0.234817D+00
  0.899700D+01  0.434401D+00
  0.331900D+01  0.346129D+00
  0.905900D+00  0.393780D-01
  0.364300D+00 -0.898300D-02
  0.128500D+00  0.238500D-02
   s    10 1.00
  0.823600D+04 -0.113000D-03
  0.123500D+04 -0.878000D-03
  0.280800D+03 -0.454000D-02
  0.792700D+02 -0.181330D-01
  0.255900D+02 -0.557600D-01
  0.899700D+01 -0.126895D+00
  0.331900D+01 -0.170352D+00
  0.905900D+00  0.140382D+00
  0.364300D+00  0.598684D+00
  0.128500D+00  0.395389D+00
   s     1 1.00
  0.905900D+00  0.100000D+01
   s     1 1.00
  0.364300D+00  0.100000D+01
   p     5 1.00
  0.187100D+02  0.140310D-01
  0.413300D+01  0.868660D-01
  0.120000D+01  0.290216D+00
  0.382700D+00  0.501008D+00
  0.120900D+00  0.343406D+00
   p     1 1.00
  0.382700D+00  0.100000D+01
   p     1 1.00
  0.120900D+00  0.100000D+01
   d     1 1.00
  0.109700D+01  0.100000D+01
   d     1 1.00
  0.318000D+00  0.100000D+01
   f     1 1.00
  0.761000D+00  0.100000D+01
  
  5  0
   s    10 1.00
  0.823600D+04  0.531000D-03
  0.123500D+04  0.410800D-02
  0.280800D+03  0.210870D-01
  0.792700D+02  0.818530D-01
  0.255900D+02  0.234817D+00
  0.899700D+01  0.434401D+00
  0.331900D+01  0.346129D+00
  0.905900D+00  0.393780D-01
  0.364300D+00 -0.898300D-02
  0.128500D+00  0.238500D-02
   s    10 1.00
  0.823600D+04 -0.113000D-03
  0.123500D+04 -0.878000D-03
  0.280800D+03 -0.454000D-02
  0.792700D+02 -0.181330D-01
  0.255900D+02 -0.557600D-01
  0.899700D+01 -0.126895D+00
  0.331900D+01 -0.170352D+00
  0.905900D+00  0.140382D+00
  0.364300D+00  0.598684D+00
  0.128500D+00  0.395389D+00
   s     1 1.00
  0.905900D+00  0.100000D+01
   s     1 1.00
  0.364300D+00  0.100000D+01
   p     5 1.00
  0.187100D+02  0.140310D-01
  0.413300D+01  0.868660D-01
  0.120000D+01  0.290216D+00
  0.382700D+00  0.501008D+00
  0.120900D+00  0.343406D+00
   p     1 1.00
  0.382700D+00  0.100000D+01
   p     1 1.00
  0.120900D+00  0.100000D+01
   d     1 1.00
  0.109700D+01  0.100000D+01
   d     1 1.00
  0.318000D+00  0.100000D+01
   f     1 1.00
  0.761000D+00  0.100000D+01
  
  6  0
   s    10 1.00
  0.823600D+04  0.531000D-03
  0.123500D+04  0.410800D-02
  0.280800D+03  0.210870D-01
  0.792700D+02  0.818530D-01
  0.255900D+02  0.234817D+00
  0.899700D+01  0.434401D+00
  0.331900D+01  0.346129D+00
  0.905900D+00  0.393780D-01
  0.364300D+00 -0.898300D-02
  0.128500D+00  0.238500D-02
   s    10 1.00
  0.823600D+04 -0.113000D-03
  0.123500D+04 -0.878000D-03
  0.280800D+03 -0.454000D-02
  0.792700D+02 -0.181330D-01
  0.255900D+02 -0.557600D-01
  0.899700D+01 -0.126895D+00
  0.331900D+01 -0.170352D+00
  0.905900D+00  0.140382D+00
  0.364300D+00  0.598684D+00
  0.128500D+00  0.395389D+00
   s     1 1.00
  0.905900D+00  0.100000D+01
   s     1 1.00
  0.364300D+00  0.100000D+01
   p     5 1.00
  0.187100D+02  0.140310D-01
  0.413300D+01  0.868660D-01
  0.120000D+01  0.290216D+00
  0.382700D+00  0.501008D+00
  0.120900D+00  0.343406D+00
   p     1 1.00
  0.382700D+00  0.100000D+01
   p     1 1.00
  0.120900D+00  0.100000D+01
   d     1 1.00
  0.109700D+01  0.100000D+01
   d     1 1.00
  0.318000D+00  0.100000D+01
   f     1 1.00
  0.761000D+00  0.100000D+01
  
  7  0
   s    10 1.00
  0.823600D+04  0.531000D-03
  0.123500D+04  0.410800D-02
  0.280800D+03  0.210870D-01
  0.792700D+02  0.818530D-01
  0.255900D+02  0.234817D+00
  0.899700D+01  0.434401D+00
  0.331900D+01  0.346129D+00
  0.905900D+00  0.393780D-01
  0.364300D+00 -0.898300D-02
  0.128500D+00  0.238500D-02
   s    10 1.00
  0.823600D+04 -0.113000D-03
  0.123500D+04 -0.878000D-03
  0.280800D+03 -0.454000D-02
  0.792700D+02 -0.181330D-01
  0.255900D+02 -0.557600D-01
  0.899700D+01 -0.126895D+00
  0.331900D+01 -0.170352D+00
  0.905900D+00  0.140382D+00
  0.364300D+00  0.598684D+00
  0.128500D+00  0.395389D+00
   s     1 1.00
  0.905900D+00  0.100000D+01
   s     1 1.00
  0.364300D+00  0.100000D+01
   p     5 1.00
  0.187100D+02  0.140310D-01
  0.413300D+01  0.868660D-01
  0.120000D+01  0.290216D+00
  0.382700D+00  0.501008D+00
  0.120900D+00  0.343406D+00
   p     1 1.00
  0.382700D+00  0.100000D+01
   p     1 1.00
  0.120900D+00  0.100000D+01
   d     1 1.00
  0.109700D+01  0.100000D+01
   d     1 1.00
  0.318000D+00  0.100000D+01
   f     1 1.00
  0.761000D+00  0.100000D+01
  
  8  0
   s     4 1.00
  0.130100D+02  0.196850D-01
  0.196200D+01  0.137977D+00
  0.444600D+00  0.478148D+00
  0.122000D+00  0.501240D+00
   s     1 1.00
  0.122000D+00  0.100000D+01
   p     1 1.00
  0.727000D+00  0.100000D+01
  
  9  0
   s     4 1.00
  0.130100D+02  0.196850D-01
  0.196200D+01  0.137977D+00
  0.444600D+00  0.478148D+00
  0.122000D+00  0.501240D+00
   s     1 1.00
  0.122000D+00  0.100000D+01
   p     1 1.00
  0.727000D+00  0.100000D+01
  
 10  0
   s     4 1.00
  0.130100D+02  0.196850D-01
  0.196200D+01  0.137977D+00
  0.444600D+00  0.478148D+00
  0.122000D+00  0.501240D+00
   s     1 1.00
  0.122000D+00  0.100000D+01
   p     1 1.00
  0.727000D+00  0.100000D+01
  
 11  0
   s     4 1.00
  0.130100D+02  0.196850D-01
  0.196200D+01  0.137977D+00
  0.444600D+00  0.478148D+00
  0.122000D+00  0.501240D+00
   s     1 1.00
  0.122000D+00  0.100000D+01
   p     1 1.00
  0.727000D+00  0.100000D+01
  
 12  0
   s     4 1.00
  0.130100D+02  0.196850D-01
  0.196200D+01  0.137977D+00
  0.444600D+00  0.478148D+00
  0.122000D+00  0.501240D+00
   s     1 1.00
  0.122000D+00  0.100000D+01
   p     1 1.00
  0.727000D+00  0.100000D+01
  
 13  0
   s     4 1.00
  0.130100D+02  0.196850D-01
  0.196200D+01  0.137977D+00
  0.444600D+00  0.478148D+00
  0.122000D+00  0.501240D+00
   s     1 1.00
  0.122000D+00  0.100000D+01
   p     1 1.00
  0.727000D+00  0.100000D+01
  
 14  0
   s     4 1.00
  0.130100D+02  0.196850D-01
  0.196200D+01  0.137977D+00
  0.444600D+00  0.478148D+00
  0.122000D+00  0.501240D+00
   s     1 1.00
  0.122000D+00  0.100000D+01
   p     1 1.00
  0.727000D+00  0.100000D+01
  
[MO]
 Sym= __1_a__
 Ene=  0.000000000000000E+000
 Spin= Alpha
 Occup=    2.00000000000000     
                     1  2.316580706877760E-004
                     2  0.998091137864686     
                     3  1.380481959498030E-003
                     4  1.933799195693560E-003
                     5  6.244772210775620E-003
                     6  5.846477749984970E-003
                     7 -4.274985034788600E-003
                     8  3.923469228877710E-003
                     9 -8.750785393149210E-004
                    10  2.976296812720120E-004
                    11 -4.649280334694400E-004
                    12 -1.699423277119560E-003
                    13  2.796611195601540E-003
                    14 -2.298193570726930E-003
                    15 -2.077385013178560E-006
                    16 -5.657117916630180E-005
                    17 -1.641826221453210E-005
                    18  4.922795416942900E-005
                    19  4.670770161573680E-005
                    20 -2.567267154064071E-004
                    21  4.200052853262560E-004
                    22 -1.973516506087040E-004
                    23  1.233274446271438E-004
                    24 -3.999545071895490E-004
                    25 -4.547756234878428E-005
                    26 -1.123017025345512E-004
                    27  2.558155412832369E-005
                    28  6.169898201472140E-005
                    29 -1.830726110111330E-005
                    30 -1.040254120846053E-004
                    31 -2.038570102991879E-005
                    32 -3.519448280637410E-004
                    33  6.901319944220670E-004
                    34  2.503552282908780E-004
                    35 -7.673558991108450E-005
                    36 -3.634129562519850E-003
                    37 -1.704242464253000E-004
                    38 -2.151795328703360E-004
                    39  2.066237949581720E-004
                    40 -5.107180698046310E-005
                    41  6.818228374678940E-004
                    42  4.785215354287380E-003
                    43  7.541448153275760E-004
                    44 -2.899547761441400E-003
                    45 -1.933924060106424E-004
                    46  2.680528693346170E-005
                    47  9.806572963393840E-006
                    48  1.870533425243492E-004
                    49  4.468367667332600E-005
                    50  5.179521952585681E-004
                    51  5.341338725711980E-004
                    52 -6.643600692337620E-005
                    53 -1.096805478636204E-004
                    54 -3.319610094608610E-004
                    55  3.289688807567432E-005
                    56 -4.902223006498331E-005
                    57  5.881941487758163E-007
                    58  2.998125817441300E-005
                    59  2.332018953118030E-006
                    60 -3.395996137917287E-005
                    61  2.514024669267295E-005
                    62 -6.464259126993090E-004
                    63 -2.578198831681590E-003
                    64 -2.228577333149160E-005
                    65  2.191489534426940E-003
                    66  3.043070493439170E-004
                    67 -1.289079874093670E-004
                    68 -5.660090678676440E-004
                    69  8.466324010907300E-004
                    70  4.229888560149500E-005
                    71  5.060802734874980E-004
                    72  1.337779533403130E-003
                    73 -1.845633926607340E-004
                    74 -1.436536159876870E-003
                    75 -6.628840675728100E-005
                    76 -2.967243503818910E-005
                    77  1.510325211832790E-005
                    78  7.740697386218880E-005
                    79 -3.416507941659800E-006
                    80  3.792325134399785E-004
                    81  1.920438305788210E-004
                    82 -5.435145150986220E-005
                    83 -5.566961519446600E-005
                    84  1.790043098881260E-005
                    85 -2.004717137372015E-005
                    86 -1.242208838905891E-004
                    87  1.663517336147332E-005
                    88  3.888142199582280E-006
                    89  1.364032482697920E-005
                    90 -6.875921613801708E-005
                    91 -1.018045297341528E-005
                    92 -7.924305397919640E-005
                    93 -7.324686677183990E-004
                    94  2.377740968897200E-004
                    95 -5.886017382429070E-004
                    96  4.997715674984770E-004
                    97 -1.382727924970220E-004
                    98  3.918382543352190E-004
                    99  3.017147168127120E-004
                   100  6.901878977850619E-005
                   101  3.071148424433060E-004
                   102 -2.145921138559990E-003
                   103 -2.594206056757830E-004
                   104  1.842900964854130E-004
                   105 -6.281275646817491E-005
                   106  5.287849339184860E-007
                   107 -8.854894370996710E-006
                   108  4.108341128147180E-005
                   109 -7.515731803218620E-006
                   110 -1.899269124964055E-005
                   111 -2.041497659163000E-004
                   112  9.920746026205570E-006
                   113 -2.205337890424940E-004
                   114  5.091113465339130E-005
                   115 -1.419963969208466E-005
                   116  2.044252765698926E-005
                   117  1.694009808507695E-005
                   118  1.821180662953670E-005
                   119 -1.013752197402970E-005
                   120 -1.820472508492965E-005
                   121 -6.189380779083717E-006
                   122 -2.889114019720210E-004
                   123 -7.055124924674650E-004
                   124  1.036520326231440E-004
                   125  8.200385610510380E-004
                   126 -4.643915781913540E-004
                   127 -5.081847144722130E-005
                   128 -2.265530348820240E-005
                   129  5.257695257580921E-004
                   130 -2.006935519889610E-005
                   131  2.379304461499640E-004
                   132  2.572652044563980E-003
                   133  1.054958455532590E-004
                   134  3.973991184018050E-004
                   135  2.651628975693874E-005
                   136  9.342185703935440E-007
                   137 -4.195153890795480E-006
                   138 -1.436734962190310E-005
                   139  8.928116385874310E-006
                   140  2.322487536142650E-004
                   141  3.426579487361130E-004
                   142  6.927787515652640E-006
                   143 -3.552785349393680E-004
                   144 -2.558400317139870E-005
                   145 -3.276783864153451E-005
                   146 -2.146632971895545E-005
                   147 -8.013332610330530E-007
                   148 -1.194690910939620E-005
                   149 -3.685902439808120E-006
                   150 -7.703660505978075E-005
                   151 -6.532224206541717E-007
                   152 -1.378646443689820E-004
                   153 -2.122281646522080E-004
                   154 -1.597468230404500E-005
                   155  4.772519739759130E-004
                   156 -3.838648335420050E-004
                   157 -4.081533936092180E-005
                   158 -5.783815989790900E-005
                   159 -1.357135118739270E-004
                   160 -3.230740658459980E-005
                   161  2.161398349938390E-004
                   162 -8.855558930645730E-004
                   163  4.948446277073760E-005
                   164  8.772204472894230E-004
                   165 -1.570049116739911E-005
                   166  7.425293943706510E-006
                   167  2.561039258368500E-006
                   168  1.454265609954096E-005
                   169  6.105959980688590E-006
                   170 -7.028355388364670E-005
                   171 -4.665992597323770E-005
                   172  5.437711613033120E-006
                   173  3.640683723317500E-006
                   174  5.934922620330490E-006
                   175 -9.167367348887209E-006
                   176 -7.160304178257943E-006
                   177  1.637774859842760E-006
                   178 -4.573156496109040E-006
                   179  1.877229288442810E-007
                   180 -8.938931269546550E-006
                   181 -3.697074068733000E-006
                   182 -1.466789769266970E-004
                   183 -4.547389708945470E-004
                   184  3.432170711060460E-005
                   185  1.873579786879810E-004
                   186 -1.837377419088390E-005
                   187 -2.618588766765560E-005
                   188 -7.836529986080289E-005
                   189  8.990879439495240E-005
                   190  4.271931414585050E-006
                   191  3.473499014780760E-004
                   192 -4.116060894311530E-004
                   193 -1.298533103091800E-004
                   194  1.896820603201700E-003
                   195 -7.696046441210527E-006
                   196  3.565486344415680E-006
                   197  9.386690475101610E-008
                   198  2.521038527349340E-006
                   199 -7.114433612307490E-007
                   200 -1.280221389795776E-004
                   201 -2.847794072840750E-004
                   202  5.874528310446840E-006
                   203  6.627789254991720E-005
                   204  2.002402798926410E-005
                   205  3.333139601040322E-006
                   206  2.521497401803051E-006
                   207  1.063142179942007E-006
                   208  2.238615171292740E-005
                   209 -1.137467385872350E-006
                   210 -4.880165111023684E-006
                   211 -2.523910910392171E-006
                   212  1.665608241985050E-003
                   213 -1.668228047928720E-003
                   214  1.264010076822780E-004
                   215  3.756845441204090E-004
                   216  9.403939688602280E-005
                   217  2.297550182426110E-003
                   218 -1.962666496467320E-003
                   219  1.723224625301310E-004
                   220  5.662418267500440E-005
                   221 -4.593498968162750E-004
                   222 -4.840600482495680E-004
                   223 -2.333030459155600E-004
                   224 -9.005834202555470E-005
                   225  6.020778786433470E-006
                   226  3.795743815673180E-005
                   227 -3.353301862620490E-004
                   228 -4.640299946150250E-004
                   229 -3.464744829951700E-005
                   230  1.376806091896800E-005
                   231 -4.824091166207730E-005
                   232 -2.042018841388310E-005
                   233 -6.693935243337230E-004
                   234 -1.036720106041900E-006
                   235 -1.157917648695560E-006
                   236  7.329442948575169E-007
                   237 -1.290352735850980E-004
                   238 -2.852245688409960E-004
                   239  1.675923829628950E-005
                   240 -3.083169500979640E-006
                   241  1.965180625587860E-005
                   242 -5.187834157199100E-006
                   243  1.187489428777740E-004
                   244  3.023296968224660E-005
                   245  1.833541798219760E-006
                   246  1.693160781915640E-006
 Sym= __2_a__
 Ene=  0.000000000000000E+000
 Spin= Alpha
 Occup=    2.00000000000000     
                     1 -7.483659706199510E-006
                     2 -8.638015034980750E-005
                     3  1.714776098533250E-003
                     4 -2.009470497720900E-005
                     5  1.203112610821240E-003
                     6  1.692727108207350E-003
                     7  7.010412288118191E-005
                     8 -2.071484007745590E-004
                     9 -1.553420530082000E-004
                    10  1.032621143103880E-004
                    11 -2.871623373908010E-005
                    12  1.281346644595890E-004
                    13  1.251613373122350E-004
                    14  5.160825805648960E-005
                    15 -6.429320157065061E-005
                    16  1.510279946652580E-005
                    17 -8.644146806145410E-006
                    18  4.476002650994580E-005
                    19 -7.981566885212470E-007
                    20  1.308884502714621E-004
                    21 -7.035971360764510E-005
                    22  3.435023352070540E-005
                    23  1.186089544341644E-004
                    24 -6.135552941040221E-005
                    25 -6.101647226481881E-005
                    26  1.301999716319752E-004
                    27 -7.594450339066193E-006
                    28 -1.097015888258300E-005
                    29 -2.195413264127940E-006
                    30  1.267016016654997E-004
                    31  3.348888729407558E-005
                    32   1.00092767059730     
                    33  8.724181529470120E-003
                    34  2.819181215717580E-003
                    35 -8.326442134232359E-003
                    36 -2.274249737381050E-003
                    37  5.117698274806450E-004
                    38  3.816484732808140E-005
                    39  1.079766982146810E-003
                    40 -1.863751502017110E-004
                    41 -1.418767868403800E-004
                    42  3.123338431242700E-003
                    43 -1.050011427894080E-004
                    44 -1.806299759212430E-004
                    45  3.040870402954485E-004
                    46  1.902386680786340E-005
                    47 -2.506369057445600E-005
                    48  3.818108492317840E-004
                    49 -8.833755080835380E-006
                    50 -1.011991739934861E-003
                    51 -1.807914731738870E-004
                    52  9.213209948102929E-005
                    53 -1.418011040028720E-004
                    54  1.562701237152380E-005
                    55 -1.251814671562136E-005
                    56  2.898489485538469E-004
                    57 -8.762584365155007E-006
                    58 -1.887159839994310E-005
                    59 -7.796002641964411E-006
                    60  7.372668843483538E-005
                    61  1.244492097700946E-005
                    62  1.364927197738430E-002
                    63 -1.800114189689810E-003
                    64 -2.872247318468120E-004
                    65  2.965611335685520E-003
                    66 -1.652917784704540E-004
                    67  6.407455554489720E-005
                    68  3.053732226841780E-004
                    69  3.216417116353500E-005
                    70 -1.744835687737850E-005
                    71  3.954205028316950E-004
                    72  4.257008865406750E-004
                    73  8.321178876622990E-005
                    74 -1.821843645633640E-003
                    75 -5.950704987372392E-006
                    76  2.569685614009780E-005
                    77  7.044956104753260E-006
                    78 -3.965341053213880E-005
                    79 -3.527724992858120E-006
                    80 -4.647709087749180E-004
                    81 -4.099090944469430E-004
                    82  1.499582929674620E-005
                    83  7.873644700706800E-004
                    84  1.034188944501620E-005
                    85  4.450190521818669E-005
                    86  1.091800457592324E-004
                    87  1.171435871590623E-005
                    88 -1.855346530435758E-005
                    89 -1.584270580135290E-005
                    90 -2.483222809871639E-005
                    91  2.353696354863437E-006
                    92  1.520617931398700E-002
                    93 -1.723903447923160E-003
                    94 -3.363128266323400E-004
                    95  3.255537782870230E-003
                    96 -2.044936136066830E-004
                    97  9.237182638759140E-005
                    98 -2.960092187940880E-004
                    99 -2.697304318379550E-005
                   100  3.361829856318980E-005
                   101 -6.434207516840010E-004
                   102  3.258139606716360E-005
                   103 -7.953863127734730E-005
                   104  1.698452358194010E-003
                   105 -3.596019157682460E-007
                   106 -1.570633604550930E-005
                   107 -2.367305690459170E-006
                   108 -3.216199636040480E-005
                   109 -3.209217385235220E-006
                   110 -3.286300781100772E-004
                   111  4.915676167925709E-004
                   112 -1.562058667326320E-005
                   113  6.990837925660280E-004
                   114 -1.468422660481410E-005
                   115 -5.148576187856166E-005
                   116  9.673862013033453E-005
                   117 -4.234487372507966E-006
                   118  2.042100394330640E-005
                   119 -1.841644487337760E-006
                   120 -3.292753580342166E-005
                   121  3.557763389777522E-006
                   122 -1.330879330703400E-004
                   123 -7.624617542007830E-004
                   124  2.414600069796940E-004
                   125 -2.749724514510350E-004
                   126 -1.707672106832370E-004
                   127  1.664046648483190E-005
                   128 -5.346540500632800E-005
                   129  6.082519913685520E-004
                   130 -9.491617284357750E-006
                   131  7.976795423785000E-005
                   132  7.036363227744840E-004
                   133 -1.736137750504510E-005
                   134  4.168624249273260E-004
                   135  5.324056481657239E-007
                   136  4.043308561039610E-005
                   137  8.127128372594340E-007
                   138 -3.337661882847920E-005
                   139 -2.849584033621800E-006
                   140  1.978269936375460E-004
                   141 -2.627376744778180E-004
                   142 -4.348257179049690E-007
                   143 -2.514508275631980E-004
                   144  1.052712623274300E-005
                   145 -1.725593345339562E-005
                   146  1.511841098027425E-005
                   147 -1.455195834508844E-006
                   148 -1.006063867387878E-005
                   149 -2.876848711297850E-006
                   150 -2.202407690507374E-005
                   151  8.683761421059286E-007
                   152 -9.341604453037770E-005
                   153 -7.225554967260720E-004
                   154  2.521798202230770E-004
                   155 -3.160473929307360E-004
                   156 -1.502799153905960E-004
                   157  1.575111830833930E-006
                   158  3.362923680281130E-005
                   159  5.546056266248710E-004
                   160  8.830074049977171E-006