[Molden Format]
[Atoms] AU
  N     1    7     0.0000000000    0.0000000000   -4.2811540200        
  C     2    6     0.0000000000    0.0000000000   -1.7720655600        
  C     3    6     0.0000000000   -2.3406801100   -0.4090214200        
  C     4    6     0.0000000000    2.3406801100   -0.4090214200        
  C     5    6     0.0000000000   -2.3015406800    2.1609603600        
  C     6    6     0.0000000000    2.3015406800    2.1609603600        
  C     7    6     0.0000000000    0.0000000000    3.4718140200        
  H     8    1     0.0000000000   -1.6561463800   -5.3032963000        
  H     9    1     0.0000000000    1.6561463800   -5.3032963000        
  H    10    1     0.0000000000   -4.0741320200   -1.4447620900        
  H    11    1     0.0000000000    4.0741320200   -1.4447620900        
  H    12    1     0.0000000000   -4.0420130800    3.1955909800        
  H    13    1     0.0000000000    4.0420130800    3.1955909800        
  H    14    1     0.0000000000    0.0000000000    5.4980953100        
[5D]
[7F]
[GTO]
  1  0
   s    12 1.00
  0.114200D+05  0.172695D-04
  0.171200D+04  0.134411D-03
  0.389300D+03  0.694561D-03
  0.110000D+03  0.278531D-02
  0.355700D+02  0.863457D-02
  0.125400D+02  0.199805D-01
  0.464400D+01  0.262908D-01
  0.129300D+01 -0.243845D-01
  0.511800D+00 -0.924934D-01
  0.178700D+00 -0.339683D+00
  0.246240D-01  0.345111D+00
  0.112530D-01  0.752750D+00
   s    10 1.00
  0.114200D+05  0.523000D-03
  0.171200D+04  0.404500D-02
  0.389300D+03  0.207750D-01
  0.110000D+03  0.807269D-01
  0.355700D+02  0.233074D+00
  0.125400D+02  0.433501D+00
  0.464400D+01  0.347472D+00
  0.129300D+01  0.412620D-01
  0.511800D+00 -0.850799D-02
  0.178700D+00  0.238400D-02
   s    10 1.00
  0.114200D+05 -0.115000D-03
  0.171200D+04 -0.895000D-03
  0.389300D+03 -0.462400D-02
  0.110000D+03 -0.185280D-01
  0.355700D+02 -0.573390D-01
  0.125400D+02 -0.132076D+00
  0.464400D+01 -0.172510D+00
  0.129300D+01  0.151814D+00
  0.511800D+00  0.599944D+00
  0.178700D+00  0.387462D+00
   s     1 1.00
  0.129300D+01  0.100000D+01
   s     1 1.00
  0.178700D+00  0.100000D+01
   p     5 1.00
  0.266300D+02  0.146700D-01
  0.594800D+01  0.917640D-01
  0.174200D+01  0.298683D+00
  0.555000D+00  0.498487D+00
  0.172500D+00  0.337023D+00
   p     1 1.00
  0.174200D+01  0.100000D+01
   p     1 1.00
  0.555000D+00  0.100000D+01
   d     1 1.00
  0.165400D+01  0.100000D+01
   d     1 1.00
  0.469000D+00  0.100000D+01
   f     1 1.00
  0.109300D+01  0.100000D+01
  
  2  0
   s    10 1.00
  0.823600D+04  0.531000D-03
  0.123500D+04  0.410800D-02
  0.280800D+03  0.210870D-01
  0.792700D+02  0.818530D-01
  0.255900D+02  0.234817D+00
  0.899700D+01  0.434401D+00
  0.331900D+01  0.346129D+00
  0.905900D+00  0.393780D-01
  0.364300D+00 -0.898300D-02
  0.128500D+00  0.238500D-02
   s    10 1.00
  0.823600D+04 -0.113000D-03
  0.123500D+04 -0.878000D-03
  0.280800D+03 -0.454000D-02
  0.792700D+02 -0.181330D-01
  0.255900D+02 -0.557600D-01
  0.899700D+01 -0.126895D+00
  0.331900D+01 -0.170352D+00
  0.905900D+00  0.140382D+00
  0.364300D+00  0.598684D+00
  0.128500D+00  0.395389D+00
   s     1 1.00
  0.905900D+00  0.100000D+01
   s     1 1.00
  0.364300D+00  0.100000D+01
   p     5 1.00
  0.187100D+02  0.140310D-01
  0.413300D+01  0.868660D-01
  0.120000D+01  0.290216D+00
  0.382700D+00  0.501008D+00
  0.120900D+00  0.343406D+00
   p     1 1.00
  0.382700D+00  0.100000D+01
   p     1 1.00
  0.120900D+00  0.100000D+01
   d     1 1.00
  0.109700D+01  0.100000D+01
   d     1 1.00
  0.318000D+00  0.100000D+01
   f     1 1.00
  0.761000D+00  0.100000D+01
  
  3  0
   s    10 1.00
  0.823600D+04  0.531000D-03
  0.123500D+04  0.410800D-02
  0.280800D+03  0.210870D-01
  0.792700D+02  0.818530D-01
  0.255900D+02  0.234817D+00
  0.899700D+01  0.434401D+00
  0.331900D+01  0.346129D+00
  0.905900D+00  0.393780D-01
  0.364300D+00 -0.898300D-02
  0.128500D+00  0.238500D-02
   s    10 1.00
  0.823600D+04 -0.113000D-03
  0.123500D+04 -0.878000D-03
  0.280800D+03 -0.454000D-02
  0.792700D+02 -0.181330D-01
  0.255900D+02 -0.557600D-01
  0.899700D+01 -0.126895D+00
  0.331900D+01 -0.170352D+00
  0.905900D+00  0.140382D+00
  0.364300D+00  0.598684D+00
  0.128500D+00  0.395389D+00
   s     1 1.00
  0.905900D+00  0.100000D+01
   s     1 1.00
  0.364300D+00  0.100000D+01
   p     5 1.00
  0.187100D+02  0.140310D-01
  0.413300D+01  0.868660D-01
  0.120000D+01  0.290216D+00
  0.382700D+00  0.501008D+00
  0.120900D+00  0.343406D+00
   p     1 1.00
  0.382700D+00  0.100000D+01
   p     1 1.00
  0.120900D+00  0.100000D+01
   d     1 1.00
  0.109700D+01  0.100000D+01
   d     1 1.00
  0.318000D+00  0.100000D+01
   f     1 1.00
  0.761000D+00  0.100000D+01
  
  4  0
   s    10 1.00
  0.823600D+04  0.531000D-03
  0.123500D+04  0.410800D-02
  0.280800D+03  0.210870D-01
  0.792700D+02  0.818530D-01
  0.255900D+02  0.234817D+00
  0.899700D+01  0.434401D+00
  0.331900D+01  0.346129D+00
  0.905900D+00  0.393780D-01
  0.364300D+00 -0.898300D-02
  0.128500D+00  0.238500D-02
   s    10 1.00
  0.823600D+04 -0.113000D-03
  0.123500D+04 -0.878000D-03
  0.280800D+03 -0.454000D-02
  0.792700D+02 -0.181330D-01
  0.255900D+02 -0.557600D-01
  0.899700D+01 -0.126895D+00
  0.331900D+01 -0.170352D+00
  0.905900D+00  0.140382D+00
  0.364300D+00  0.598684D+00
  0.128500D+00  0.395389D+00
   s     1 1.00
  0.905900D+00  0.100000D+01
   s     1 1.00
  0.364300D+00  0.100000D+01
   p     5 1.00
  0.187100D+02  0.140310D-01
  0.413300D+01  0.868660D-01
  0.120000D+01  0.290216D+00
  0.382700D+00  0.501008D+00
  0.120900D+00  0.343406D+00
   p     1 1.00
  0.382700D+00  0.100000D+01
   p     1 1.00
  0.120900D+00  0.100000D+01
   d     1 1.00
  0.109700D+01  0.100000D+01
   d     1 1.00
  0.318000D+00  0.100000D+01
   f     1 1.00
  0.761000D+00  0.100000D+01
  
  5  0
   s    10 1.00
  0.823600D+04  0.531000D-03
  0.123500D+04  0.410800D-02
  0.280800D+03  0.210870D-01
  0.792700D+02  0.818530D-01
  0.255900D+02  0.234817D+00
  0.899700D+01  0.434401D+00
  0.331900D+01  0.346129D+00
  0.905900D+00  0.393780D-01
  0.364300D+00 -0.898300D-02
  0.128500D+00  0.238500D-02
   s    10 1.00
  0.823600D+04 -0.113000D-03
  0.123500D+04 -0.878000D-03
  0.280800D+03 -0.454000D-02
  0.792700D+02 -0.181330D-01
  0.255900D+02 -0.557600D-01
  0.899700D+01 -0.126895D+00
  0.331900D+01 -0.170352D+00
  0.905900D+00  0.140382D+00
  0.364300D+00  0.598684D+00
  0.128500D+00  0.395389D+00
   s     1 1.00
  0.905900D+00  0.100000D+01
   s     1 1.00
  0.364300D+00  0.100000D+01
   p     5 1.00
  0.187100D+02  0.140310D-01
  0.413300D+01  0.868660D-01
  0.120000D+01  0.290216D+00
  0.382700D+00  0.501008D+00
  0.120900D+00  0.343406D+00
   p     1 1.00
  0.382700D+00  0.100000D+01
   p     1 1.00
  0.120900D+00  0.100000D+01
   d     1 1.00
  0.109700D+01  0.100000D+01
   d     1 1.00
  0.318000D+00  0.100000D+01
   f     1 1.00
  0.761000D+00  0.100000D+01
  
  6  0
   s    10 1.00
  0.823600D+04  0.531000D-03
  0.123500D+04  0.410800D-02
  0.280800D+03  0.210870D-01
  0.792700D+02  0.818530D-01
  0.255900D+02  0.234817D+00
  0.899700D+01  0.434401D+00
  0.331900D+01  0.346129D+00
  0.905900D+00  0.393780D-01
  0.364300D+00 -0.898300D-02
  0.128500D+00  0.238500D-02
   s    10 1.00
  0.823600D+04 -0.113000D-03
  0.123500D+04 -0.878000D-03
  0.280800D+03 -0.454000D-02
  0.792700D+02 -0.181330D-01
  0.255900D+02 -0.557600D-01
  0.899700D+01 -0.126895D+00
  0.331900D+01 -0.170352D+00
  0.905900D+00  0.140382D+00
  0.364300D+00  0.598684D+00
  0.128500D+00  0.395389D+00
   s     1 1.00
  0.905900D+00  0.100000D+01
   s     1 1.00
  0.364300D+00  0.100000D+01
   p     5 1.00
  0.187100D+02  0.140310D-01
  0.413300D+01  0.868660D-01
  0.120000D+01  0.290216D+00
  0.382700D+00  0.501008D+00
  0.120900D+00  0.343406D+00
   p     1 1.00
  0.382700D+00  0.100000D+01
   p     1 1.00
  0.120900D+00  0.100000D+01
   d     1 1.00
  0.109700D+01  0.100000D+01
   d     1 1.00
  0.318000D+00  0.100000D+01
   f     1 1.00
  0.761000D+00  0.100000D+01
  
  7  0
   s    10 1.00
  0.823600D+04  0.531000D-03
  0.123500D+04  0.410800D-02
  0.280800D+03  0.210870D-01
  0.792700D+02  0.818530D-01
  0.255900D+02  0.234817D+00
  0.899700D+01  0.434401D+00
  0.331900D+01  0.346129D+00
  0.905900D+00  0.393780D-01
  0.364300D+00 -0.898300D-02
  0.128500D+00  0.238500D-02
   s    10 1.00
  0.823600D+04 -0.113000D-03
  0.123500D+04 -0.878000D-03
  0.280800D+03 -0.454000D-02
  0.792700D+02 -0.181330D-01
  0.255900D+02 -0.557600D-01
  0.899700D+01 -0.126895D+00
  0.331900D+01 -0.170352D+00
  0.905900D+00  0.140382D+00
  0.364300D+00  0.598684D+00
  0.128500D+00  0.395389D+00
   s     1 1.00
  0.905900D+00  0.100000D+01
   s     1 1.00
  0.364300D+00  0.100000D+01
   p     5 1.00
  0.187100D+02  0.140310D-01
  0.413300D+01  0.868660D-01
  0.120000D+01  0.290216D+00
  0.382700D+00  0.501008D+00
  0.120900D+00  0.343406D+00
   p     1 1.00
  0.382700D+00  0.100000D+01
   p     1 1.00
  0.120900D+00  0.100000D+01
   d     1 1.00
  0.109700D+01  0.100000D+01
   d     1 1.00
  0.318000D+00  0.100000D+01
   f     1 1.00
  0.761000D+00  0.100000D+01
  
  8  0
   s     4 1.00
  0.130100D+02  0.196850D-01
  0.196200D+01  0.137977D+00
  0.444600D+00  0.478148D+00
  0.122000D+00  0.501240D+00
   s     1 1.00
  0.122000D+00  0.100000D+01
   p     1 1.00
  0.727000D+00  0.100000D+01
  
  9  0
   s     4 1.00
  0.130100D+02  0.196850D-01
  0.196200D+01  0.137977D+00
  0.444600D+00  0.478148D+00
  0.122000D+00  0.501240D+00
   s     1 1.00
  0.122000D+00  0.100000D+01
   p     1 1.00
  0.727000D+00  0.100000D+01
  
 10  0
   s     4 1.00
  0.130100D+02  0.196850D-01
  0.196200D+01  0.137977D+00
  0.444600D+00  0.478148D+00
  0.122000D+00  0.501240D+00
   s     1 1.00
  0.122000D+00  0.100000D+01
   p     1 1.00
  0.727000D+00  0.100000D+01
  
 11  0
   s     4 1.00
  0.130100D+02  0.196850D-01
  0.196200D+01  0.137977D+00
  0.444600D+00  0.478148D+00
  0.122000D+00  0.501240D+00
   s     1 1.00
  0.122000D+00  0.100000D+01
   p     1 1.00
  0.727000D+00  0.100000D+01
  
 12  0
   s     4 1.00
  0.130100D+02  0.196850D-01
  0.196200D+01  0.137977D+00
  0.444600D+00  0.478148D+00
  0.122000D+00  0.501240D+00
   s     1 1.00
  0.122000D+00  0.100000D+01
   p     1 1.00
  0.727000D+00  0.100000D+01
  
 13  0
   s     4 1.00
  0.130100D+02  0.196850D-01
  0.196200D+01  0.137977D+00
  0.444600D+00  0.478148D+00
  0.122000D+00  0.501240D+00
   s     1 1.00
  0.122000D+00  0.100000D+01
   p     1 1.00
  0.727000D+00  0.100000D+01
  
 14  0
   s     4 1.00
  0.130100D+02  0.196850D-01
  0.196200D+01  0.137977D+00
  0.444600D+00  0.478148D+00
  0.122000D+00  0.501240D+00
   s     1 1.00
  0.122000D+00  0.100000D+01
   p     1 1.00
  0.727000D+00  0.100000D+01
  
[MO]
 Sym= __1_A__
 Ene=  0.000000000000000E+000
 Spin= Alpha
 Occup=    2.00000000000000     
                     1  2.062978722810470E-005
                     2  0.998252184739477     
                     3  2.941936055013570E-003
                     4  2.100072065596353E-003
                     5  2.615967327483838E-003
                     6  5.448351401522501E-012
                     7  2.110548992243491E-009
                     8  3.940206480370531E-003
                     9  3.473645236978211E-012
                    10  1.083775369012318E-008
                    11  2.485731507465210E-005
                    12 -9.258770393946204E-012
                    13 -5.633407228243519E-008
                    14 -8.950351113263634E-005
                    15  2.358471107536879E-004
                    16 -6.766488737612618E-013
                    17 -4.038104216366356E-010
                    18 -6.176020925837651E-005
                    19  4.208711097879785E-013
                    20 -1.850187324037200E-006
                    21 -2.790694086556013E-012
                    22 -3.484950501731432E-009
                    23  4.819171853345372E-004
                    24  1.707031247360503E-012
                    25 -1.369606665609550E-004
                    26 -5.193779503010472E-013
                    27 -7.118640845899841E-009
                    28  6.546150600592634E-005
                    29  1.235651002807991E-012
                    30  1.120547717613793E-012
                    31  7.415048829517519E-010
                    32 -2.438013444924708E-004
                    33  1.955290309083942E-003
                    34  1.096074791090252E-004
                    35 -3.570683412471875E-005
                    36  8.767542564947655E-013
                    37  2.270908627484779E-008
                    38 -4.886699041204466E-003
                    39 -1.221385351221886E-013
                    40 -9.583269604641366E-008
                    41  2.843925839334764E-006
                    42 -3.083985237304042E-012
                    43 -1.357937813884032E-007
                    44  3.881467988004692E-003
                    45  2.521237746717392E-004
                    46 -1.276262036991708E-012
                    47  4.600271522786155E-009
                    48  1.061506986393919E-004
                    49 -2.198317021672015E-012
                    50  1.030282459325758E-004
                    51 -2.764006405694193E-012
                    52 -1.333580814554736E-007
                    53 -3.560874369642366E-004
                    54 -2.696335997137805E-012
                    55 -1.230858742657735E-004
                    56  2.872477474609493E-012
                    57  5.676346023994811E-009
                    58  6.497133025953516E-005
                    59 -1.762466413001432E-012
                    60  3.918777513997078E-013
                    61  4.022702404440617E-009
                    62 -1.884045768961453E-004
                    63 -1.187303723111453E-003
                    64  2.721756635573071E-005
                    65  5.737398140724039E-004
                    66  5.964287322304085E-012
                    67 -5.563080296093062E-004
                    68  4.783146585615556E-004
                    69 -2.769617082698811E-012
                    70 -1.100013645542302E-005
                    71  5.946623122542425E-004
                    72 -1.823994947881616E-012
                    73 -6.012437301396552E-004
                    74 -1.888070381899708E-004
                    75  6.734428338742542E-005
                    76  9.879180331854368E-013
                    77 -8.798935610025170E-006
                    78  1.999927962929447E-005
                    79 -2.341699245178678E-012
                    80 -7.297353138385003E-006
                    81  2.789816856385699E-013
                    82  1.088412107923519E-004
                    83 -3.353381669095782E-005
                    84  1.242487756341954E-012
                    85 -9.448268289171360E-005
                    86  1.840542091205156E-013
                    87 -3.538762878655575E-005
                    88  2.584283580484314E-005
                    89  1.462446141149062E-012
                    90  9.225816276004057E-013
                    91  8.184784268781855E-006
                    92 -1.883970219509975E-004
                    93 -1.187259855698835E-003
                    94  2.734320726901809E-005
                    95  5.733232829772358E-004
                    96 -2.309417675064502E-012
                    97  5.563389225170150E-004
                    98  4.784119731649009E-004
                    99  4.458797778560436E-012
                   100  1.083761431123974E-005
                   101  5.940672544084273E-004
                   102 -4.792088166843545E-012
                   103  6.008009032601145E-004
                   104 -1.889943057067582E-004
                   105  6.731782938551086E-005
                   106  1.025132023409537E-013
                   107  8.809403807269774E-006
                   108  2.000207596863526E-005
                   109 -1.374704668090393E-012
                   110 -7.660878336104367E-006
                   111 -5.026939065612097E-012
                   112 -1.088754026104177E-004
                   113 -3.363335424803654E-005
                   114 -5.923544692378422E-013
                   115 -9.443391315954598E-005
                   116 -1.604062748596081E-012
                   117  3.537008334934851E-005
                   118  2.584564165224640E-005
                   119  1.890605491104758E-012
                   120  1.981147739273102E-012
                   121 -8.183803741405687E-006
                   122 -1.198391696430236E-004
                   123 -1.117578209975749E-004
                   124  1.067249607704528E-004
                   125  6.524297383730308E-005
                   126 -6.522547275513215E-012
                   127  1.553522987389170E-005
                   128 -4.485766665045333E-004
                   129  2.237720198587087E-012
                   130  6.140376582219014E-005
                   131  3.320074818024620E-004
                   132  2.790952677808915E-012
                   133 -1.869915168449168E-004
                   134  6.253299118462943E-004
                   135 -2.607861750413369E-005
                   136 -1.479706300166702E-013
                   137 -4.841420385028275E-006
                   138 -1.301088566593678E-006
                   139 -2.792914238390403E-012
                   140 -1.974708577043196E-004
                   141 -1.730117376610969E-012
                   142  1.291666876772328E-004
                   143  1.714004416428947E-005
                   144  7.111097840043515E-013
                   145 -4.424246452550157E-005
                   146 -5.467468749548369E-013
                   147  9.212280560398501E-006
                   148 -6.820740977939584E-006
                   149  2.458567095057351E-013
                   150 -2.902854791483274E-012
                   151 -3.636547458744743E-006
                   152 -1.201369624104931E-004
                   153 -1.128088484179562E-004
                   154  1.064587176352079E-004
                   155  6.699584177631402E-005
                   156 -7.260287229313433E-012
                   157 -1.559463752491415E-005
                   158 -4.484997460933108E-004
                   159  5.732578150741473E-012
                   160 -6.127191437250624E-005
                   161  3.314940413397459E-004
                   162  7.463938570117060E-012
                   163  1.874865965839139E-004
                   164  6.251435334871117E-004
                   165 -2.604103768061691E-005
                   166 -1.172552678115634E-012
                   167  4.850176676136296E-006
                   168 -1.319895343733387E-006
                   169 -1.205791822984443E-012
                   170 -1.972605965531786E-004
                   171 -3.716070045067875E-012
                   172 -1.292069906133466E-004
                   173  1.718710465746926E-005
                   174 -1.348780798547758E-012
                   175 -4.418427090323356E-005
                   176 -1.678899953516862E-012
                   177 -9.184957949697662E-006
                   178 -6.837666101003686E-006
                   179 -1.401336513515585E-012
                   180 -7.364914786198033E-013
                   181  3.627501314767582E-006
                   182 -9.080132417758877E-005
                   183 -2.290591333651337E-004
                   184  2.620145046535122E-005
                   185  1.030500540317545E-004
                   186  1.811825944709298E-013
                   187 -1.522651392774134E-008
                   188 -5.415915930340744E-005
                   189  9.175583817231918E-013
                   190  1.015335081918251E-008
                   191  3.238418403348995E-005
                   192 -3.753501405974029E-012
                   193  1.627816232658148E-007
                   194 -1.161766518679128E-005
                   195  1.344755442268976E-005
                   196 -2.365117016951179E-012
                   197  3.195010120851795E-009
                   198  5.352773846332822E-006
                   199 -1.515288625867929E-012
                   200  4.694429824629853E-005
                   201  2.818288861548190E-012
                   202  3.627546765023618E-009
                   203  4.504134062256380E-005
                   204 -4.895661510443200E-013
                   205 -8.831048821367056E-006
                   206 -7.990471336151611E-013
                   207 -7.176204952036759E-009
                   208  1.458223255871295E-006
                   209  1.378282885573865E-012
                   210  1.452214553136516E-012
                   211 -2.442754066755390E-010
                   212  1.580140155814893E-003
                   213 -1.299281410339299E-003
                   214  1.441070912037533E-012
                   215  2.775874561291593E-004
                   216  2.479862786943342E-004
                   217  1.580195502010406E-003
                   218 -1.299299771512963E-003
                   219 -6.972411593076259E-013
                   220 -2.776143668557752E-004
                   221  2.479966194281353E-004
                   222 -3.622657122828279E-004
                   223 -2.454830017934643E-004
                   224 -8.529897367115110E-013
                   225 -6.793898837637006E-007
                   226 -3.539735337374469E-005
                   227 -3.623262711829082E-004
                   228 -2.452866638183199E-004
                   229  6.814756497181784E-013
                   230  6.613958550193418E-007
                   231 -3.542143514401210E-005
                   232 -1.032544154924553E-004
                   233 -3.992787329098721E-004
                   234  2.070526154146847E-012
                   235  4.249085553387486E-006
                   236  2.582282857607680E-006
                   237 -1.033617974701373E-004
                   238 -3.993215988401308E-004
                   239  1.814646104167117E-012
                   240 -4.195363599907522E-006
                   241  2.605370653565735E-006
                   242  1.414999591054140E-005
                   243 -8.971579173817890E-005
                   244 -9.099855786433272E-013
                   245 -2.108406493240291E-010
                   246  1.398120033756931E-005
 Sym= __2_A__
 Ene=  0.000000000000000E+000
 Spin= Alpha
 Occup=    2.00000000000000     
                     1 -4.734136610813459E-005
                     2 -2.503737285152711E-004
                     3  2.383310759212284E-003
                     4  9.923228551355511E-005
                     5  1.264688070173650E-003
                     6 -9.926599363451541E-012
                     7  5.437834035871787E-009
                     8  3.009121905722203E-003
                     9  9.394165817411450E-013
                    10 -4.061601225610062E-009
                    11 -5.243219831028662E-005
                    12  1.220872877146039E-011
                    13  5.749718605975996E-009
                    14 -5.298205269270436E-004
                    15  4.510984493652834E-005
                    16 -1.755321080916877E-012
                    17  4.670668318535887E-010
                    18  6.476990992863700E-005
                    19 -5.730585595679928E-013
                    20 -2.975014720470909E-004
                    21 -2.114920698585516E-012
                    22  3.062449756391848E-010
                    23 -3.369994770124920E-004
                    24  2.168824051872135E-012
                    25  1.901772701186428E-004
                    26  3.586259268369721E-012
                    27 -8.149773827584680E-010
                    28 -1.636711310830073E-006
                    29 -3.286145295656524E-012
                    30 -6.014618078721914E-013
                    31  8.256956962583096E-010
                    32   1.00104656079751     
                    33  9.286888396434332E-003
                    34  2.688270184445305E-003
                    35 -7.754483106467356E-003
                    36  8.425462548528533E-012
                    37 -5.948450424888494E-009
                    38 -4.463085863222650E-003
                    39 -6.943353957818056E-012
                    40  2.909064418298895E-009
                    41  1.300974149302154E-003
                    42  7.375773545212698E-012
                    43 -6.549098011947894E-008
                    44  4.553128664022835E-003
                    45  4.874223897333906E-004
                    46  2.078234499051577E-012
                    47 -3.244302360215717E-009
                    48 -4.283580554261006E-004
                    49  5.015151822529528E-012
                    50  5.543879373475991E-004
                    51  5.890814378502903E-012
                    52  1.282034688662574E-008
                    53  9.287670924457138E-004
                    54  3.976208261360003E-012
                    55  3.843043419870478E-004
                    56 -5.268021307425709E-012
                    57 -7.215465975353177E-010
                    58 -2.153901024775326E-004
                    59  4.403874669786481E-012
                    60  1.084692439056966E-012
                    61  1.656504621068197E-009
                    62  6.309174492263274E-003
                    63 -2.058593900238537E-003
                    64 -2.729067257365583E-004
                    65  3.027503485001474E-003
                    66 -8.800670252496314E-012
                    67  9.786383746049130E-005
                    68 -3.429394755243563E-005
                    69  3.941467660978711E-012
                    70  5.679975771392870E-004
                    71  4.081433722498479E-005
                    72 -4.495149918061106E-012
                    73 -2.114485787056985E-003
                    74  1.086535138850037E-004
                    75 -1.564485047493888E-005
                    76 -3.243124901012666E-012
                    77  1.783571098754293E-005
                    78  3.051371054487530E-005
                    79  1.325347441362096E-012
                    80  7.781721939924750E-004
                    81 -5.611284904928147E-012
                    82 -4.332549405631649E-004
                    83  1.333720788178313E-007
                    84  1.162564343485498E-012
                    85  7.367276726834965E-005
                    86 -1.758188305351668E-012
                    87  4.967176746754319E-005
                    88 -1.254850463512084E-004
                    89 -7.860325251020078E-012
                    90  2.324102578660526E-012
                    91  5.138021471869038E-005
                    92  6.309148470446061E-003
                    93 -2.058687259701702E-003
                    94 -2.729548553713719E-004
                    95  3.027730805242049E-003
                    96  8.090677599380382E-012
                    97 -9.786551315403517E-005
                    98 -3.431941295682318E-005
                    99 -9.550434549514864E-012
                   100 -5.679926817025396E-004
                   101  4.096569809778534E-005
                   102  6.587370717356488E-012
                   103  2.114629778492724E-003
                   104  1.084969862461618E-004
                   105 -1.562838852020506E-005
                   106 -3.057959579858927E-013
                   107 -1.784257955248617E-005
                   108  3.051211328405432E-005
                   109 -2.685725440313013E-013
                   110  7.782423619126013E-004
                   111  8.498585483541268E-012
                   112  4.333072488738533E-004
                   113  1.551394871436760E-007
                   114  5.274921793824290E-012
                   115  7.365786147325215E-005
                   116  1.703130187854945E-012
                   117 -4.966870826236999E-005
                   118 -1.254823878520938E-004
                   119 -1.935517729274254E-012
                   120  2.446673623392167E-012
                   121 -5.137870999785149E-005
                   122 -2.488555538571365E-004
                   123 -7.736279187455013E-004
                   124  2.259324377122520E-004
                   125 -1.265347647281605E-004
                   126  1.717108260662064E-011
                   127 -2.428008181307975E-005
                   128 -2.292551017806504E-004
                   129 -4.272270975538019E-012
                   130  1.597117881296173E-006
                   131  5.367746638926061E-004
                   132 -1.052614720130600E-011
                   133  3.459935156922189E-004
                   134  7.406159378517982E-004
                   135 -1.472852582491671E-005
                   136  1.864976546271331E-012
                   137  5.346946726727302E-005
                   138  1.457761042564656E-005
                   139  4.058947425092638E-012
                   140 -2.948479830746095E-004
                   141 -3.345897463430366E-012
                   142 -2.372089358872153E-004
                   143 -1.785589213684084E-005
                   144 -5.299683899997136E-013
                   145  1.004517490173040E-006
                   146  1.427071567780698E-012
                   147 -3.997684831664273E-005
                   148 -3.740793899954252E-005
                   149  1.556218205881931E-012
                   150 -1.690951769877844E-012
                   151 -5.903784805869169E-006
                   152 -2.485487862814482E-004
                   153 -7.726069490459020E-004
                   154  2.260060718221491E-004
                   155 -1.276269677247290E-004
                   156  4.298769067195853E-012
                   157  2.427126266715444E-005
                   158 -2.292604774029298E-004
                   159 -6.438269443179470E-012
                   160 -1.556295631009287E-006