[Molden Format]
[Atoms] AU
  N     1    7     0.0000000000    0.0000000000   -4.2811540200        
  C     2    6     0.0000000000    0.0000000000   -1.7720655600        
  C     3    6     0.0000000000   -2.3406801100   -0.4090214200        
  C     4    6     0.0000000000    2.3406801100   -0.4090214200        
  C     5    6     0.0000000000   -2.3015406800    2.1609603600        
  C     6    6     0.0000000000    2.3015406800    2.1609603600        
  C     7    6     0.0000000000    0.0000000000    3.4718140200        
  H     8    1     0.0000000000   -1.6561463800   -5.3032963000        
  H     9    1     0.0000000000    1.6561463800   -5.3032963000        
  H    10    1     0.0000000000   -4.0741320200   -1.4447620900        
  H    11    1     0.0000000000    4.0741320200   -1.4447620900        
  H    12    1     0.0000000000   -4.0420130800    3.1955909800        
  H    13    1     0.0000000000    4.0420130800    3.1955909800        
  H    14    1     0.0000000000    0.0000000000    5.4980953100        
[5D]
[7F]
[GTO]
  1  0
   s    12 1.00
  0.114200D+05  0.172695D-04
  0.171200D+04  0.134411D-03
  0.389300D+03  0.694561D-03
  0.110000D+03  0.278531D-02
  0.355700D+02  0.863457D-02
  0.125400D+02  0.199805D-01
  0.464400D+01  0.262908D-01
  0.129300D+01 -0.243845D-01
  0.511800D+00 -0.924934D-01
  0.178700D+00 -0.339683D+00
  0.246240D-01  0.345111D+00
  0.112530D-01  0.752750D+00
   s    10 1.00
  0.114200D+05  0.523000D-03
  0.171200D+04  0.404500D-02
  0.389300D+03  0.207750D-01
  0.110000D+03  0.807269D-01
  0.355700D+02  0.233074D+00
  0.125400D+02  0.433501D+00
  0.464400D+01  0.347472D+00
  0.129300D+01  0.412620D-01
  0.511800D+00 -0.850799D-02
  0.178700D+00  0.238400D-02
   s    10 1.00
  0.114200D+05 -0.115000D-03
  0.171200D+04 -0.895000D-03
  0.389300D+03 -0.462400D-02
  0.110000D+03 -0.185280D-01
  0.355700D+02 -0.573390D-01
  0.125400D+02 -0.132076D+00
  0.464400D+01 -0.172510D+00
  0.129300D+01  0.151814D+00
  0.511800D+00  0.599944D+00
  0.178700D+00  0.387462D+00
   s     1 1.00
  0.129300D+01  0.100000D+01
   s     1 1.00
  0.178700D+00  0.100000D+01
   p     5 1.00
  0.266300D+02  0.146700D-01
  0.594800D+01  0.917640D-01
  0.174200D+01  0.298683D+00
  0.555000D+00  0.498487D+00
  0.172500D+00  0.337023D+00
   p     1 1.00
  0.174200D+01  0.100000D+01
   p     1 1.00
  0.555000D+00  0.100000D+01
   d     1 1.00
  0.165400D+01  0.100000D+01
   d     1 1.00
  0.469000D+00  0.100000D+01
   f     1 1.00
  0.109300D+01  0.100000D+01
  
  2  0
   s    10 1.00
  0.823600D+04  0.531000D-03
  0.123500D+04  0.410800D-02
  0.280800D+03  0.210870D-01
  0.792700D+02  0.818530D-01
  0.255900D+02  0.234817D+00
  0.899700D+01  0.434401D+00
  0.331900D+01  0.346129D+00
  0.905900D+00  0.393780D-01
  0.364300D+00 -0.898300D-02
  0.128500D+00  0.238500D-02
   s    10 1.00
  0.823600D+04 -0.113000D-03
  0.123500D+04 -0.878000D-03
  0.280800D+03 -0.454000D-02
  0.792700D+02 -0.181330D-01
  0.255900D+02 -0.557600D-01
  0.899700D+01 -0.126895D+00
  0.331900D+01 -0.170352D+00
  0.905900D+00  0.140382D+00
  0.364300D+00  0.598684D+00
  0.128500D+00  0.395389D+00
   s     1 1.00
  0.905900D+00  0.100000D+01
   s     1 1.00
  0.364300D+00  0.100000D+01
   p     5 1.00
  0.187100D+02  0.140310D-01
  0.413300D+01  0.868660D-01
  0.120000D+01  0.290216D+00
  0.382700D+00  0.501008D+00
  0.120900D+00  0.343406D+00
   p     1 1.00
  0.382700D+00  0.100000D+01
   p     1 1.00
  0.120900D+00  0.100000D+01
   d     1 1.00
  0.109700D+01  0.100000D+01
   d     1 1.00
  0.318000D+00  0.100000D+01
   f     1 1.00
  0.761000D+00  0.100000D+01
  
  3  0
   s    10 1.00
  0.823600D+04  0.531000D-03
  0.123500D+04  0.410800D-02
  0.280800D+03  0.210870D-01
  0.792700D+02  0.818530D-01
  0.255900D+02  0.234817D+00
  0.899700D+01  0.434401D+00
  0.331900D+01  0.346129D+00
  0.905900D+00  0.393780D-01
  0.364300D+00 -0.898300D-02
  0.128500D+00  0.238500D-02
   s    10 1.00
  0.823600D+04 -0.113000D-03
  0.123500D+04 -0.878000D-03
  0.280800D+03 -0.454000D-02
  0.792700D+02 -0.181330D-01
  0.255900D+02 -0.557600D-01
  0.899700D+01 -0.126895D+00
  0.331900D+01 -0.170352D+00
  0.905900D+00  0.140382D+00
  0.364300D+00  0.598684D+00
  0.128500D+00  0.395389D+00
   s     1 1.00
  0.905900D+00  0.100000D+01
   s     1 1.00
  0.364300D+00  0.100000D+01
   p     5 1.00
  0.187100D+02  0.140310D-01
  0.413300D+01  0.868660D-01
  0.120000D+01  0.290216D+00
  0.382700D+00  0.501008D+00
  0.120900D+00  0.343406D+00
   p     1 1.00
  0.382700D+00  0.100000D+01
   p     1 1.00
  0.120900D+00  0.100000D+01
   d     1 1.00
  0.109700D+01  0.100000D+01
   d     1 1.00
  0.318000D+00  0.100000D+01
   f     1 1.00
  0.761000D+00  0.100000D+01
  
  4  0
   s    10 1.00
  0.823600D+04  0.531000D-03
  0.123500D+04  0.410800D-02
  0.280800D+03  0.210870D-01
  0.792700D+02  0.818530D-01
  0.255900D+02  0.234817D+00
  0.899700D+01  0.434401D+00
  0.331900D+01  0.346129D+00
  0.905900D+00  0.393780D-01
  0.364300D+00 -0.898300D-02
  0.128500D+00  0.238500D-02
   s    10 1.00
  0.823600D+04 -0.113000D-03
  0.123500D+04 -0.878000D-03
  0.280800D+03 -0.454000D-02
  0.792700D+02 -0.181330D-01
  0.255900D+02 -0.557600D-01
  0.899700D+01 -0.126895D+00
  0.331900D+01 -0.170352D+00
  0.905900D+00  0.140382D+00
  0.364300D+00  0.598684D+00
  0.128500D+00  0.395389D+00
   s     1 1.00
  0.905900D+00  0.100000D+01
   s     1 1.00
  0.364300D+00  0.100000D+01
   p     5 1.00
  0.187100D+02  0.140310D-01
  0.413300D+01  0.868660D-01
  0.120000D+01  0.290216D+00
  0.382700D+00  0.501008D+00
  0.120900D+00  0.343406D+00
   p     1 1.00
  0.382700D+00  0.100000D+01
   p     1 1.00
  0.120900D+00  0.100000D+01
   d     1 1.00
  0.109700D+01  0.100000D+01
   d     1 1.00
  0.318000D+00  0.100000D+01
   f     1 1.00
  0.761000D+00  0.100000D+01
  
  5  0
   s    10 1.00
  0.823600D+04  0.531000D-03
  0.123500D+04  0.410800D-02
  0.280800D+03  0.210870D-01
  0.792700D+02  0.818530D-01
  0.255900D+02  0.234817D+00
  0.899700D+01  0.434401D+00
  0.331900D+01  0.346129D+00
  0.905900D+00  0.393780D-01
  0.364300D+00 -0.898300D-02
  0.128500D+00  0.238500D-02
   s    10 1.00
  0.823600D+04 -0.113000D-03
  0.123500D+04 -0.878000D-03
  0.280800D+03 -0.454000D-02
  0.792700D+02 -0.181330D-01
  0.255900D+02 -0.557600D-01
  0.899700D+01 -0.126895D+00
  0.331900D+01 -0.170352D+00
  0.905900D+00  0.140382D+00
  0.364300D+00  0.598684D+00
  0.128500D+00  0.395389D+00
   s     1 1.00
  0.905900D+00  0.100000D+01
   s     1 1.00
  0.364300D+00  0.100000D+01
   p     5 1.00
  0.187100D+02  0.140310D-01
  0.413300D+01  0.868660D-01
  0.120000D+01  0.290216D+00
  0.382700D+00  0.501008D+00
  0.120900D+00  0.343406D+00
   p     1 1.00
  0.382700D+00  0.100000D+01
   p     1 1.00
  0.120900D+00  0.100000D+01
   d     1 1.00
  0.109700D+01  0.100000D+01
   d     1 1.00
  0.318000D+00  0.100000D+01
   f     1 1.00
  0.761000D+00  0.100000D+01
  
  6  0
   s    10 1.00
  0.823600D+04  0.531000D-03
  0.123500D+04  0.410800D-02
  0.280800D+03  0.210870D-01
  0.792700D+02  0.818530D-01
  0.255900D+02  0.234817D+00
  0.899700D+01  0.434401D+00
  0.331900D+01  0.346129D+00
  0.905900D+00  0.393780D-01
  0.364300D+00 -0.898300D-02
  0.128500D+00  0.238500D-02
   s    10 1.00
  0.823600D+04 -0.113000D-03
  0.123500D+04 -0.878000D-03
  0.280800D+03 -0.454000D-02
  0.792700D+02 -0.181330D-01
  0.255900D+02 -0.557600D-01
  0.899700D+01 -0.126895D+00
  0.331900D+01 -0.170352D+00
  0.905900D+00  0.140382D+00
  0.364300D+00  0.598684D+00
  0.128500D+00  0.395389D+00
   s     1 1.00
  0.905900D+00  0.100000D+01
   s     1 1.00
  0.364300D+00  0.100000D+01
   p     5 1.00
  0.187100D+02  0.140310D-01
  0.413300D+01  0.868660D-01
  0.120000D+01  0.290216D+00
  0.382700D+00  0.501008D+00
  0.120900D+00  0.343406D+00
   p     1 1.00
  0.382700D+00  0.100000D+01
   p     1 1.00
  0.120900D+00  0.100000D+01
   d     1 1.00
  0.109700D+01  0.100000D+01
   d     1 1.00
  0.318000D+00  0.100000D+01
   f     1 1.00
  0.761000D+00  0.100000D+01
  
  7  0
   s    10 1.00
  0.823600D+04  0.531000D-03
  0.123500D+04  0.410800D-02
  0.280800D+03  0.210870D-01
  0.792700D+02  0.818530D-01
  0.255900D+02  0.234817D+00
  0.899700D+01  0.434401D+00
  0.331900D+01  0.346129D+00
  0.905900D+00  0.393780D-01
  0.364300D+00 -0.898300D-02
  0.128500D+00  0.238500D-02
   s    10 1.00
  0.823600D+04 -0.113000D-03
  0.123500D+04 -0.878000D-03
  0.280800D+03 -0.454000D-02
  0.792700D+02 -0.181330D-01
  0.255900D+02 -0.557600D-01
  0.899700D+01 -0.126895D+00
  0.331900D+01 -0.170352D+00
  0.905900D+00  0.140382D+00
  0.364300D+00  0.598684D+00
  0.128500D+00  0.395389D+00
   s     1 1.00
  0.905900D+00  0.100000D+01
   s     1 1.00
  0.364300D+00  0.100000D+01
   p     5 1.00
  0.187100D+02  0.140310D-01
  0.413300D+01  0.868660D-01
  0.120000D+01  0.290216D+00
  0.382700D+00  0.501008D+00
  0.120900D+00  0.343406D+00
   p     1 1.00
  0.382700D+00  0.100000D+01
   p     1 1.00
  0.120900D+00  0.100000D+01
   d     1 1.00
  0.109700D+01  0.100000D+01
   d     1 1.00
  0.318000D+00  0.100000D+01
   f     1 1.00
  0.761000D+00  0.100000D+01
  
  8  0
   s     4 1.00
  0.130100D+02  0.196850D-01
  0.196200D+01  0.137977D+00
  0.444600D+00  0.478148D+00
  0.122000D+00  0.501240D+00
   s     1 1.00
  0.122000D+00  0.100000D+01
   p     1 1.00
  0.727000D+00  0.100000D+01
  
  9  0
   s     4 1.00
  0.130100D+02  0.196850D-01
  0.196200D+01  0.137977D+00
  0.444600D+00  0.478148D+00
  0.122000D+00  0.501240D+00
   s     1 1.00
  0.122000D+00  0.100000D+01
   p     1 1.00
  0.727000D+00  0.100000D+01
  
 10  0
   s     4 1.00
  0.130100D+02  0.196850D-01
  0.196200D+01  0.137977D+00
  0.444600D+00  0.478148D+00
  0.122000D+00  0.501240D+00
   s     1 1.00
  0.122000D+00  0.100000D+01
   p     1 1.00
  0.727000D+00  0.100000D+01
  
 11  0
   s     4 1.00
  0.130100D+02  0.196850D-01
  0.196200D+01  0.137977D+00
  0.444600D+00  0.478148D+00
  0.122000D+00  0.501240D+00
   s     1 1.00
  0.122000D+00  0.100000D+01
   p     1 1.00
  0.727000D+00  0.100000D+01
  
 12  0
   s     4 1.00
  0.130100D+02  0.196850D-01
  0.196200D+01  0.137977D+00
  0.444600D+00  0.478148D+00
  0.122000D+00  0.501240D+00
   s     1 1.00
  0.122000D+00  0.100000D+01
   p     1 1.00
  0.727000D+00  0.100000D+01
  
 13  0
   s     4 1.00
  0.130100D+02  0.196850D-01
  0.196200D+01  0.137977D+00
  0.444600D+00  0.478148D+00
  0.122000D+00  0.501240D+00
   s     1 1.00
  0.122000D+00  0.100000D+01
   p     1 1.00
  0.727000D+00  0.100000D+01
  
 14  0
   s     4 1.00
  0.130100D+02  0.196850D-01
  0.196200D+01  0.137977D+00
  0.444600D+00  0.478148D+00
  0.122000D+00  0.501240D+00
   s     1 1.00
  0.122000D+00  0.100000D+01
   p     1 1.00
  0.727000D+00  0.100000D+01
  
[MO]
 Sym= __1_A__
 Ene=   1.00000000000000     
 Spin= Alpha
 Occup=    1.00000000000000     
                     1  2.062979604511526E-005
                     2  0.998252184671183     
                     3  2.941936882178569E-003
                     4  2.100072033512663E-003
                     5  2.615966043340916E-003
                     6  5.448350244231328E-012
                     7  2.110548656123079E-009
                     8  3.940206676406348E-003
                     9  3.473645570934767E-012
                    10  1.083774955528927E-008
                    11  2.485744222399966E-005
                    12 -9.258770646710316E-012
                    13 -5.633405973163183E-008
                    14 -8.950348249439496E-005
                    15  2.358471328272028E-004
                    16 -6.766489262235336E-013
                    17 -4.038130645669274E-010
                    18 -6.176022313285954E-005
                    19  4.208708307798128E-013
                    20 -1.850030536302849E-006
                    21 -2.790692643631151E-012
                    22 -3.484943896377759E-009
                    23  4.819173283455200E-004
                    24  1.707031355881675E-012
                    25 -1.369606715832343E-004
                    26 -5.193782536350098E-013
                    27 -7.118623173220877E-009
                    28  6.546148065171694E-005
                    29  1.235650972217159E-012
                    30  1.120547655315978E-012
                    31  7.415044946364333E-010
                    32 -2.438104858223777E-004
                    33  1.955308432944815E-003
                    34  1.096071915487507E-004
                    35 -3.570690307639711E-005
                    36  8.767550920555549E-013
                    37  2.270888744132899E-008
                    38 -4.886690775714349E-003
                    39 -1.221389545887037E-013
                    40 -9.583269260095912E-008
                    41  2.843549451991390E-006
                    42 -3.083984374809654E-012
                    43 -1.357936749941654E-007
                    44  3.881467153636734E-003
                    45  2.521237704029308E-004
                    46 -1.276262425879135E-012
                    47  4.600267072989132E-009
                    48  1.061503575567443E-004
                    49 -2.198316943790479E-012
                    50  1.030282041933484E-004
                    51 -2.764007308848371E-012
                    52 -1.333580654041507E-007
                    53 -3.560880519590630E-004
                    54 -2.696334180425108E-012
                    55 -1.230856608011188E-004
                    56  2.872477190233345E-012
                    57  5.676334087656599E-009
                    58  6.497107628939867E-005
                    59 -1.762466204500472E-012
                    60  3.918775890354055E-013
                    61  4.022703423914557E-009
                    62 -1.884051292494422E-004
                    63 -1.187300133678500E-003
                    64  2.721752641134557E-005
                    65  5.737400055308348E-004
                    66  5.964289308908062E-012
                    67 -5.562977720483745E-004
                    68  4.783135663651518E-004
                    69 -2.769615767618866E-012
                    70 -1.100100021691150E-005
                    71  5.946627493765634E-004
                    72 -1.823991784064567E-012
                    73 -6.012472807848157E-004
                    74 -1.888059249470375E-004
                    75  6.734422178235264E-005
                    76  9.879177865556889E-013
                    77 -8.799239273381600E-006
                    78  1.999912110038905E-005
                    79 -2.341698948574545E-012
                    80 -7.297390316934364E-006
                    81  2.789819876739475E-013
                    82  1.088412713469785E-004
                    83 -3.353414800159096E-005
                    84  1.242488471428964E-012
                    85 -9.448278130338616E-005
                    86  1.840543869243995E-013
                    87 -3.538764923578100E-005
                    88  2.584291349407864E-005
                    89  1.462445604991824E-012
                    90  9.225813096027190E-013
                    91  8.184696951287020E-006
                    92 -1.883975743134783E-004
                    93 -1.187256266555189E-003
                    94  2.734316732522806E-005
                    95  5.733234744515440E-004
                    96 -2.309415335802352E-012
                    97  5.563286651037501E-004
                    98  4.784108811177751E-004
                    99  4.458797845828097E-012
                   100  1.083847807978511E-005
                   101  5.940676915382628E-004
                   102 -4.792089493407577E-012
                   103  6.008044539221753E-004
                   104 -1.889931924252206E-004
                   105  6.731776777779720E-005
                   106  1.025133167200794E-013
                   107  8.809707465638743E-006
                   108  2.000191744445564E-005
                   109 -1.374704950449661E-012
                   110 -7.660915495479106E-006
                   111 -5.026937559435231E-012
                   112 -1.088754631812542E-004
                   113 -3.363368555773038E-005
                   114 -5.923538000994386E-013
                   115 -9.443401157058482E-005
                   116 -1.604062872710233E-012
                   117  3.537010380498282E-005
                   118  2.584571933751540E-005
                   119  1.890605387477698E-012
                   120  1.981147959623034E-012
                   121 -8.183716422567032E-006
                   122 -1.198393632087311E-004
                   123 -1.117592375979344E-004
                   124  1.067250628397222E-004
                   125  6.524343721639698E-005
                   126 -6.522543020007307E-012
                   127  1.553483904157864E-005
                   128 -4.485774869499739E-004
                   129  2.237717062595752E-012
                   130  6.140387071442284E-005
                   131  3.320077810909128E-004
                   132  2.790950338189940E-012
                   133 -1.869917910736375E-004
                   134  6.253315433361173E-004
                   135 -2.607858097324769E-005
                   136 -1.479709155981857E-013
                   137 -4.841590401217397E-006
                   138 -1.301066550835233E-006
                   139 -2.792914318167344E-012
                   140 -1.974708872887449E-004
                   141 -1.730115863080805E-012
                   142  1.291665796111352E-004
                   143  1.714007513317716E-005
                   144  7.111092873270202E-013
                   145 -4.424247310653878E-005
                   146 -5.467470410993000E-013
                   147  9.212354619476256E-006
                   148 -6.820748826204512E-006
                   149  2.458566144079056E-013
                   150 -2.902854719528378E-012
                   151 -3.636534759446733E-006
                   152 -1.201371559899324E-004
                   153 -1.128102650888363E-004
                   154  1.064588197237821E-004
                   155  6.699630510511213E-005
                   156 -7.260286184502689E-012
                   157 -1.559424660219285E-005
                   158 -4.485005665726236E-004
                   159  5.732577974940784E-012
                   160 -6.127201926093081E-005
                   161  3.314943406479449E-004
                   162  7.463937291894392E-012
                   163  1.874868707701911E-004
                   164  6.251451649923056E-004
                   165 -2.604100114989498E-005
                   166 -1.172552997623860E-012
                   167  4.850346693818262E-006
                   168 -1.319873327882440E-006
                   169 -1.205792137429303E-012
                   170 -1.972606261435906E-004
                   171 -3.716068497726154E-012
                   172 -1.292068825468185E-004
                   173  1.718713563288831E-005
                   174 -1.348780375949530E-012
                   175 -4.418427948517118E-005
                   176 -1.678899618285458E-012
                   177 -9.185032009510774E-006
                   178 -6.837673949365176E-006
                   179 -1.401336124492138E-012
                   180 -7.364913591787571E-013
                   181  3.627488614762118E-006
                   182 -9.080160013457569E-005
                   183 -2.290622119691353E-004
                   184  2.620154425738780E-005
                   185  1.030506389796400E-004
                   186  1.811819154815915E-013
                   187 -1.522657263852268E-008
                   188 -5.415763712207878E-005
                   189  9.175565713758376E-013
                   190  1.015336118991869E-008
                   191  3.238398383400978E-005
                   192 -3.753499177744019E-012
                   193  1.627816417641591E-007
                   194 -1.161748240124688E-005
                   195  1.344760977108461E-005
                   196 -2.365117337714640E-012
                   197  3.195012997736023E-009
                   198  5.352825183330734E-006
                   199 -1.515288789347062E-012
                   200  4.694453436687104E-005
                   201  2.818288384948529E-012
                   202  3.627537853289732E-009
                   203  4.504149804430424E-005
                   204 -4.895669721337874E-013
                   205 -8.831025411274678E-006
                   206 -7.990472825456765E-013
                   207 -7.176203998433203E-009
                   208  1.458205176106925E-006
                   209  1.378282894983985E-012
                   210  1.452214539155676E-012
                   211 -2.442754569129355E-010
                   212  1.580140408081502E-003
                   213 -1.299281133348568E-003
                   214  1.441071740135118E-012
                   215  2.775875015778698E-004
                   216  2.479862924715672E-004
                   217  1.580195754297861E-003
                   218 -1.299299494517597E-003
                   219 -6.972408449777221E-013
                   220 -2.776144122965166E-004
                   221  2.479966332083400E-004
                   222 -3.622718125657227E-004
                   223 -2.454822390485338E-004
                   224 -8.529897732384768E-013
                   225 -6.796456767606130E-007
                   226 -3.539757181836645E-005
                   227 -3.623323715374355E-004
                   228 -2.452859010378632E-004
                   229  6.814755334334069E-013
                   230  6.616516581233575E-007
                   231 -3.542165358719110E-005
                   232 -1.032539118524352E-004
                   233 -3.992795245773926E-004
                   234  2.070526211849449E-012
                   235  4.249067067770788E-006
                   236  2.582303631479803E-006
                   237 -1.033612938022134E-004
                   238 -3.993223905187122E-004
                   239  1.814646467003435E-012
                   240 -4.195345114876427E-006
                   241  2.605391425115765E-006
                   242  1.415068392883239E-005
                   243 -8.971644254599747E-005
                   244 -9.099858001942700E-013
                   245 -2.108411750058228E-010
                   246  1.398120006955172E-005
 Sym= __2_A__
 Ene=   2.00000000000000     
 Spin= Alpha
 Occup=    1.00000000000000     
                     1 -4.734136688152887E-005
                     2 -2.503650958110690E-004
                     3  2.383310612963780E-003
                     4  9.923231633382684E-005
                     5  1.264688531074506E-003
                     6 -9.926601786048329E-012
                     7  5.437827977275668E-009
                     8  3.009121958532177E-003
                     9  9.394176745607670E-013
                    10 -4.061595169109431E-009
                    11 -5.243221106991941E-005
                    12  1.220872888854092E-011
                    13  5.749707128805979E-009
                    14 -5.298204852896175E-004
                    15  4.510983688874458E-005
                    16 -1.755321227527164E-012
                    17  4.670682323473513E-010
                    18  6.476992027959309E-005
                    19 -5.730584935053838E-013
                    20 -2.975015426130224E-004
                    21 -2.114922016760117E-012
                    22  3.062351518872456E-010
                    23 -3.369994927327418E-004
                    24  2.168824624312959E-012
                    25  1.901772870301242E-004
                    26  3.586258676617832E-012
                    27 -8.149956179701669E-010
                    28 -1.636718698551724E-006
                    29 -3.286145096766347E-012
                    30 -6.014614498331026E-013
                    31  8.256958686442425E-010
                    32   1.00104656331250     
                    33  9.286884225293845E-003
                    34  2.688270377024498E-003
                    35 -7.754483667137987E-003
                    36  8.425461847484569E-012
                    37 -5.948384759199973E-009
                    38 -4.463087258880742E-003
                    39 -6.943353348323655E-012
                    40  2.909095645509526E-009
                    41  1.300973925157018E-003
                    42  7.375777475592202E-012
                    43 -6.549101977216440E-008
                    44  4.553128469994326E-003
                    45  4.874225064584758E-004
                    46  2.078234750133431E-012
                    47 -3.244301711394028E-009
                    48 -4.283579309608098E-004
                    49  5.015151853348079E-012
                    50  5.543879968727276E-004
                    51  5.890812169447723E-012
                    52  1.282034254820771E-008
                    53  9.287675068215432E-004
                    54  3.976206035143902E-012
                    55  3.843043315927679E-004
                    56 -5.268021214875725E-012
                    57 -7.215335464828843E-010
                    58 -2.153900874395162E-004
                    59  4.403874455085597E-012
                    60  1.084693368878772E-012
                    61  1.656505913166857E-009
                    62  6.309011922444973E-003
                    63 -2.058596567859592E-003
                    64 -2.729072607966783E-004
                    65  3.027504957724691E-003
                    66 -8.800669077691932E-012
                    67  9.786400341637403E-005
                    68 -3.428895249616504E-005
                    69  3.941469647984346E-012
                    70  5.679977070587652E-004
                    71  4.081365958679256E-005
                    72 -4.495150520475245E-012
                    73 -2.114485379843740E-003
                    74  1.086523270658952E-004
                    75 -1.564478853448215E-005
                    76 -3.243125218313985E-012
                    77  1.783572173364622E-005
                    78  3.051384681596968E-005
                    79  1.325347103336505E-012
                    80  7.781722214722699E-004
                    81 -5.611280950396966E-012
                    82 -4.332548820325975E-004
                    83  1.332834139680317E-007
                    84  1.162564088255686E-012
                    85  7.367280087986494E-005
                    86 -1.758187912050150E-012
                    87  4.967176795728844E-005
                    88 -1.254851115926489E-004
                    89 -7.860325031465515E-012
                    90  2.324102251789605E-012
                    91  5.138019808264766E-005
                    92  6.308985913759098E-003
                    93 -2.058689927202712E-003
                    94 -2.729553904051251E-004
                    95  3.027732277907762E-003
                    96  8.090674996377863E-012
                    97 -9.786567923010803E-005
                    98 -3.431441793347485E-005
                    99 -9.550432076795530E-012
                   100 -5.679928115874323E-004
                   101  4.096502051491614E-005
                   102  6.587368654614213E-012
                   103  2.114629371321195E-003
                   104  1.084957994090265E-004
                   105 -1.562832656964994E-005
                   106 -3.057952299856893E-013
                   107 -1.784259029483159E-005
                   108  3.051224955196002E-005
                   109 -2.685726341601623E-013
                   110  7.782423894152971E-004
                   111  8.498584746453316E-012
                   112  4.333071903395392E-004
                   113  1.550508334482111E-007
                   114  5.274921813852727E-012
                   115  7.365789507587418E-005
                   116  1.703130251743577E-012
                   117 -4.966870875723133E-005
                   118 -1.254824530899647E-004
                   119 -1.935517903815208E-012
                   120  2.446674021518047E-012
                   121 -5.137869336610699E-005
                   122 -2.488572559241112E-004
                   123 -7.736258379528625E-004
                   124  2.259324286028242E-004
                   125 -1.265353288350138E-004
                   126  1.717108232926009E-011
                   127 -2.427973433049015E-005
                   128 -2.292584176361405E-004
                   129 -4.272270975152906E-012
                   130  1.596950353530576E-006
                   131  5.367748461600365E-004
                   132 -1.052614717342258E-011
                   133  3.459934775521876E-004
                   134  7.406159607238406E-004
                   135 -1.472840857171994E-005
                   136  1.864976905041579E-012
                   137  5.346948004385477E-005
                   138  1.457762776994800E-005
                   139  4.058946815658035E-012
                   140 -2.948478526433851E-004
                   141 -3.345894298321425E-012
                   142 -2.372090303747989E-004
                   143 -1.785579853648951E-005
                   144 -5.299677261245276E-013
                   145  1.004581525744263E-006
                   146  1.427070930002708E-012
                   147 -3.997685899273472E-005
                   148 -3.740793470987760E-005
                   149  1.556217885203051E-012
                   150 -1.690951954565589E-012
                   151 -5.903783308288770E-006
                   152 -2.485504882417681E-004
                   153 -7.726048681147111E-004
                   154  2.260060627504393E-004
                   155 -1.276275320687946E-004
                   156  4.298769491233459E-012
                   157  2.427091521963802E-005
                   158 -2.292637932678855E-004
                   159 -6.438269176073393E-012
                   160 -1.556128075642055E-006