[Molden Format]
[Atoms] AU
  N     1    7     0.0000000000    0.0000000000   -4.2811540200        
  C     2    6     0.0000000000    0.0000000000   -1.7720655600        
  C     3    6     0.0000000000   -2.3406801100   -0.4090214200        
  C     4    6     0.0000000000    2.3406801100   -0.4090214200        
  C     5    6     0.0000000000   -2.3015406800    2.1609603600        
  C     6    6     0.0000000000    2.3015406800    2.1609603600        
  C     7    6     0.0000000000    0.0000000000    3.4718140200        
  H     8    1     0.0000000000   -1.6561463800   -5.3032963000        
  H     9    1     0.0000000000    1.6561463800   -5.3032963000        
  H    10    1     0.0000000000   -4.0741320200   -1.4447620900        
  H    11    1     0.0000000000    4.0741320200   -1.4447620900        
  H    12    1     0.0000000000   -4.0420130800    3.1955909800        
  H    13    1     0.0000000000    4.0420130800    3.1955909800        
  H    14    1     0.0000000000    0.0000000000    5.4980953100        
[5D]
[7F]
[GTO]
  1  0
   s    12 1.00
  0.114200D+05  0.172695D-04
  0.171200D+04  0.134411D-03
  0.389300D+03  0.694561D-03
  0.110000D+03  0.278531D-02
  0.355700D+02  0.863457D-02
  0.125400D+02  0.199805D-01
  0.464400D+01  0.262908D-01
  0.129300D+01 -0.243845D-01
  0.511800D+00 -0.924934D-01
  0.178700D+00 -0.339683D+00
  0.246240D-01  0.345111D+00
  0.112530D-01  0.752750D+00
   s    10 1.00
  0.114200D+05  0.523000D-03
  0.171200D+04  0.404500D-02
  0.389300D+03  0.207750D-01
  0.110000D+03  0.807269D-01
  0.355700D+02  0.233074D+00
  0.125400D+02  0.433501D+00
  0.464400D+01  0.347472D+00
  0.129300D+01  0.412620D-01
  0.511800D+00 -0.850799D-02
  0.178700D+00  0.238400D-02
   s    10 1.00
  0.114200D+05 -0.115000D-03
  0.171200D+04 -0.895000D-03
  0.389300D+03 -0.462400D-02
  0.110000D+03 -0.185280D-01
  0.355700D+02 -0.573390D-01
  0.125400D+02 -0.132076D+00
  0.464400D+01 -0.172510D+00
  0.129300D+01  0.151814D+00
  0.511800D+00  0.599944D+00
  0.178700D+00  0.387462D+00
   s     1 1.00
  0.129300D+01  0.100000D+01
   s     1 1.00
  0.178700D+00  0.100000D+01
   p     5 1.00
  0.266300D+02  0.146700D-01
  0.594800D+01  0.917640D-01
  0.174200D+01  0.298683D+00
  0.555000D+00  0.498487D+00
  0.172500D+00  0.337023D+00
   p     1 1.00
  0.174200D+01  0.100000D+01
   p     1 1.00
  0.555000D+00  0.100000D+01
   d     1 1.00
  0.165400D+01  0.100000D+01
   d     1 1.00
  0.469000D+00  0.100000D+01
   f     1 1.00
  0.109300D+01  0.100000D+01
  
  2  0
   s    10 1.00
  0.823600D+04  0.531000D-03
  0.123500D+04  0.410800D-02
  0.280800D+03  0.210870D-01
  0.792700D+02  0.818530D-01
  0.255900D+02  0.234817D+00
  0.899700D+01  0.434401D+00
  0.331900D+01  0.346129D+00
  0.905900D+00  0.393780D-01
  0.364300D+00 -0.898300D-02
  0.128500D+00  0.238500D-02
   s    10 1.00
  0.823600D+04 -0.113000D-03
  0.123500D+04 -0.878000D-03
  0.280800D+03 -0.454000D-02
  0.792700D+02 -0.181330D-01
  0.255900D+02 -0.557600D-01
  0.899700D+01 -0.126895D+00
  0.331900D+01 -0.170352D+00
  0.905900D+00  0.140382D+00
  0.364300D+00  0.598684D+00
  0.128500D+00  0.395389D+00
   s     1 1.00
  0.905900D+00  0.100000D+01
   s     1 1.00
  0.364300D+00  0.100000D+01
   p     5 1.00
  0.187100D+02  0.140310D-01
  0.413300D+01  0.868660D-01
  0.120000D+01  0.290216D+00
  0.382700D+00  0.501008D+00
  0.120900D+00  0.343406D+00
   p     1 1.00
  0.382700D+00  0.100000D+01
   p     1 1.00
  0.120900D+00  0.100000D+01
   d     1 1.00
  0.109700D+01  0.100000D+01
   d     1 1.00
  0.318000D+00  0.100000D+01
   f     1 1.00
  0.761000D+00  0.100000D+01
  
  3  0
   s    10 1.00
  0.823600D+04  0.531000D-03
  0.123500D+04  0.410800D-02
  0.280800D+03  0.210870D-01
  0.792700D+02  0.818530D-01
  0.255900D+02  0.234817D+00
  0.899700D+01  0.434401D+00
  0.331900D+01  0.346129D+00
  0.905900D+00  0.393780D-01
  0.364300D+00 -0.898300D-02
  0.128500D+00  0.238500D-02
   s    10 1.00
  0.823600D+04 -0.113000D-03
  0.123500D+04 -0.878000D-03
  0.280800D+03 -0.454000D-02
  0.792700D+02 -0.181330D-01
  0.255900D+02 -0.557600D-01
  0.899700D+01 -0.126895D+00
  0.331900D+01 -0.170352D+00
  0.905900D+00  0.140382D+00
  0.364300D+00  0.598684D+00
  0.128500D+00  0.395389D+00
   s     1 1.00
  0.905900D+00  0.100000D+01
   s     1 1.00
  0.364300D+00  0.100000D+01
   p     5 1.00
  0.187100D+02  0.140310D-01
  0.413300D+01  0.868660D-01
  0.120000D+01  0.290216D+00
  0.382700D+00  0.501008D+00
  0.120900D+00  0.343406D+00
   p     1 1.00
  0.382700D+00  0.100000D+01
   p     1 1.00
  0.120900D+00  0.100000D+01
   d     1 1.00
  0.109700D+01  0.100000D+01
   d     1 1.00
  0.318000D+00  0.100000D+01
   f     1 1.00
  0.761000D+00  0.100000D+01
  
  4  0
   s    10 1.00
  0.823600D+04  0.531000D-03
  0.123500D+04  0.410800D-02
  0.280800D+03  0.210870D-01
  0.792700D+02  0.818530D-01
  0.255900D+02  0.234817D+00
  0.899700D+01  0.434401D+00
  0.331900D+01  0.346129D+00
  0.905900D+00  0.393780D-01
  0.364300D+00 -0.898300D-02
  0.128500D+00  0.238500D-02
   s    10 1.00
  0.823600D+04 -0.113000D-03
  0.123500D+04 -0.878000D-03
  0.280800D+03 -0.454000D-02
  0.792700D+02 -0.181330D-01
  0.255900D+02 -0.557600D-01
  0.899700D+01 -0.126895D+00
  0.331900D+01 -0.170352D+00
  0.905900D+00  0.140382D+00
  0.364300D+00  0.598684D+00
  0.128500D+00  0.395389D+00
   s     1 1.00
  0.905900D+00  0.100000D+01
   s     1 1.00
  0.364300D+00  0.100000D+01
   p     5 1.00
  0.187100D+02  0.140310D-01
  0.413300D+01  0.868660D-01
  0.120000D+01  0.290216D+00
  0.382700D+00  0.501008D+00
  0.120900D+00  0.343406D+00
   p     1 1.00
  0.382700D+00  0.100000D+01
   p     1 1.00
  0.120900D+00  0.100000D+01
   d     1 1.00
  0.109700D+01  0.100000D+01
   d     1 1.00
  0.318000D+00  0.100000D+01
   f     1 1.00
  0.761000D+00  0.100000D+01
  
  5  0
   s    10 1.00
  0.823600D+04  0.531000D-03
  0.123500D+04  0.410800D-02
  0.280800D+03  0.210870D-01
  0.792700D+02  0.818530D-01
  0.255900D+02  0.234817D+00
  0.899700D+01  0.434401D+00
  0.331900D+01  0.346129D+00
  0.905900D+00  0.393780D-01
  0.364300D+00 -0.898300D-02
  0.128500D+00  0.238500D-02
   s    10 1.00
  0.823600D+04 -0.113000D-03
  0.123500D+04 -0.878000D-03
  0.280800D+03 -0.454000D-02
  0.792700D+02 -0.181330D-01
  0.255900D+02 -0.557600D-01
  0.899700D+01 -0.126895D+00
  0.331900D+01 -0.170352D+00
  0.905900D+00  0.140382D+00
  0.364300D+00  0.598684D+00
  0.128500D+00  0.395389D+00
   s     1 1.00
  0.905900D+00  0.100000D+01
   s     1 1.00
  0.364300D+00  0.100000D+01
   p     5 1.00
  0.187100D+02  0.140310D-01
  0.413300D+01  0.868660D-01
  0.120000D+01  0.290216D+00
  0.382700D+00  0.501008D+00
  0.120900D+00  0.343406D+00
   p     1 1.00
  0.382700D+00  0.100000D+01
   p     1 1.00
  0.120900D+00  0.100000D+01
   d     1 1.00
  0.109700D+01  0.100000D+01
   d     1 1.00
  0.318000D+00  0.100000D+01
   f     1 1.00
  0.761000D+00  0.100000D+01
  
  6  0
   s    10 1.00
  0.823600D+04  0.531000D-03
  0.123500D+04  0.410800D-02
  0.280800D+03  0.210870D-01
  0.792700D+02  0.818530D-01
  0.255900D+02  0.234817D+00
  0.899700D+01  0.434401D+00
  0.331900D+01  0.346129D+00
  0.905900D+00  0.393780D-01
  0.364300D+00 -0.898300D-02
  0.128500D+00  0.238500D-02
   s    10 1.00
  0.823600D+04 -0.113000D-03
  0.123500D+04 -0.878000D-03
  0.280800D+03 -0.454000D-02
  0.792700D+02 -0.181330D-01
  0.255900D+02 -0.557600D-01
  0.899700D+01 -0.126895D+00
  0.331900D+01 -0.170352D+00
  0.905900D+00  0.140382D+00
  0.364300D+00  0.598684D+00
  0.128500D+00  0.395389D+00
   s     1 1.00
  0.905900D+00  0.100000D+01
   s     1 1.00
  0.364300D+00  0.100000D+01
   p     5 1.00
  0.187100D+02  0.140310D-01
  0.413300D+01  0.868660D-01
  0.120000D+01  0.290216D+00
  0.382700D+00  0.501008D+00
  0.120900D+00  0.343406D+00
   p     1 1.00
  0.382700D+00  0.100000D+01
   p     1 1.00
  0.120900D+00  0.100000D+01
   d     1 1.00
  0.109700D+01  0.100000D+01
   d     1 1.00
  0.318000D+00  0.100000D+01
   f     1 1.00
  0.761000D+00  0.100000D+01
  
  7  0
   s    10 1.00
  0.823600D+04  0.531000D-03
  0.123500D+04  0.410800D-02
  0.280800D+03  0.210870D-01
  0.792700D+02  0.818530D-01
  0.255900D+02  0.234817D+00
  0.899700D+01  0.434401D+00
  0.331900D+01  0.346129D+00
  0.905900D+00  0.393780D-01
  0.364300D+00 -0.898300D-02
  0.128500D+00  0.238500D-02
   s    10 1.00
  0.823600D+04 -0.113000D-03
  0.123500D+04 -0.878000D-03
  0.280800D+03 -0.454000D-02
  0.792700D+02 -0.181330D-01
  0.255900D+02 -0.557600D-01
  0.899700D+01 -0.126895D+00
  0.331900D+01 -0.170352D+00
  0.905900D+00  0.140382D+00
  0.364300D+00  0.598684D+00
  0.128500D+00  0.395389D+00
   s     1 1.00
  0.905900D+00  0.100000D+01
   s     1 1.00
  0.364300D+00  0.100000D+01
   p     5 1.00
  0.187100D+02  0.140310D-01
  0.413300D+01  0.868660D-01
  0.120000D+01  0.290216D+00
  0.382700D+00  0.501008D+00
  0.120900D+00  0.343406D+00
   p     1 1.00
  0.382700D+00  0.100000D+01
   p     1 1.00
  0.120900D+00  0.100000D+01
   d     1 1.00
  0.109700D+01  0.100000D+01
   d     1 1.00
  0.318000D+00  0.100000D+01
   f     1 1.00
  0.761000D+00  0.100000D+01
  
  8  0
   s     4 1.00
  0.130100D+02  0.196850D-01
  0.196200D+01  0.137977D+00
  0.444600D+00  0.478148D+00
  0.122000D+00  0.501240D+00
   s     1 1.00
  0.122000D+00  0.100000D+01
   p     1 1.00
  0.727000D+00  0.100000D+01
  
  9  0
   s     4 1.00
  0.130100D+02  0.196850D-01
  0.196200D+01  0.137977D+00
  0.444600D+00  0.478148D+00
  0.122000D+00  0.501240D+00
   s     1 1.00
  0.122000D+00  0.100000D+01
   p     1 1.00
  0.727000D+00  0.100000D+01
  
 10  0
   s     4 1.00
  0.130100D+02  0.196850D-01
  0.196200D+01  0.137977D+00
  0.444600D+00  0.478148D+00
  0.122000D+00  0.501240D+00
   s     1 1.00
  0.122000D+00  0.100000D+01
   p     1 1.00
  0.727000D+00  0.100000D+01
  
 11  0
   s     4 1.00
  0.130100D+02  0.196850D-01
  0.196200D+01  0.137977D+00
  0.444600D+00  0.478148D+00
  0.122000D+00  0.501240D+00
   s     1 1.00
  0.122000D+00  0.100000D+01
   p     1 1.00
  0.727000D+00  0.100000D+01
  
 12  0
   s     4 1.00
  0.130100D+02  0.196850D-01
  0.196200D+01  0.137977D+00
  0.444600D+00  0.478148D+00
  0.122000D+00  0.501240D+00
   s     1 1.00
  0.122000D+00  0.100000D+01
   p     1 1.00
  0.727000D+00  0.100000D+01
  
 13  0
   s     4 1.00
  0.130100D+02  0.196850D-01
  0.196200D+01  0.137977D+00
  0.444600D+00  0.478148D+00
  0.122000D+00  0.501240D+00
   s     1 1.00
  0.122000D+00  0.100000D+01
   p     1 1.00
  0.727000D+00  0.100000D+01
  
 14  0
   s     4 1.00
  0.130100D+02  0.196850D-01
  0.196200D+01  0.137977D+00
  0.444600D+00  0.478148D+00
  0.122000D+00  0.501240D+00
   s     1 1.00
  0.122000D+00  0.100000D+01
   p     1 1.00
  0.727000D+00  0.100000D+01
  
[MO]
 Sym= __1_a__
 Ene=  0.000000000000000E+000
 Spin= Alpha
 Occup=    2.00000000000000     
                     1  2.062979604511530E-005
                     2  0.998252184671183     
                     3  2.941936882178570E-003
                     4  2.100072033512660E-003
                     5  2.615966043340920E-003
                     6  5.448350244231330E-012
                     7  2.110548656123080E-009
                     8  3.940206676406350E-003
                     9  3.473645570934770E-012
                    10  1.083774955528930E-008
                    11  2.485744222399970E-005
                    12 -9.258770646710321E-012
                    13 -5.633405973163180E-008
                    14 -8.950348249439500E-005
                    15  2.358471328272028E-004
                    16 -6.766489262235340E-013
                    17 -4.038130645669270E-010
                    18 -6.176022313285961E-005
                    19  4.208708307798130E-013
                    20 -1.850030536302849E-006
                    21 -2.790692643631150E-012
                    22 -3.484943896377760E-009
                    23  4.819173283455200E-004
                    24  1.707031355881680E-012
                    25 -1.369606715832344E-004
                    26 -5.193782536350098E-013
                    27 -7.118623173220902E-009
                    28  6.546148065171700E-005
                    29  1.235650972217160E-012
                    30  1.120547655315978E-012
                    31  7.415044946364318E-010
                    32 -2.438104858223780E-004
                    33  1.955308432944820E-003
                    34  1.096071915487510E-004
                    35 -3.570690307639710E-005
                    36  8.767550920555550E-013
                    37  2.270888744132900E-008
                    38 -4.886690775714350E-003
                    39 -1.221389545887040E-013
                    40 -9.583269260095911E-008
                    41  2.843549451991390E-006
                    42 -3.083984374809650E-012
                    43 -1.357936749941650E-007
                    44  3.881467153636730E-003
                    45  2.521237704029309E-004
                    46 -1.276262425879130E-012
                    47  4.600267072989130E-009
                    48  1.061503575567442E-004
                    49 -2.198316943790480E-012
                    50  1.030282041933483E-004
                    51 -2.764007308848370E-012
                    52 -1.333580654041510E-007
                    53 -3.560880519590620E-004
                    54 -2.696334180425110E-012
                    55 -1.230856608011188E-004
                    56  2.872477190233344E-012
                    57  5.676334087656598E-009
                    58  6.497107628939860E-005
                    59 -1.762466204500470E-012
                    60  3.918775890354058E-013
                    61  4.022703423914555E-009
                    62 -1.884051292494420E-004
                    63 -1.187300133678500E-003
                    64  2.721752641134560E-005
                    65  5.737400055308350E-004
                    66  5.964289308908060E-012
                    67 -5.562977720483750E-004
                    68  4.783135663651520E-004
                    69 -2.769615767618870E-012
                    70 -1.100100021691150E-005
                    71  5.946627493765630E-004
                    72 -1.823991784064570E-012
                    73 -6.012472807848160E-004
                    74 -1.888059249470380E-004
                    75  6.734422178235271E-005
                    76  9.879177865556889E-013
                    77 -8.799239273381600E-006
                    78  1.999912110038906E-005
                    79 -2.341698948574550E-012
                    80 -7.297390316934356E-006
                    81  2.789819876739480E-013
                    82  1.088412713469780E-004
                    83 -3.353414800159100E-005
                    84  1.242488471428960E-012
                    85 -9.448278130338613E-005
                    86  1.840543869243996E-013
                    87 -3.538764923578097E-005
                    88  2.584291349407860E-005
                    89  1.462445604991820E-012
                    90  9.225813096027192E-013
                    91  8.184696951287025E-006
                    92 -1.883975743134780E-004
                    93 -1.187256266555190E-003
                    94  2.734316732522810E-005
                    95  5.733234744515440E-004
                    96 -2.309415335802350E-012
                    97  5.563286651037500E-004
                    98  4.784108811177750E-004
                    99  4.458797845828100E-012
                   100  1.083847807978510E-005
                   101  5.940676915382629E-004
                   102 -4.792089493407580E-012
                   103  6.008044539221751E-004
                   104 -1.889931924252210E-004
                   105  6.731776777779731E-005
                   106  1.025133167200790E-013
                   107  8.809707465638740E-006
                   108  2.000191744445560E-005
                   109 -1.374704950449660E-012
                   110 -7.660915495479110E-006
                   111 -5.026937559435230E-012
                   112 -1.088754631812540E-004
                   113 -3.363368555773040E-005
                   114 -5.923538000994390E-013
                   115 -9.443401157058494E-005
                   116 -1.604062872710232E-012
                   117  3.537010380498283E-005
                   118  2.584571933751540E-005
                   119  1.890605387477700E-012
                   120  1.981147959623033E-012
                   121 -8.183716422567051E-006
                   122 -1.198393632087310E-004
                   123 -1.117592375979340E-004
                   124  1.067250628397220E-004
                   125  6.524343721639700E-005
                   126 -6.522543020007310E-012
                   127  1.553483904157860E-005
                   128 -4.485774869499740E-004
                   129  2.237717062595750E-012
                   130  6.140387071442280E-005
                   131  3.320077810909130E-004
                   132  2.790950338189940E-012
                   133 -1.869917910736370E-004
                   134  6.253315433361170E-004
                   135 -2.607858097324767E-005
                   136 -1.479709155981860E-013
                   137 -4.841590401217400E-006
                   138 -1.301066550835232E-006
                   139 -2.792914318167340E-012
                   140 -1.974708872887450E-004
                   141 -1.730115863080800E-012
                   142  1.291665796111350E-004
                   143  1.714007513317716E-005
                   144  7.111092873270200E-013
                   145 -4.424247310653872E-005
                   146 -5.467470410993002E-013
                   147  9.212354619476275E-006
                   148 -6.820748826204520E-006
                   149  2.458566144079060E-013
                   150 -2.902854719528370E-012
                   151 -3.636534759446732E-006
                   152 -1.201371559899320E-004
                   153 -1.128102650888360E-004
                   154  1.064588197237820E-004
                   155  6.699630510511209E-005
                   156 -7.260286184502690E-012
                   157 -1.559424660219280E-005
                   158 -4.485005665726240E-004
                   159  5.732577974940780E-012
                   160 -6.127201926093080E-005
                   161  3.314943406479450E-004
                   162  7.463937291894390E-012
                   163  1.874868707701910E-004
                   164  6.251451649923060E-004
                   165 -2.604100114989498E-005
                   166 -1.172552997623860E-012
                   167  4.850346693818260E-006
                   168 -1.319873327882440E-006
                   169 -1.205792137429300E-012
                   170 -1.972606261435906E-004
                   171 -3.716068497726150E-012
                   172 -1.292068825468190E-004
                   173  1.718713563288830E-005
                   174 -1.348780375949530E-012
                   175 -4.418427948517118E-005
                   176 -1.678899618285457E-012
                   177 -9.185032009510774E-006
                   178 -6.837673949365180E-006
                   179 -1.401336124492140E-012
                   180 -7.364913591787576E-013
                   181  3.627488614762119E-006
                   182 -9.080160013457570E-005
                   183 -2.290622119691350E-004
                   184  2.620154425738780E-005
                   185  1.030506389796400E-004
                   186  1.811819154815920E-013
                   187 -1.522657263852270E-008
                   188 -5.415763712207880E-005
                   189  9.175565713758380E-013
                   190  1.015336118991870E-008
                   191  3.238398383400980E-005
                   192 -3.753499177744020E-012
                   193  1.627816417641590E-007
                   194 -1.161748240124690E-005
                   195  1.344760977108460E-005
                   196 -2.365117337714640E-012
                   197  3.195012997736020E-009
                   198  5.352825183330740E-006
                   199 -1.515288789347060E-012
                   200  4.694453436687097E-005
                   201  2.818288384948530E-012
                   202  3.627537853289730E-009
                   203  4.504149804430420E-005
                   204 -4.895669721337870E-013
                   205 -8.831025411274670E-006
                   206 -7.990472825456752E-013
                   207 -7.176203998433229E-009
                   208  1.458205176106924E-006
                   209  1.378282894983980E-012
                   210  1.452214539155676E-012
                   211 -2.442754569129356E-010
                   212  1.580140408081500E-003
                   213 -1.299281133348570E-003
                   214  1.441071740135120E-012
                   215  2.775875015778700E-004
                   216  2.479862924715670E-004
                   217  1.580195754297860E-003
                   218 -1.299299494517600E-003
                   219 -6.972408449777220E-013
                   220 -2.776144122965170E-004
                   221  2.479966332083400E-004
                   222 -3.622718125657230E-004
                   223 -2.454822390485340E-004
                   224 -8.529897732384770E-013
                   225 -6.796456767606130E-007
                   226 -3.539757181836640E-005
                   227 -3.623323715374360E-004
                   228 -2.452859010378630E-004
                   229  6.814755334334070E-013
                   230  6.616516581233570E-007
                   231 -3.542165358719110E-005
                   232 -1.032539118524350E-004
                   233 -3.992795245773930E-004
                   234  2.070526211849450E-012
                   235  4.249067067770790E-006
                   236  2.582303631479800E-006
                   237 -1.033612938022130E-004
                   238 -3.993223905187120E-004
                   239  1.814646467003430E-012
                   240 -4.195345114876430E-006
                   241  2.605391425115770E-006
                   242  1.415068392883240E-005
                   243 -8.971644254599749E-005
                   244 -9.099858001942700E-013
                   245 -2.108411750058230E-010
                   246  1.398120006955170E-005
 Sym= __2_a__
 Ene=  0.000000000000000E+000
 Spin= Alpha
 Occup=    2.00000000000000     
                     1 -4.734136688152890E-005
                     2 -2.503650958110690E-004
                     3  2.383310612963780E-003
                     4  9.923231633382680E-005
                     5  1.264688531074510E-003
                     6 -9.926601786048330E-012
                     7  5.437827977275670E-009
                     8  3.009121958532180E-003
                     9  9.394176745607670E-013
                    10 -4.061595169109430E-009
                    11 -5.243221106991940E-005
                    12  1.220872888854090E-011
                    13  5.749707128805980E-009
                    14 -5.298204852896171E-004
                    15  4.510983688874458E-005
                    16 -1.755321227527160E-012
                    17  4.670682323473510E-010
                    18  6.476992027959300E-005
                    19 -5.730584935053840E-013
                    20 -2.975015426130224E-004
                    21 -2.114922016760120E-012
                    22  3.062351518872460E-010
                    23 -3.369994927327420E-004
                    24  2.168824624312960E-012
                    25  1.901772870301242E-004
                    26  3.586258676617830E-012
                    27 -8.149956179701662E-010
                    28 -1.636718698551724E-006
                    29 -3.286145096766350E-012
                    30 -6.014614498331028E-013
                    31  8.256958686442414E-010
                    32   1.00104656331250     
                    33  9.286884225293840E-003
                    34  2.688270377024500E-003
                    35 -7.754483667137990E-003
                    36  8.425461847484571E-012
                    37 -5.948384759199970E-009
                    38 -4.463087258880740E-003
                    39 -6.943353348323650E-012
                    40  2.909095645509530E-009
                    41  1.300973925157020E-003
                    42  7.375777475592201E-012
                    43 -6.549101977216440E-008
                    44  4.553128469994330E-003
                    45  4.874225064584773E-004
                    46  2.078234750133430E-012
                    47 -3.244301711394030E-009
                    48 -4.283579309608100E-004
                    49  5.015151853348080E-012
                    50  5.543879968727263E-004
                    51  5.890812169447720E-012
                    52  1.282034254820770E-008
                    53  9.287675068215440E-004
                    54  3.976206035143900E-012
                    55  3.843043315927671E-004
                    56 -5.268021214875728E-012
                    57 -7.215335464828818E-010
                    58 -2.153900874395160E-004
                    59  4.403874455085600E-012
                    60  1.084693368878773E-012
                    61  1.656505913166858E-009
                    62  6.309011922444970E-003
                    63 -2.058596567859590E-003
                    64 -2.729072607966780E-004
                    65  3.027504957724690E-003
                    66 -8.800669077691931E-012
                    67  9.786400341637401E-005
                    68 -3.428895249616500E-005
                    69  3.941469647984350E-012
                    70  5.679977070587650E-004
                    71  4.081365958679260E-005
                    72 -4.495150520475240E-012
                    73 -2.114485379843740E-003
                    74  1.086523270658950E-004
                    75 -1.564478853448215E-005
                    76 -3.243125218313980E-012
                    77  1.783572173364620E-005
                    78  3.051384681596960E-005
                    79  1.325347103336510E-012
                    80  7.781722214722696E-004
                    81 -5.611280950396970E-012
                    82 -4.332548820325980E-004
                    83  1.332834139680318E-007
                    84  1.162564088255690E-012
                    85  7.367280087986493E-005
                    86 -1.758187912050151E-012
                    87  4.967176795728845E-005
                    88 -1.254851115926488E-004
                    89 -7.860325031465520E-012
                    90  2.324102251789603E-012
                    91  5.138019808264776E-005
                    92  6.308985913759100E-003
                    93 -2.058689927202710E-003
                    94 -2.729553904051250E-004
                    95  3.027732277907760E-003
                    96  8.090674996377860E-012
                    97 -9.786567923010800E-005
                    98 -3.431441793347490E-005
                    99 -9.550432076795530E-012
                   100 -5.679928115874320E-004
                   101  4.096502051491610E-005
                   102  6.587368654614210E-012
                   103  2.114629371321190E-003
                   104  1.084957994090260E-004
                   105 -1.562832656964995E-005
                   106 -3.057952299856890E-013
                   107 -1.784259029483160E-005
                   108  3.051224955196000E-005
                   109 -2.685726341601620E-013
                   110  7.782423894152981E-004
                   111  8.498584746453320E-012
                   112  4.333071903395390E-004
                   113  1.550508334482110E-007
                   114  5.274921813852730E-012
                   115  7.365789507587418E-005
                   116  1.703130251743577E-012
                   117 -4.966870875723133E-005
                   118 -1.254824530899648E-004
                   119 -1.935517903815210E-012
                   120  2.446674021518045E-012
                   121 -5.137869336610699E-005
                   122 -2.488572559241110E-004
                   123 -7.736258379528621E-004
                   124  2.259324286028240E-004
                   125 -1.265353288350140E-004
                   126  1.717108232926010E-011
                   127 -2.427973433049010E-005
                   128 -2.292584176361400E-004
                   129 -4.272270975152910E-012
                   130  1.596950353530580E-006
                   131  5.367748461600370E-004
                   132 -1.052614717342260E-011
                   133  3.459934775521880E-004
                   134  7.406159607238410E-004
                   135 -1.472840857171994E-005
                   136  1.864976905041580E-012
                   137  5.346948004385480E-005
                   138  1.457762776994800E-005
                   139  4.058946815658030E-012
                   140 -2.948478526433852E-004
                   141 -3.345894298321420E-012
                   142 -2.372090303747990E-004
                   143 -1.785579853648952E-005
                   144 -5.299677261245280E-013
                   145  1.004581525744263E-006
                   146  1.427070930002709E-012
                   147 -3.997685899273472E-005
                   148 -3.740793470987760E-005
                   149  1.556217885203050E-012
                   150 -1.690951954565582E-012
                   151 -5.903783308288770E-006
                   152 -2.485504882417680E-004
                   153 -7.726048681147110E-004
                   154  2.260060627504390E-004
                   155 -1.276275320687950E-004
                   156  4.298769491233460E-012
                   157  2.427091521963800E-005
                   158 -2.292637932678850E-004
                   159 -6.438269176073390E-012
                   160 -1.556128075642050E-006