[Molden Format]
[Atoms] AU
  N     1    7    -4.4519150800    0.1645695100   -0.0000004400        
  C     2    6    -1.7695092000   -0.0145096000   -0.0000001700        
  C     3    6    -0.4270927200   -0.0061402300   -2.2691546100        
  C     4    6    -0.4270931100   -0.0061391100    2.2691544900        
  C     5    6     2.1889955900   -0.0004823800   -2.2566388900        
  C     6    6     2.1889952100   -0.0004812700    2.2566392100        
  C     7    6     3.5149715000    0.0022090000    0.0000002700        
  H     8    1    -5.3130101500   -0.8650459100   -1.8277697800        
  H     9    1    -5.3130104600   -0.8650450100    1.8277692600        
  H    10    1    -1.4305344500   -0.0005073500   -4.0318143700        
  H    11    1    -1.4305351200   -0.0005053700    4.0318140800        
  H    12    1     3.1914120400   -0.0010699000   -4.0209976100        
  H    13    1     3.1914113700   -0.0010679200    4.0209980900        
  H    14    1     5.5428332300    0.0050250700    0.0000004400        
[5D]
[7F]
[GTO]
  1  0
   s    12 1.00
  0.114200D+05  0.172695D-04
  0.171200D+04  0.134411D-03
  0.389300D+03  0.694561D-03
  0.110000D+03  0.278531D-02
  0.355700D+02  0.863457D-02
  0.125400D+02  0.199805D-01
  0.464400D+01  0.262908D-01
  0.129300D+01 -0.243845D-01
  0.511800D+00 -0.924934D-01
  0.178700D+00 -0.339683D+00
  0.246240D-01  0.345111D+00
  0.112530D-01  0.752750D+00
   s    10 1.00
  0.114200D+05  0.523000D-03
  0.171200D+04  0.404500D-02
  0.389300D+03  0.207750D-01
  0.110000D+03  0.807269D-01
  0.355700D+02  0.233074D+00
  0.125400D+02  0.433501D+00
  0.464400D+01  0.347472D+00
  0.129300D+01  0.412620D-01
  0.511800D+00 -0.850799D-02
  0.178700D+00  0.238400D-02
   s    10 1.00
  0.114200D+05 -0.115000D-03
  0.171200D+04 -0.895000D-03
  0.389300D+03 -0.462400D-02
  0.110000D+03 -0.185280D-01
  0.355700D+02 -0.573390D-01
  0.125400D+02 -0.132076D+00
  0.464400D+01 -0.172510D+00
  0.129300D+01  0.151814D+00
  0.511800D+00  0.599944D+00
  0.178700D+00  0.387462D+00
   s     1 1.00
  0.129300D+01  0.100000D+01
   s     1 1.00
  0.178700D+00  0.100000D+01
   p     5 1.00
  0.266300D+02  0.146700D-01
  0.594800D+01  0.917640D-01
  0.174200D+01  0.298683D+00
  0.555000D+00  0.498487D+00
  0.172500D+00  0.337023D+00
   p     1 1.00
  0.174200D+01  0.100000D+01
   p     1 1.00
  0.555000D+00  0.100000D+01
   d     1 1.00
  0.165400D+01  0.100000D+01
   d     1 1.00
  0.469000D+00  0.100000D+01
   f     1 1.00
  0.109300D+01  0.100000D+01
  
  2  0
   s    10 1.00
  0.823600D+04  0.531000D-03
  0.123500D+04  0.410800D-02
  0.280800D+03  0.210870D-01
  0.792700D+02  0.818530D-01
  0.255900D+02  0.234817D+00
  0.899700D+01  0.434401D+00
  0.331900D+01  0.346129D+00
  0.905900D+00  0.393780D-01
  0.364300D+00 -0.898300D-02
  0.128500D+00  0.238500D-02
   s    10 1.00
  0.823600D+04 -0.113000D-03
  0.123500D+04 -0.878000D-03
  0.280800D+03 -0.454000D-02
  0.792700D+02 -0.181330D-01
  0.255900D+02 -0.557600D-01
  0.899700D+01 -0.126895D+00
  0.331900D+01 -0.170352D+00
  0.905900D+00  0.140382D+00
  0.364300D+00  0.598684D+00
  0.128500D+00  0.395389D+00
   s     1 1.00
  0.905900D+00  0.100000D+01
   s     1 1.00
  0.364300D+00  0.100000D+01
   p     5 1.00
  0.187100D+02  0.140310D-01
  0.413300D+01  0.868660D-01
  0.120000D+01  0.290216D+00
  0.382700D+00  0.501008D+00
  0.120900D+00  0.343406D+00
   p     1 1.00
  0.382700D+00  0.100000D+01
   p     1 1.00
  0.120900D+00  0.100000D+01
   d     1 1.00
  0.109700D+01  0.100000D+01
   d     1 1.00
  0.318000D+00  0.100000D+01
   f     1 1.00
  0.761000D+00  0.100000D+01
  
  3  0
   s    10 1.00
  0.823600D+04  0.531000D-03
  0.123500D+04  0.410800D-02
  0.280800D+03  0.210870D-01
  0.792700D+02  0.818530D-01
  0.255900D+02  0.234817D+00
  0.899700D+01  0.434401D+00
  0.331900D+01  0.346129D+00
  0.905900D+00  0.393780D-01
  0.364300D+00 -0.898300D-02
  0.128500D+00  0.238500D-02
   s    10 1.00
  0.823600D+04 -0.113000D-03
  0.123500D+04 -0.878000D-03
  0.280800D+03 -0.454000D-02
  0.792700D+02 -0.181330D-01
  0.255900D+02 -0.557600D-01
  0.899700D+01 -0.126895D+00
  0.331900D+01 -0.170352D+00
  0.905900D+00  0.140382D+00
  0.364300D+00  0.598684D+00
  0.128500D+00  0.395389D+00
   s     1 1.00
  0.905900D+00  0.100000D+01
   s     1 1.00
  0.364300D+00  0.100000D+01
   p     5 1.00
  0.187100D+02  0.140310D-01
  0.413300D+01  0.868660D-01
  0.120000D+01  0.290216D+00
  0.382700D+00  0.501008D+00
  0.120900D+00  0.343406D+00
   p     1 1.00
  0.382700D+00  0.100000D+01
   p     1 1.00
  0.120900D+00  0.100000D+01
   d     1 1.00
  0.109700D+01  0.100000D+01
   d     1 1.00
  0.318000D+00  0.100000D+01
   f     1 1.00
  0.761000D+00  0.100000D+01
  
  4  0
   s    10 1.00
  0.823600D+04  0.531000D-03
  0.123500D+04  0.410800D-02
  0.280800D+03  0.210870D-01
  0.792700D+02  0.818530D-01
  0.255900D+02  0.234817D+00
  0.899700D+01  0.434401D+00
  0.331900D+01  0.346129D+00
  0.905900D+00  0.393780D-01
  0.364300D+00 -0.898300D-02
  0.128500D+00  0.238500D-02
   s    10 1.00
  0.823600D+04 -0.113000D-03
  0.123500D+04 -0.878000D-03
  0.280800D+03 -0.454000D-02
  0.792700D+02 -0.181330D-01
  0.255900D+02 -0.557600D-01
  0.899700D+01 -0.126895D+00
  0.331900D+01 -0.170352D+00
  0.905900D+00  0.140382D+00
  0.364300D+00  0.598684D+00
  0.128500D+00  0.395389D+00
   s     1 1.00
  0.905900D+00  0.100000D+01
   s     1 1.00
  0.364300D+00  0.100000D+01
   p     5 1.00
  0.187100D+02  0.140310D-01
  0.413300D+01  0.868660D-01
  0.120000D+01  0.290216D+00
  0.382700D+00  0.501008D+00
  0.120900D+00  0.343406D+00
   p     1 1.00
  0.382700D+00  0.100000D+01
   p     1 1.00
  0.120900D+00  0.100000D+01
   d     1 1.00
  0.109700D+01  0.100000D+01
   d     1 1.00
  0.318000D+00  0.100000D+01
   f     1 1.00
  0.761000D+00  0.100000D+01
  
  5  0
   s    10 1.00
  0.823600D+04  0.531000D-03
  0.123500D+04  0.410800D-02
  0.280800D+03  0.210870D-01
  0.792700D+02  0.818530D-01
  0.255900D+02  0.234817D+00
  0.899700D+01  0.434401D+00
  0.331900D+01  0.346129D+00
  0.905900D+00  0.393780D-01
  0.364300D+00 -0.898300D-02
  0.128500D+00  0.238500D-02
   s    10 1.00
  0.823600D+04 -0.113000D-03
  0.123500D+04 -0.878000D-03
  0.280800D+03 -0.454000D-02
  0.792700D+02 -0.181330D-01
  0.255900D+02 -0.557600D-01
  0.899700D+01 -0.126895D+00
  0.331900D+01 -0.170352D+00
  0.905900D+00  0.140382D+00
  0.364300D+00  0.598684D+00
  0.128500D+00  0.395389D+00
   s     1 1.00
  0.905900D+00  0.100000D+01
   s     1 1.00
  0.364300D+00  0.100000D+01
   p     5 1.00
  0.187100D+02  0.140310D-01
  0.413300D+01  0.868660D-01
  0.120000D+01  0.290216D+00
  0.382700D+00  0.501008D+00
  0.120900D+00  0.343406D+00
   p     1 1.00
  0.382700D+00  0.100000D+01
   p     1 1.00
  0.120900D+00  0.100000D+01
   d     1 1.00
  0.109700D+01  0.100000D+01
   d     1 1.00
  0.318000D+00  0.100000D+01
   f     1 1.00
  0.761000D+00  0.100000D+01
  
  6  0
   s    10 1.00
  0.823600D+04  0.531000D-03
  0.123500D+04  0.410800D-02
  0.280800D+03  0.210870D-01
  0.792700D+02  0.818530D-01
  0.255900D+02  0.234817D+00
  0.899700D+01  0.434401D+00
  0.331900D+01  0.346129D+00
  0.905900D+00  0.393780D-01
  0.364300D+00 -0.898300D-02
  0.128500D+00  0.238500D-02
   s    10 1.00
  0.823600D+04 -0.113000D-03
  0.123500D+04 -0.878000D-03
  0.280800D+03 -0.454000D-02
  0.792700D+02 -0.181330D-01
  0.255900D+02 -0.557600D-01
  0.899700D+01 -0.126895D+00
  0.331900D+01 -0.170352D+00
  0.905900D+00  0.140382D+00
  0.364300D+00  0.598684D+00
  0.128500D+00  0.395389D+00
   s     1 1.00
  0.905900D+00  0.100000D+01
   s     1 1.00
  0.364300D+00  0.100000D+01
   p     5 1.00
  0.187100D+02  0.140310D-01
  0.413300D+01  0.868660D-01
  0.120000D+01  0.290216D+00
  0.382700D+00  0.501008D+00
  0.120900D+00  0.343406D+00
   p     1 1.00
  0.382700D+00  0.100000D+01
   p     1 1.00
  0.120900D+00  0.100000D+01
   d     1 1.00
  0.109700D+01  0.100000D+01
   d     1 1.00
  0.318000D+00  0.100000D+01
   f     1 1.00
  0.761000D+00  0.100000D+01
  
  7  0
   s    10 1.00
  0.823600D+04  0.531000D-03
  0.123500D+04  0.410800D-02
  0.280800D+03  0.210870D-01
  0.792700D+02  0.818530D-01
  0.255900D+02  0.234817D+00
  0.899700D+01  0.434401D+00
  0.331900D+01  0.346129D+00
  0.905900D+00  0.393780D-01
  0.364300D+00 -0.898300D-02
  0.128500D+00  0.238500D-02
   s    10 1.00
  0.823600D+04 -0.113000D-03
  0.123500D+04 -0.878000D-03
  0.280800D+03 -0.454000D-02
  0.792700D+02 -0.181330D-01
  0.255900D+02 -0.557600D-01
  0.899700D+01 -0.126895D+00
  0.331900D+01 -0.170352D+00
  0.905900D+00  0.140382D+00
  0.364300D+00  0.598684D+00
  0.128500D+00  0.395389D+00
   s     1 1.00
  0.905900D+00  0.100000D+01
   s     1 1.00
  0.364300D+00  0.100000D+01
   p     5 1.00
  0.187100D+02  0.140310D-01
  0.413300D+01  0.868660D-01
  0.120000D+01  0.290216D+00
  0.382700D+00  0.501008D+00
  0.120900D+00  0.343406D+00
   p     1 1.00
  0.382700D+00  0.100000D+01
   p     1 1.00
  0.120900D+00  0.100000D+01
   d     1 1.00
  0.109700D+01  0.100000D+01
   d     1 1.00
  0.318000D+00  0.100000D+01
   f     1 1.00
  0.761000D+00  0.100000D+01
  
  8  0
   s     4 1.00
  0.130100D+02  0.196850D-01
  0.196200D+01  0.137977D+00
  0.444600D+00  0.478148D+00
  0.122000D+00  0.501240D+00
   s     1 1.00
  0.122000D+00  0.100000D+01
   p     1 1.00
  0.727000D+00  0.100000D+01
  
  9  0
   s     4 1.00
  0.130100D+02  0.196850D-01
  0.196200D+01  0.137977D+00
  0.444600D+00  0.478148D+00
  0.122000D+00  0.501240D+00
   s     1 1.00
  0.122000D+00  0.100000D+01
   p     1 1.00
  0.727000D+00  0.100000D+01
  
 10  0
   s     4 1.00
  0.130100D+02  0.196850D-01
  0.196200D+01  0.137977D+00
  0.444600D+00  0.478148D+00
  0.122000D+00  0.501240D+00
   s     1 1.00
  0.122000D+00  0.100000D+01
   p     1 1.00
  0.727000D+00  0.100000D+01
  
 11  0
   s     4 1.00
  0.130100D+02  0.196850D-01
  0.196200D+01  0.137977D+00
  0.444600D+00  0.478148D+00
  0.122000D+00  0.501240D+00
   s     1 1.00
  0.122000D+00  0.100000D+01
   p     1 1.00
  0.727000D+00  0.100000D+01
  
 12  0
   s     4 1.00
  0.130100D+02  0.196850D-01
  0.196200D+01  0.137977D+00
  0.444600D+00  0.478148D+00
  0.122000D+00  0.501240D+00
   s     1 1.00
  0.122000D+00  0.100000D+01
   p     1 1.00
  0.727000D+00  0.100000D+01
  
 13  0
   s     4 1.00
  0.130100D+02  0.196850D-01
  0.196200D+01  0.137977D+00
  0.444600D+00  0.478148D+00
  0.122000D+00  0.501240D+00
   s     1 1.00
  0.122000D+00  0.100000D+01
   p     1 1.00
  0.727000D+00  0.100000D+01
  
 14  0
   s     4 1.00
  0.130100D+02  0.196850D-01
  0.196200D+01  0.137977D+00
  0.444600D+00  0.478148D+00
  0.122000D+00  0.501240D+00
   s     1 1.00
  0.122000D+00  0.100000D+01
   p     1 1.00
  0.727000D+00  0.100000D+01
  
[MO]
 Sym= __1_a__
 Ene=  0.000000000000000E+000
 Spin= Alpha
 Occup=    2.00000000000000     
                     1  1.678967050313100E-004
                     2  0.998544872429951     
                     3  9.384719193352089E-004
                     4  1.421865679578950E-003
                     5  5.929196863255110E-003
                     6  5.996247069275510E-003
                     7 -4.668571479303450E-003
                     8 -2.010746056316530E-009
                     9 -8.182829985132110E-004
                    10  3.963780490339550E-004
                    11  1.572723175093990E-009
                    12 -1.891655512485920E-003
                    13  3.158188131230400E-003
                    14 -5.873249898710060E-009
                    15 -8.681489159561239E-005
                    16 -1.180268424941350E-009
                    17  4.403631166490180E-012
                    18  7.893468608564400E-005
                    19  9.114456190310880E-006
                    20 -3.346186187783656E-004
                    21  4.169178762777550E-009
                    22  1.234551236586740E-009
                    23  3.964376623000340E-005
                    24 -4.679860582076090E-004
                    25  4.569577535748276E-009
                    26 -8.132065212542762E-005
                    27  4.199740864022696E-006
                    28  6.962300695597040E-009
                    29 -1.303145338422870E-009
                    30 -6.245196229006025E-005
                    31 -5.782732860564496E-005
                    32 -3.700496984379930E-004
                    33  5.616703068901870E-004
                    34  2.478568816436130E-004
                    35 -1.141618323479070E-004
                    36 -3.435250698573660E-003
                    37 -9.361446700970080E-005
                    38  4.246215274294800E-009
                    39  2.934882534375530E-005
                    40 -3.676686534736590E-006
                    41 -1.886134210810010E-009
                    42  5.078572425194260E-003
                    43  8.062405200811130E-004
                    44  7.790678563400839E-008
                    45 -1.898063400017094E-004
                    46  2.489579255285470E-009
                    47 -8.389585043634590E-011
                    48  1.703605836194454E-004
                    49  4.356732674218580E-005
                    50  3.370642331390304E-004
                    51 -1.421317201632280E-008
                    52  7.377870166679520E-011
                    53 -7.032552014592460E-007
                    54 -3.564463403606010E-004
                    55 -5.738999697770566E-009
                    56 -5.404514023577951E-005
                    57  4.447299985451868E-006
                    58 -4.038822825843500E-009
                    59  5.361701248645220E-010
                    60 -3.153652767821474E-005
                    61  4.523605746561325E-005
                    62 -3.824058697468240E-004
                    63 -1.682968289845140E-003
                    64  8.347213632207600E-005
                    65  9.533033007927390E-004
                    66  3.684320117608320E-004
                    67 -1.402545310048110E-004
                    68 -4.632772261390140E-004
                    69  5.505495539466280E-004
                    70  8.409433760645109E-005
                    71  1.228899255761190E-004
                    72 -5.267960829251890E-004
                    73 -3.568398632920480E-004
                    74 -9.660399650132780E-004
                    75 -5.816731100940973E-005
                    76 -1.112425791098050E-005
                    77  1.919767697502540E-005
                    78  5.875824107575420E-005
                    79 -1.050528834047490E-005
                    80  1.465041284013283E-004
                    81  8.827966852741580E-005
                    82 -3.679466932228210E-005
                    83 -8.908732469418260E-005
                    84  5.631984639692130E-005
                    85 -1.055447813860618E-005
                    86 -6.234893627279463E-005
                    87  1.917370854312228E-005
                    88 -9.757907136475860E-006
                    89  1.199999911456920E-005
                    90 -4.763225202491331E-005
                    91 -1.033859486243969E-005
                    92 -3.823953200804910E-004
                    93 -1.682927101992390E-003
                    94  8.351284589517660E-005
                    95  9.531683846669810E-004
                    96  3.684549320430600E-004
                    97 -1.402543767029020E-004
                    98  4.632793795626140E-004
                    99  5.504261012595401E-004
                   100  8.409390501588730E-005
                   101 -1.229074060879410E-004
                   102 -5.266415089011540E-004
                   103 -3.568394759921890E-004
                   104  9.659181287458980E-004
                   105 -5.816312864517462E-005
                   106  1.112809773446920E-005
                   107 -1.919756633163570E-005
                   108  5.875085377218520E-005
                   109 -1.050526568987700E-005
                   110  1.465645767031475E-004
                   111 -8.832307961884560E-005
                   112  3.679491621454630E-005
                   113 -8.916276554892000E-005
                   114  5.631929898563820E-005
                   115  1.055787122251138E-005
                   116 -6.233625983799824E-005
                   117  1.917350698010565E-005
                   118  9.759825420807801E-006
                   119 -1.200007556445810E-005
                   120 -4.762000000237269E-005
                   121 -1.033869135979882E-005
                   122 -2.044534946204230E-004
                   123 -4.415280166274380E-004
                   124  5.659939280757340E-005
                   125  5.817763964090660E-004
                   126 -4.025338553928860E-004
                   127 -7.103449145491490E-005
                   128  6.592278969654300E-006
                   129  2.250876743278490E-004
                   130 -2.697475364304420E-005
                   131  5.736211737692760E-005
                   132  8.642798838284380E-004
                   133  1.638862017115890E-004
                   134 -2.759632962125770E-004
                   135  8.414984127228599E-006
                   136 -1.755950483020640E-006
                   137 -4.824646700046190E-006
                   138 -1.364348483553280E-006
                   139  1.017077750743510E-005
                   140  7.908083830967510E-005
                   141  1.597675833651930E-004
                   142  9.648065930018091E-006
                   143 -1.969128456867834E-004
                   144 -1.323878819144830E-005
                   145 -8.885050188190298E-006
                   146 -1.667457457454781E-005
                   147  2.722115411992105E-006
                   148 -2.625850551811560E-007
                   149 -2.814335428216320E-006
                   150 -4.582280456962444E-005
                   151 -2.867701646722580E-006
                   152 -2.046069412001530E-004
                   153 -4.420668744150300E-004
                   154  5.646651780597420E-005
                   155  5.826719051382020E-004
                   156 -4.025342583532710E-004
                   157 -7.103440197865320E-005
                   158 -6.571940532599030E-006
                   159  2.250521762080650E-004
                   160 -2.697499957005100E-005
                   161 -5.749635239534970E-005
                   162  8.644267488987130E-004
                   163  1.638866481228010E-004
                   164  2.760826181716310E-004
                   165  8.422398894816477E-006
                   166  1.753091413189300E-006
                   167  4.824145756513540E-006
                   168 -1.344687909435758E-006
                   169  1.017075336559550E-005
                   170  7.909297342706135E-005
                   171 -1.598557515503060E-004
                   172 -9.647770296889119E-006
                   173 -1.968872020341172E-004
                   174 -1.323911109108600E-005
                   175  8.886323650381978E-006
                   176 -1.664630999509895E-005
                   177  2.722113160924703E-006
                   178  2.595993861011500E-007
                   179  2.814393035211540E-006
                   180 -4.581462272638878E-005
                   181 -2.867747851945197E-006
                   182 -1.309052693181320E-004
                   183 -4.019867696001650E-004
                   184  3.322053901628690E-005
                   185  1.728469709696780E-004
                   186 -2.749701175414300E-005
                   187 -7.720430089004570E-005
                   188  2.843224006718610E-008
                   189  1.089954600767910E-004
                   190  2.135669636103850E-005
                   191 -1.544510400386020E-007
                   192 -3.879631156588500E-004
                   193 -1.104227349245010E-004
                   194 -6.338842661700941E-008
                   195 -7.652345262541858E-006
                   196  8.440879081234401E-009
                   197 -2.249643937766140E-011
                   198  3.120999007353300E-006
                   199 -1.810829411245560E-006
                   200 -1.105673900355712E-004
                   201  7.668176202371250E-008
                   202  4.056238387059430E-010
                   203  5.069170783915720E-005
                   204  1.978461262642370E-005
                   205  5.926468450611909E-009
                   206  4.563899390758626E-006
                   207  3.147089260726996E-006
                   208 -7.020596026448220E-009
                   209 -4.317902615885620E-011
                   210 -6.030062723152040E-006
                   211 -3.320336254412492E-006
                   212  8.791450562198390E-004
                   213 -1.032345262039560E-003
                   214  1.384583925435250E-004
                   215  2.503608974356720E-004
                   216  2.567509381261980E-004
                   217  8.791466418213180E-004
                   218 -1.032348285036890E-003
                   219  1.384599701511620E-004
                   220  2.503624269454990E-004
                   221 -2.567537285064920E-004
                   222 -3.437045799764040E-004
                   223 -4.611880561922510E-004
                   224 -5.600095947310440E-005
                   225  9.425370680264980E-006
                   226  4.261076272052070E-005
                   227 -3.437221817283460E-004
                   228 -4.610744199850780E-004
                   229 -5.600511697129480E-005
                   230  9.425324964793349E-006
                   231 -4.261351322345620E-005
                   232 -6.519833512364640E-005
                   233 -4.817442277431500E-004
                   234  1.004557022289520E-006
                   235 -2.244832550122170E-006
                   236 -5.047329786681830E-006
                   237 -6.521220936934410E-005
                   238 -4.817975180764120E-004
                   239  1.020021718346430E-006
                   240 -2.244833373497210E-006
                   241  5.060580579255820E-006
                   242 -5.030064056767550E-006
                   243  1.185345894700890E-004
                   244  3.045126615780570E-005
                   245  1.288026938712840E-006
                   246 -7.198049421527000E-009
 Sym= __2_a__
 Ene=  0.000000000000000E+000
 Spin= Alpha
 Occup=    2.00000000000000     
                     1 -3.108932327301970E-005
                     2 -1.120551879516060E-004
                     3  2.315367026116730E-003
                     4 -5.252222479150930E-006
                     5  1.188865041305880E-003
                     6  2.073948803581880E-003
                     7  1.043287073115360E-004
                     8  3.137779556766520E-009
                     9 -1.385994617030760E-004
                    10  9.507468820786050E-005
                    11 -1.933032558602810E-009
                    12 -3.350082376108680E-006
                    13  3.275645840430670E-005
                    14  1.223900233735740E-009
                    15 -7.406298345847612E-005
                    16  7.172789980936760E-010
                    17 -7.466515970630740E-011
                    18  4.268109890936660E-005
                    19 -7.710364577526990E-006
                    20  1.485834088041188E-004
                    21 -3.863850140647620E-009
                    22 -5.474522924784230E-010
                    23  1.009340566348580E-004
                    24 -1.647329425070630E-005
                    25 -2.328874483569554E-009
                    26  1.370981115449715E-004
                    27 -5.122530222194882E-005
                    28 -4.000138506248940E-009
                    29  6.786113559863160E-010
                    30  1.220795342419104E-004
                    31  3.066091291004416E-005
                    32   1.00095149961233     
                    33  8.860869749567880E-003
                    34  2.779445571453720E-003
                    35 -8.223420365748310E-003
                    36 -2.718165080089320E-003
                    37  6.291200020874820E-004
                    38 -4.967553674346740E-009
                    39  1.009794199956220E-003
                    40 -2.428839421908100E-004
                    41  5.627495248020820E-010
                    42  3.513559439267670E-003
                    43 -1.258043684811950E-004
                    44 -5.068654998696070E-008
                    45  2.867625776823040E-004
                    46 -1.495820011948820E-009
                    47  3.348486811491300E-010
                    48  4.264304323818400E-004
                    49 -2.793440825857880E-005
                    50 -1.047470119432990E-003
                    51  4.819173134445430E-010
                    52 -1.224223681865980E-009
                    53 -1.000413548796282E-004
                    54  4.737301549813370E-005
                    55  2.668184590009382E-009
                    56  3.145805939518040E-004
                    57 -8.048733350690134E-006
                    58  1.326075658621350E-009
                    59 -3.263348213017380E-010
                    60  9.091787515000303E-005
                    61  1.512431240477580E-005
                    62  1.298944121125390E-002
                    63 -1.898658718570730E-003
                    64 -3.088047833125390E-004
                    65  3.147303774146990E-003
                    66 -1.024595317212940E-004
                    67  9.098892350256960E-005
                    68  2.194146361035930E-004
                    69  2.829383801164110E-005
                    70 -3.973411555337810E-007
                    71  5.333381234617490E-004
                    72  1.512993697867580E-004
                    73 -2.922509450510650E-005
                    74 -1.835919802671770E-003
                    75 -1.320128087981169E-005
                    76  2.394504523557870E-005
                    77  7.439170481475070E-006
                    78 -3.434263188229640E-005
                    79 -3.997223395828980E-006
                    80 -4.134748442673272E-004
                    81 -4.577903085247080E-004
                    82 -3.823205130186760E-006
                    83  7.568153910191080E-004
                    84 -3.459339198998950E-006
                    85  5.073288382785500E-005
                    86  1.099462973049505E-004
                    87 -1.749216408393331E-007
                    88 -1.641775250839518E-005
                    89 -6.731600439998070E-006
                    90 -3.015186537478716E-005
                    91  4.669331994964808E-006
                    92  1.298943403565130E-002
                    93 -1.898707247688420E-003
                    94 -3.088313234786510E-004
                    95  3.147422807107270E-003
                    96 -1.024734069561180E-004
                    97  9.098881480111100E-005
                    98 -2.194151005719550E-004
                    99  2.836570598056630E-005
                   100 -3.975261009924970E-007
                   101 -5.333386530314490E-004
                   102  1.511963832072940E-004
                   103 -2.922427704089140E-005
                   104  1.835994304513540E-003
                   105 -1.320474020426182E-005
                   106 -2.394833306352610E-005
                   107 -7.439189478977110E-006
                   108 -3.433514114796000E-005
                   109 -3.997194035980820E-006
                   110 -4.135032863818048E-004
                   111  4.578213171555690E-004
                   112  3.822244784997450E-006
                   113  7.568440605888280E-004
                   114 -3.460206978645280E-006
                   115 -5.073322620562285E-005
                   116  1.099391121217434E-004
                   117 -1.745578541370033E-007
                   118  1.641745091179342E-005
                   119  6.731915244184390E-006
                   120 -3.015796243386585E-005
                   121  4.669241673357547E-006
                   122 -1.270112352506410E-004
                   123 -6.967069873572499E-004
                   124  2.516767467869790E-004
                   125 -3.118988329583450E-004
                   126 -2.236082845210110E-004
                   127  1.113952392905770E-005
                   128 -3.918428056712060E-005
                   129  6.030306355053630E-004
                   130 -3.301521549901480E-007
                   131  3.550532338303480E-005
                   132  5.894036879235320E-004
                   133  6.603428744123860E-006
                   134  3.330075717925420E-004
                   135 -3.736472364123742E-007
                   136  4.238003721904490E-005
                   137  1.121027801560300E-007
                   138 -3.323507013180220E-005
                   139 -1.067319848668650E-006
                   140  1.920339819780889E-004
                   141 -2.518680095296010E-004
                   142  1.430128806151210E-006
                   143 -2.644595960225380E-004
                   144 -4.636932856013620E-006
                   145 -1.863549789237353E-005
                   146  1.452380976045376E-005
                   147 -5.611876225114266E-008
                   148 -1.392910267063238E-005
                   149 -2.034756386364690E-006
                   150 -2.596008007255947E-005
                   151 -6.109908724204672E-007
                   152 -1.268250749724750E-004
                   153 -6.960844751260190E-004
                   154  2.517231378378320E-004
                   155 -3.125772344643070E-004
                   156 -2.236084031608580E-004
                   157  1.114005136831680E-005
                   158  3.917622082068220E-005
                   159  6.030525575563580E-004
                   160 -3.315261093555650E-007