[Molden Format]
[Atoms] AU
  N     1    7    -0.0570720500   -4.3511733100    0.0000000000        
  C     2    6     0.0307281700   -1.8105094600    0.0000000000        
  C     3    6    -2.2954543600   -0.4225345800    0.0000000000        
  C     4    6     2.3352574900   -0.3945250900    0.0000000000        
  C     5    6    -2.2755830800    2.1689505000    0.0000000000        
  C     6    6     2.2966909900    2.1946860000    0.0000000000        
  C     7    6     0.0059297500    3.5072513300    0.0000000000        
  H     8    1    -2.9252620400   -6.1786052400    0.0000000000        
  H     9    1     1.6996002300   -5.1717450000    0.0000000000        
  H    10    1    -4.0328276600   -1.4613926400    0.0000000000        
  H    11    1     4.0969318300   -1.3945687800    0.0000000000        
  H    12    1    -4.0316488300    3.1857806700    0.0000000000        
  H    13    1     4.0447389400    3.2267779800    0.0000000000        
  H    14    1    -0.0028545800    5.5348015400    0.0000000000        
[5D]
[7F]
[GTO]
  1  0
   s    12 1.00
  0.114200D+05  0.172695D-04
  0.171200D+04  0.134411D-03
  0.389300D+03  0.694561D-03
  0.110000D+03  0.278531D-02
  0.355700D+02  0.863457D-02
  0.125400D+02  0.199805D-01
  0.464400D+01  0.262908D-01
  0.129300D+01 -0.243845D-01
  0.511800D+00 -0.924934D-01
  0.178700D+00 -0.339683D+00
  0.246240D-01  0.345111D+00
  0.112530D-01  0.752750D+00
   s    10 1.00
  0.114200D+05  0.523000D-03
  0.171200D+04  0.404500D-02
  0.389300D+03  0.207750D-01
  0.110000D+03  0.807269D-01
  0.355700D+02  0.233074D+00
  0.125400D+02  0.433501D+00
  0.464400D+01  0.347472D+00
  0.129300D+01  0.412620D-01
  0.511800D+00 -0.850799D-02
  0.178700D+00  0.238400D-02
   s    10 1.00
  0.114200D+05 -0.115000D-03
  0.171200D+04 -0.895000D-03
  0.389300D+03 -0.462400D-02
  0.110000D+03 -0.185280D-01
  0.355700D+02 -0.573390D-01
  0.125400D+02 -0.132076D+00
  0.464400D+01 -0.172510D+00
  0.129300D+01  0.151814D+00
  0.511800D+00  0.599944D+00
  0.178700D+00  0.387462D+00
   s     1 1.00
  0.129300D+01  0.100000D+01
   s     1 1.00
  0.178700D+00  0.100000D+01
   p     5 1.00
  0.266300D+02  0.146700D-01
  0.594800D+01  0.917640D-01
  0.174200D+01  0.298683D+00
  0.555000D+00  0.498487D+00
  0.172500D+00  0.337023D+00
   p     1 1.00
  0.174200D+01  0.100000D+01
   p     1 1.00
  0.555000D+00  0.100000D+01
   d     1 1.00
  0.165400D+01  0.100000D+01
   d     1 1.00
  0.469000D+00  0.100000D+01
   f     1 1.00
  0.109300D+01  0.100000D+01
  
  2  0
   s    10 1.00
  0.823600D+04  0.531000D-03
  0.123500D+04  0.410800D-02
  0.280800D+03  0.210870D-01
  0.792700D+02  0.818530D-01
  0.255900D+02  0.234817D+00
  0.899700D+01  0.434401D+00
  0.331900D+01  0.346129D+00
  0.905900D+00  0.393780D-01
  0.364300D+00 -0.898300D-02
  0.128500D+00  0.238500D-02
   s    10 1.00
  0.823600D+04 -0.113000D-03
  0.123500D+04 -0.878000D-03
  0.280800D+03 -0.454000D-02
  0.792700D+02 -0.181330D-01
  0.255900D+02 -0.557600D-01
  0.899700D+01 -0.126895D+00
  0.331900D+01 -0.170352D+00
  0.905900D+00  0.140382D+00
  0.364300D+00  0.598684D+00
  0.128500D+00  0.395389D+00
   s     1 1.00
  0.905900D+00  0.100000D+01
   s     1 1.00
  0.364300D+00  0.100000D+01
   p     5 1.00
  0.187100D+02  0.140310D-01
  0.413300D+01  0.868660D-01
  0.120000D+01  0.290216D+00
  0.382700D+00  0.501008D+00
  0.120900D+00  0.343406D+00
   p     1 1.00
  0.382700D+00  0.100000D+01
   p     1 1.00
  0.120900D+00  0.100000D+01
   d     1 1.00
  0.109700D+01  0.100000D+01
   d     1 1.00
  0.318000D+00  0.100000D+01
   f     1 1.00
  0.761000D+00  0.100000D+01
  
  3  0
   s    10 1.00
  0.823600D+04  0.531000D-03
  0.123500D+04  0.410800D-02
  0.280800D+03  0.210870D-01
  0.792700D+02  0.818530D-01
  0.255900D+02  0.234817D+00
  0.899700D+01  0.434401D+00
  0.331900D+01  0.346129D+00
  0.905900D+00  0.393780D-01
  0.364300D+00 -0.898300D-02
  0.128500D+00  0.238500D-02
   s    10 1.00
  0.823600D+04 -0.113000D-03
  0.123500D+04 -0.878000D-03
  0.280800D+03 -0.454000D-02
  0.792700D+02 -0.181330D-01
  0.255900D+02 -0.557600D-01
  0.899700D+01 -0.126895D+00
  0.331900D+01 -0.170352D+00
  0.905900D+00  0.140382D+00
  0.364300D+00  0.598684D+00
  0.128500D+00  0.395389D+00
   s     1 1.00
  0.905900D+00  0.100000D+01
   s     1 1.00
  0.364300D+00  0.100000D+01
   p     5 1.00
  0.187100D+02  0.140310D-01
  0.413300D+01  0.868660D-01
  0.120000D+01  0.290216D+00
  0.382700D+00  0.501008D+00
  0.120900D+00  0.343406D+00
   p     1 1.00
  0.382700D+00  0.100000D+01
   p     1 1.00
  0.120900D+00  0.100000D+01
   d     1 1.00
  0.109700D+01  0.100000D+01
   d     1 1.00
  0.318000D+00  0.100000D+01
   f     1 1.00
  0.761000D+00  0.100000D+01
  
  4  0
   s    10 1.00
  0.823600D+04  0.531000D-03
  0.123500D+04  0.410800D-02
  0.280800D+03  0.210870D-01
  0.792700D+02  0.818530D-01
  0.255900D+02  0.234817D+00
  0.899700D+01  0.434401D+00
  0.331900D+01  0.346129D+00
  0.905900D+00  0.393780D-01
  0.364300D+00 -0.898300D-02
  0.128500D+00  0.238500D-02
   s    10 1.00
  0.823600D+04 -0.113000D-03
  0.123500D+04 -0.878000D-03
  0.280800D+03 -0.454000D-02
  0.792700D+02 -0.181330D-01
  0.255900D+02 -0.557600D-01
  0.899700D+01 -0.126895D+00
  0.331900D+01 -0.170352D+00
  0.905900D+00  0.140382D+00
  0.364300D+00  0.598684D+00
  0.128500D+00  0.395389D+00
   s     1 1.00
  0.905900D+00  0.100000D+01
   s     1 1.00
  0.364300D+00  0.100000D+01
   p     5 1.00
  0.187100D+02  0.140310D-01
  0.413300D+01  0.868660D-01
  0.120000D+01  0.290216D+00
  0.382700D+00  0.501008D+00
  0.120900D+00  0.343406D+00
   p     1 1.00
  0.382700D+00  0.100000D+01
   p     1 1.00
  0.120900D+00  0.100000D+01
   d     1 1.00
  0.109700D+01  0.100000D+01
   d     1 1.00
  0.318000D+00  0.100000D+01
   f     1 1.00
  0.761000D+00  0.100000D+01
  
  5  0
   s    10 1.00
  0.823600D+04  0.531000D-03
  0.123500D+04  0.410800D-02
  0.280800D+03  0.210870D-01
  0.792700D+02  0.818530D-01
  0.255900D+02  0.234817D+00
  0.899700D+01  0.434401D+00
  0.331900D+01  0.346129D+00
  0.905900D+00  0.393780D-01
  0.364300D+00 -0.898300D-02
  0.128500D+00  0.238500D-02
   s    10 1.00
  0.823600D+04 -0.113000D-03
  0.123500D+04 -0.878000D-03
  0.280800D+03 -0.454000D-02
  0.792700D+02 -0.181330D-01
  0.255900D+02 -0.557600D-01
  0.899700D+01 -0.126895D+00
  0.331900D+01 -0.170352D+00
  0.905900D+00  0.140382D+00
  0.364300D+00  0.598684D+00
  0.128500D+00  0.395389D+00
   s     1 1.00
  0.905900D+00  0.100000D+01
   s     1 1.00
  0.364300D+00  0.100000D+01
   p     5 1.00
  0.187100D+02  0.140310D-01
  0.413300D+01  0.868660D-01
  0.120000D+01  0.290216D+00
  0.382700D+00  0.501008D+00
  0.120900D+00  0.343406D+00
   p     1 1.00
  0.382700D+00  0.100000D+01
   p     1 1.00
  0.120900D+00  0.100000D+01
   d     1 1.00
  0.109700D+01  0.100000D+01
   d     1 1.00
  0.318000D+00  0.100000D+01
   f     1 1.00
  0.761000D+00  0.100000D+01
  
  6  0
   s    10 1.00
  0.823600D+04  0.531000D-03
  0.123500D+04  0.410800D-02
  0.280800D+03  0.210870D-01
  0.792700D+02  0.818530D-01
  0.255900D+02  0.234817D+00
  0.899700D+01  0.434401D+00
  0.331900D+01  0.346129D+00
  0.905900D+00  0.393780D-01
  0.364300D+00 -0.898300D-02
  0.128500D+00  0.238500D-02
   s    10 1.00
  0.823600D+04 -0.113000D-03
  0.123500D+04 -0.878000D-03
  0.280800D+03 -0.454000D-02
  0.792700D+02 -0.181330D-01
  0.255900D+02 -0.557600D-01
  0.899700D+01 -0.126895D+00
  0.331900D+01 -0.170352D+00
  0.905900D+00  0.140382D+00
  0.364300D+00  0.598684D+00
  0.128500D+00  0.395389D+00
   s     1 1.00
  0.905900D+00  0.100000D+01
   s     1 1.00
  0.364300D+00  0.100000D+01
   p     5 1.00
  0.187100D+02  0.140310D-01
  0.413300D+01  0.868660D-01
  0.120000D+01  0.290216D+00
  0.382700D+00  0.501008D+00
  0.120900D+00  0.343406D+00
   p     1 1.00
  0.382700D+00  0.100000D+01
   p     1 1.00
  0.120900D+00  0.100000D+01
   d     1 1.00
  0.109700D+01  0.100000D+01
   d     1 1.00
  0.318000D+00  0.100000D+01
   f     1 1.00
  0.761000D+00  0.100000D+01
  
  7  0
   s    10 1.00
  0.823600D+04  0.531000D-03
  0.123500D+04  0.410800D-02
  0.280800D+03  0.210870D-01
  0.792700D+02  0.818530D-01
  0.255900D+02  0.234817D+00
  0.899700D+01  0.434401D+00
  0.331900D+01  0.346129D+00
  0.905900D+00  0.393780D-01
  0.364300D+00 -0.898300D-02
  0.128500D+00  0.238500D-02
   s    10 1.00
  0.823600D+04 -0.113000D-03
  0.123500D+04 -0.878000D-03
  0.280800D+03 -0.454000D-02
  0.792700D+02 -0.181330D-01
  0.255900D+02 -0.557600D-01
  0.899700D+01 -0.126895D+00
  0.331900D+01 -0.170352D+00
  0.905900D+00  0.140382D+00
  0.364300D+00  0.598684D+00
  0.128500D+00  0.395389D+00
   s     1 1.00
  0.905900D+00  0.100000D+01
   s     1 1.00
  0.364300D+00  0.100000D+01
   p     5 1.00
  0.187100D+02  0.140310D-01
  0.413300D+01  0.868660D-01
  0.120000D+01  0.290216D+00
  0.382700D+00  0.501008D+00
  0.120900D+00  0.343406D+00
   p     1 1.00
  0.382700D+00  0.100000D+01
   p     1 1.00
  0.120900D+00  0.100000D+01
   d     1 1.00
  0.109700D+01  0.100000D+01
   d     1 1.00
  0.318000D+00  0.100000D+01
   f     1 1.00
  0.761000D+00  0.100000D+01
  
  8  0
   s     4 1.00
  0.130100D+02  0.196850D-01
  0.196200D+01  0.137977D+00
  0.444600D+00  0.478148D+00
  0.122000D+00  0.501240D+00
   s     1 1.00
  0.122000D+00  0.100000D+01
   p     1 1.00
  0.727000D+00  0.100000D+01
  
  9  0
   s     4 1.00
  0.130100D+02  0.196850D-01
  0.196200D+01  0.137977D+00
  0.444600D+00  0.478148D+00
  0.122000D+00  0.501240D+00
   s     1 1.00
  0.122000D+00  0.100000D+01
   p     1 1.00
  0.727000D+00  0.100000D+01
  
 10  0
   s     4 1.00
  0.130100D+02  0.196850D-01
  0.196200D+01  0.137977D+00
  0.444600D+00  0.478148D+00
  0.122000D+00  0.501240D+00
   s     1 1.00
  0.122000D+00  0.100000D+01
   p     1 1.00
  0.727000D+00  0.100000D+01
  
 11  0
   s     4 1.00
  0.130100D+02  0.196850D-01
  0.196200D+01  0.137977D+00
  0.444600D+00  0.478148D+00
  0.122000D+00  0.501240D+00
   s     1 1.00
  0.122000D+00  0.100000D+01
   p     1 1.00
  0.727000D+00  0.100000D+01
  
 12  0
   s     4 1.00
  0.130100D+02  0.196850D-01
  0.196200D+01  0.137977D+00
  0.444600D+00  0.478148D+00
  0.122000D+00  0.501240D+00
   s     1 1.00
  0.122000D+00  0.100000D+01
   p     1 1.00
  0.727000D+00  0.100000D+01
  
 13  0
   s     4 1.00
  0.130100D+02  0.196850D-01
  0.196200D+01  0.137977D+00
  0.444600D+00  0.478148D+00
  0.122000D+00  0.501240D+00
   s     1 1.00
  0.122000D+00  0.100000D+01
   p     1 1.00
  0.727000D+00  0.100000D+01
  
 14  0
   s     4 1.00
  0.130100D+02  0.196850D-01
  0.196200D+01  0.137977D+00
  0.444600D+00  0.478148D+00
  0.122000D+00  0.501240D+00
   s     1 1.00
  0.122000D+00  0.100000D+01
   p     1 1.00
  0.727000D+00  0.100000D+01
  
[MO]
 Sym= __1_A__
 Ene=  0.000000000000000E+000
 Spin= Alpha
 Occup=    2.00000000000000     
                     1  7.803584763306067E-005
                     2  0.998339168078136     
                     3  2.214003322150377E-003
                     4  1.723206283887157E-003
                     5  5.217896151400575E-003
                     6  3.296735644237330E-003
                     7  6.041619753011621E-003
                     8  1.359301105234789E-011
                     9 -5.942381514439579E-004
                    10 -5.702007717278204E-004
                    11 -1.003660339367051E-012
                    12 -2.375385636417884E-003
                    13 -1.611633440681739E-003
                    14 -3.912371374392238E-012
                    15 -9.780962358546081E-005
                    16 -1.905287840932071E-013
                    17  2.754824086875561E-013
                    18 -1.690615679029360E-004
                    19 -8.985303677575763E-005
                    20  1.211992658242253E-004
                    21  5.433655942057189E-013
                    22  2.477016444428547E-012
                    23 -2.666421101758424E-004
                    24  5.553831481682689E-004
                    25 -9.296780813372694E-014
                    26 -1.126635865962350E-005
                    27 -5.415011380132371E-005
                    28  1.187546476378594E-013
                    29 -4.001099143438863E-013
                    30  2.808259234055832E-005
                    31 -1.387055028094210E-004
                    32 -3.510771389008442E-004
                    33  1.226576934775654E-003
                    34  2.802602254082221E-004
                    35 -3.179810739461105E-004
                    36 -2.622717427317569E-004
                    37 -4.709632708853893E-003
                    38  1.064481345841698E-011
                    39  4.802955202771799E-004
                    40  3.059267306208195E-004
                    41 -2.372392087028842E-012
                    42 -2.097599345358093E-003
                    43  5.329479466489983E-003
                    44 -4.872302353508701E-013
                    45 -2.451551958345521E-005
                    46  5.314178609012662E-013
                    47 -3.646900751374673E-013
                    48 -2.344602152642208E-004
                    49 -8.194405227924792E-006
                    50 -2.504098274154541E-004
                    51  2.411279524001155E-013
                    52  3.357226252130793E-012
                    53 -1.973165495717247E-005
                    54  8.312221511602659E-004
                    55 -1.035109298677513E-012
                    56 -1.158494048005676E-005
                    57 -4.427997369752355E-005
                    58  5.163068333178848E-013
                    59 -8.802660331091289E-014
                    60  2.186762825681810E-005
                    61 -1.112811391043042E-004
                    62 -4.854870815475381E-004
                    63 -2.264375250901211E-003
                    64 -9.384388792431737E-005
                    65  2.106813753366534E-003
                    66 -6.718242370132810E-004
                    67  5.175968892326825E-004
                    68 -2.566790298494923E-012
                    69  4.523551830366659E-004
                    70  7.773084857201152E-004
                    71  4.632791009992588E-012
                    72 -1.805771794552042E-003
                    73  7.828877707634423E-004
                    74 -3.156135772511392E-013
                    75 -4.117219643988385E-005
                    76  4.987560103671612E-014
                    77  2.449524272844861E-013
                    78 -8.098892244281494E-005
                    79 -2.873078295718326E-005
                    80 -1.291840709884617E-004
                    81 -2.451551311231636E-012
                    82  2.723069316747273E-012
                    83  6.296286797250310E-005
                    84  6.169668582123780E-005
                    85  5.785709213499013E-013
                    86  1.163631981095151E-005
                    87 -4.876702984674989E-005
                    88  9.049465492559562E-013
                    89 -2.638905452375718E-014
                    90 -1.863589527252981E-005
                    91 -1.497629395978746E-004
                    92 -1.638020181138339E-004
                    93 -1.153068031310721E-003
                    94  1.971217033498157E-004
                    95 -2.015862572852802E-004
                    96  5.638516547582187E-004
                    97  7.104196512798732E-004
                    98  5.403729016351780E-012
                    99  4.067272859644683E-004
                   100  3.334400246936858E-004
                   101  4.945503992254424E-013
                   102  4.756802644066789E-004
                   103 -1.687300314647220E-003
                   104 -2.323936698370443E-015
                   105 -4.361211267658825E-007
                   106 -5.679353750939895E-013
                   107 -2.038012731479013E-013
                   108 -7.551049786775381E-005
                   109 -2.091836296781486E-005
                   110  1.000236545472598E-004
                   111  2.572263926826719E-012
                   112  7.419152672852586E-012
                   113 -1.752298593699395E-004
                   114 -9.887719254963372E-006
                   115  3.281348016820659E-013
                   116 -2.483535796358198E-005
                   117 -2.741779660966901E-005
                   118 -1.130949316051814E-012
                   119  8.270232162618921E-013
                   120 -1.095648881462852E-005
                   121 -2.535590272038582E-005
                   122 -2.488172658128056E-004
                   123 -4.749174923772619E-004
                   124  1.641566728380314E-004
                   125  3.529298000121240E-004
                   126 -1.395417295865134E-005
                   127 -5.752250500109347E-004
                   128 -4.309877229716156E-014
                   129  1.910846766727759E-004
                   130  6.088649198224658E-004
                   131 -1.096111833204290E-012
                   132  4.925376206786827E-004
                   133  2.033803723992929E-003
                   134  5.856862683335961E-013
                   135  1.156541981267238E-005
                   136  6.651086050588662E-014
                   137  1.201657144012727E-013
                   138  3.821026657280200E-005
                   139  1.498149699472495E-006
                   140  1.905781676872758E-004
                   141  4.148845809967050E-012
                   142  4.723866772424902E-012
                   143  3.640966924784232E-004
                   144  2.406894723017411E-004
                   145  4.013571475573690E-013
                   146 -8.980548314931833E-006
                   147 -6.109852700112926E-005
                   148 -5.656523786144838E-013
                   149  6.175085934251951E-014
                   150 -1.880448363540409E-005
                   151 -4.614631629778870E-005
                   152 -1.518599240682351E-004
                   153 -1.706079128474122E-004
                   154  4.792933549347388E-005
                   155  2.593817432744685E-004
                   156 -2.702314622119483E-005
                   157 -5.050877965770393E-004
                   158 -4.755720527232960E-013
                   159  2.829370991851693E-005
                   160  6.238934261769355E-005
                   161 -3.031313245683716E-012
                   162  7.580932245331622E-004
                   163 -3.491939332259879E-004
                   164  4.349971123860635E-014
                   165 -2.450936571126971E-006
                   166  4.507470628853997E-013
                   167 -7.925059851057655E-013
                   168 -7.895328145340231E-006
                   169  2.567330498489751E-006
                   170  8.284792562710417E-005
                   171 -2.530803008506692E-012
                   172  5.751547892336029E-012
                   173  2.138839376616214E-005
                   174 -1.092646483134018E-005
                   175 -1.095342380323140E-012
                   176  1.990831709080596E-006
                   177 -9.825710962575838E-006
                   178  8.397718821702468E-013
                   179  5.492356542870002E-013
                   180 -1.729335528486538E-005
                   181 -1.631254757145497E-005
                   182 -1.526304189844569E-004
                   183 -4.483350421671050E-004
                   184  3.949418626263141E-005
                   185  2.152778542419043E-004
                   186 -4.431141665651193E-005
                   187 -4.242579533815854E-005
                   188 -5.515797309358639E-012
                   189  2.347481007875477E-004
                   190  8.261408456456978E-005
                   191  1.032156172097979E-012
                   192  1.356204889733554E-003
                   193 -2.358483938959283E-004
                   194 -2.056923072866771E-012
                   195  7.537907354150958E-007
                   196  3.599462497643925E-013
                   197  2.141272143758441E-013
                   198 -1.207004993121407E-005
                   199  4.267629373212152E-006
                   200 -1.415966130450121E-006
                   201  1.478509131062882E-012
                   202  1.590132671052257E-012
                   203 -8.601979379188755E-005
                   204 -1.911349498820260E-004
                   205  1.123159092820697E-013
                   206 -7.972470727245658E-006
                   207 -4.822758674434844E-006
                   208  6.202208552832452E-013
                   209 -2.463725881332076E-012
                   210  9.454391333873514E-006
                   211 -4.989171516598146E-006
                   212 -3.368881639620537E-005
                   213  8.489318152414192E-005
                   214  7.214577846594133E-005
                   215  8.549935956229512E-005
                   216 -6.133435972402194E-013
                   217  1.458112750212326E-003
                   218 -1.645875455845131E-003
                   219 -4.276112878293646E-004
                   220  1.717201198752742E-004
                   221 -8.100931538058110E-014
                   222 -4.574670714969729E-004
                   223 -6.364185792420094E-004
                   224  3.204289652124243E-006
                   225 -6.880970439689753E-005
                   226 -1.978436274169575E-013
                   227 -2.762560670645229E-004
                   228 -4.686558046619043E-004
                   229 -1.503623958391798E-005
                   230 -1.686093400159817E-005
                   231  1.514271171033292E-012
                   232 -8.495549928843925E-005
                   233 -4.796941354649963E-004
                   234  2.379191594232008E-006
                   235 -2.186710261261388E-006
                   236 -7.127764975863546E-013
                   237 -1.629233014689137E-004
                   238 -3.788202421024344E-004
                   239  4.531088178161009E-006
                   240 -4.547016065137193E-007
                   241  5.525706376452902E-013
                   242  1.162918557454629E-005
                   243  3.298066294025831E-005
                   244 -5.092341427081330E-007
                   245  2.581104385763906E-005
                   246  1.405136705580475E-013
 Sym= __2_A__
 Ene=  0.000000000000000E+000
 Spin= Alpha
 Occup=    2.00000000000000     
                     1 -5.069809115545223E-005
                     2 -2.610283541311053E-004
                     3  2.636339143652001E-003
                     4  1.166611039827202E-004
                     5  1.327792452364661E-003
                     6 -3.429683113507182E-004
                     7  2.905981275613653E-003
                     8  4.723840718174562E-012
                     9 -5.744536377385386E-005
                    10 -1.135632781267670E-004
                    11 -3.019305089874035E-013
                    12  9.340148442833728E-006
                    13 -3.452549979632905E-004
                    14 -1.031004345742052E-012
                    15  3.002218933015505E-005
                    16  3.802022767491192E-013
                    17  2.752959566470534E-013
                    18 -5.006358118688380E-005
                    19  1.807787541949621E-005
                    20 -1.210253922292205E-004
                    21 -6.688557363793519E-013
                    22  6.101647382868005E-013
                    23  1.416923790277873E-004
                    24 -1.025526641666133E-004
                    25  6.185015584898487E-013
                    26 -1.904628448703280E-005
                    27  9.559460250106603E-005
                    28  2.752512891920122E-013
                    29 -8.942365774239960E-015
                    30 -5.486049956910577E-005
                    31  1.498443832368305E-004
                    32   1.00102875106868     
                    33  9.244957470210636E-003
                    34  2.663273173982146E-003
                    35 -8.041123813690069E-003
                    36 -2.590115025756134E-005
                    37 -3.238436259469932E-003
                    38  5.147379600862867E-012
                    39 -1.231452206127931E-004
                    40  2.808373128778873E-004
                    41 -2.112547658646828E-012
                    42 -7.367545714101367E-005
                    43  4.038832530214499E-003
                    44  1.598689058635060E-013
                    45 -5.472178406422790E-004
                    46  1.961534187659438E-013
                    47 -1.603916626552596E-013
                    48 -1.823984626066350E-004
                    49  2.901011918877356E-005
                    50  5.352743376104736E-004
                    51  1.121175595777094E-012
                    52 -3.258507880754947E-014
                    53 -7.072722774763574E-004
                    54 -2.616512881003275E-004
                    55 -6.182149588562306E-013
                    56  7.464461081015706E-006
                    57  8.726630856433313E-005
                    58 -8.021796725871374E-013
                    59  2.717964803320195E-013
                    60 -2.272137571243283E-005
                    61  3.847697990698115E-004
                    62  9.369139915626075E-003
                    63 -2.044211823109516E-003
                    64 -2.532032665233434E-004
                    65  2.771852400409066E-003
                    66  1.975277563049933E-005
                    67  6.621754391753491E-005
                    68 -2.952571023046623E-013
                    69  5.667255024213518E-004
                    70  1.095151377830883E-004
                    71  2.972078422618802E-012
                    72 -2.051609987521209E-003
                    73  2.321431198231619E-004
                    74  6.072533007767749E-013
                    75  3.479408020754690E-005
                    76  8.209198900268134E-013
                    77 -4.045386229385284E-013
                    78 -2.472220282453050E-006
                    79  4.161967420481904E-006
                    80 -4.194365867811974E-004
                    81 -4.744568719345161E-013
                    82  4.763193306512693E-013
                    83 -6.318659901686718E-004
                    84 -2.787484989299808E-004
                    85  5.735490866598005E-013
                    86  3.045785600962390E-005
                    87 -5.877637726427974E-005
                    88  3.799843497675992E-014
                    89 -1.424184965515828E-012
                    90  3.929483483271432E-005
                    91  1.449720043715611E-004
                    92  1.081985170577272E-002
                    93 -2.053098727636529E-003
                    94 -3.060842957771734E-004
                    95  3.157869982786158E-003
                    96  2.543810377790897E-005
                    97  2.189901385832578E-005
                    98  2.573151770964601E-012
                    99 -8.474438525508066E-004
                   100  4.371089348662372E-005
                   101 -9.071876039037844E-013
                   102  1.818854166576161E-003
                   103  7.293741271367011E-005
                   104 -7.970867785855776E-013
                   105  2.641444945036620E-005
                   106  2.746865381345088E-013
                   107 -4.963068590180883E-013
                   108 -2.682024216166018E-006
                   109  4.103134249431974E-006
                   110 -4.268510319817337E-004
                   111 -6.891853593305022E-013
                   112  9.488318794591210E-013
                   113 -4.544089506545468E-004
                   114  2.886704998271592E-004
                   115  2.015304644073177E-013
                   116 -2.961459716589854E-005
                   117 -6.755135069172677E-005
                   118 -3.149829831540040E-013
                   119 -6.042703280006422E-013
                   120 -1.484660051850414E-005
                   121  1.301548170026077E-004
                   122 -1.650663827635113E-004
                   123 -6.847321120010968E-004
                   124  2.293018641387099E-004
                   125 -1.221847556749574E-004
                   126  1.668433673781285E-006
                   127 -3.396168130960558E-004
                   128 -1.196357779998079E-012
                   129 -7.217363758346015E-005
                   130  5.845425297123179E-004
                   131  1.500987442594454E-012
                   132  3.435403327960331E-004
                   133  8.322154422276391E-004
                   134  4.886157436478497E-013
                   135  1.883578779031209E-005
                   136 -7.403494039276341E-014
                   137 -4.239634198652186E-013
                   138  5.263195508711972E-006
                   139  4.392607344136693E-005
                   140  1.320100139781053E-004
                   141  1.555548054816652E-012
                   142  1.652630879452537E-012
                   143  2.487756613267552E-004
                   144 -1.296011464510345E-004
                   145  1.856118912209616E-013
                   146  8.391720552621848E-006
                   147 -3.585346434736453E-005
                   148  2.468590102133374E-013
                   149  3.911321421382188E-013
                   150 -4.342693597271686E-005
                   151  3.267385925909409E-005
                   152 -1.095127289475334E-004
                   153 -6.822278429391484E-004
                   154  2.354046977539846E-004
                   155 -8.967117304603601E-005
                   156 -1.797422051075120E-005
                   157 -3.307338294992047E-004
                   158  3.640287633515513E-013
                   159  1.037734630695861E-004
                   160  5.539176188859525E-004