[Molden Format]
[Atoms] AU
  N     1    7    -0.0570720500   -4.3511733100    0.0000000000        
  C     2    6     0.0307281700   -1.8105094600    0.0000000000        
  C     3    6    -2.2954543600   -0.4225345800    0.0000000000        
  C     4    6     2.3352574900   -0.3945250900    0.0000000000        
  C     5    6    -2.2755830800    2.1689505000    0.0000000000        
  C     6    6     2.2966909900    2.1946860000    0.0000000000        
  C     7    6     0.0059297500    3.5072513300    0.0000000000        
  H     8    1    -2.9252620400   -6.1786052400    0.0000000000        
  H     9    1     1.6996002300   -5.1717450000    0.0000000000        
  H    10    1    -4.0328276600   -1.4613926400    0.0000000000        
  H    11    1     4.0969318300   -1.3945687800    0.0000000000        
  H    12    1    -4.0316488300    3.1857806700    0.0000000000        
  H    13    1     4.0447389400    3.2267779800    0.0000000000        
  H    14    1    -0.0028545800    5.5348015400    0.0000000000        
[5D]
[7F]
[GTO]
  1  0
   s    12 1.00
  0.114200D+05  0.172695D-04
  0.171200D+04  0.134411D-03
  0.389300D+03  0.694561D-03
  0.110000D+03  0.278531D-02
  0.355700D+02  0.863457D-02
  0.125400D+02  0.199805D-01
  0.464400D+01  0.262908D-01
  0.129300D+01 -0.243845D-01
  0.511800D+00 -0.924934D-01
  0.178700D+00 -0.339683D+00
  0.246240D-01  0.345111D+00
  0.112530D-01  0.752750D+00
   s    10 1.00
  0.114200D+05  0.523000D-03
  0.171200D+04  0.404500D-02
  0.389300D+03  0.207750D-01
  0.110000D+03  0.807269D-01
  0.355700D+02  0.233074D+00
  0.125400D+02  0.433501D+00
  0.464400D+01  0.347472D+00
  0.129300D+01  0.412620D-01
  0.511800D+00 -0.850799D-02
  0.178700D+00  0.238400D-02
   s    10 1.00
  0.114200D+05 -0.115000D-03
  0.171200D+04 -0.895000D-03
  0.389300D+03 -0.462400D-02
  0.110000D+03 -0.185280D-01
  0.355700D+02 -0.573390D-01
  0.125400D+02 -0.132076D+00
  0.464400D+01 -0.172510D+00
  0.129300D+01  0.151814D+00
  0.511800D+00  0.599944D+00
  0.178700D+00  0.387462D+00
   s     1 1.00
  0.129300D+01  0.100000D+01
   s     1 1.00
  0.178700D+00  0.100000D+01
   p     5 1.00
  0.266300D+02  0.146700D-01
  0.594800D+01  0.917640D-01
  0.174200D+01  0.298683D+00
  0.555000D+00  0.498487D+00
  0.172500D+00  0.337023D+00
   p     1 1.00
  0.174200D+01  0.100000D+01
   p     1 1.00
  0.555000D+00  0.100000D+01
   d     1 1.00
  0.165400D+01  0.100000D+01
   d     1 1.00
  0.469000D+00  0.100000D+01
   f     1 1.00
  0.109300D+01  0.100000D+01
  
  2  0
   s    10 1.00
  0.823600D+04  0.531000D-03
  0.123500D+04  0.410800D-02
  0.280800D+03  0.210870D-01
  0.792700D+02  0.818530D-01
  0.255900D+02  0.234817D+00
  0.899700D+01  0.434401D+00
  0.331900D+01  0.346129D+00
  0.905900D+00  0.393780D-01
  0.364300D+00 -0.898300D-02
  0.128500D+00  0.238500D-02
   s    10 1.00
  0.823600D+04 -0.113000D-03
  0.123500D+04 -0.878000D-03
  0.280800D+03 -0.454000D-02
  0.792700D+02 -0.181330D-01
  0.255900D+02 -0.557600D-01
  0.899700D+01 -0.126895D+00
  0.331900D+01 -0.170352D+00
  0.905900D+00  0.140382D+00
  0.364300D+00  0.598684D+00
  0.128500D+00  0.395389D+00
   s     1 1.00
  0.905900D+00  0.100000D+01
   s     1 1.00
  0.364300D+00  0.100000D+01
   p     5 1.00
  0.187100D+02  0.140310D-01
  0.413300D+01  0.868660D-01
  0.120000D+01  0.290216D+00
  0.382700D+00  0.501008D+00
  0.120900D+00  0.343406D+00
   p     1 1.00
  0.382700D+00  0.100000D+01
   p     1 1.00
  0.120900D+00  0.100000D+01
   d     1 1.00
  0.109700D+01  0.100000D+01
   d     1 1.00
  0.318000D+00  0.100000D+01
   f     1 1.00
  0.761000D+00  0.100000D+01
  
  3  0
   s    10 1.00
  0.823600D+04  0.531000D-03
  0.123500D+04  0.410800D-02
  0.280800D+03  0.210870D-01
  0.792700D+02  0.818530D-01
  0.255900D+02  0.234817D+00
  0.899700D+01  0.434401D+00
  0.331900D+01  0.346129D+00
  0.905900D+00  0.393780D-01
  0.364300D+00 -0.898300D-02
  0.128500D+00  0.238500D-02
   s    10 1.00
  0.823600D+04 -0.113000D-03
  0.123500D+04 -0.878000D-03
  0.280800D+03 -0.454000D-02
  0.792700D+02 -0.181330D-01
  0.255900D+02 -0.557600D-01
  0.899700D+01 -0.126895D+00
  0.331900D+01 -0.170352D+00
  0.905900D+00  0.140382D+00
  0.364300D+00  0.598684D+00
  0.128500D+00  0.395389D+00
   s     1 1.00
  0.905900D+00  0.100000D+01
   s     1 1.00
  0.364300D+00  0.100000D+01
   p     5 1.00
  0.187100D+02  0.140310D-01
  0.413300D+01  0.868660D-01
  0.120000D+01  0.290216D+00
  0.382700D+00  0.501008D+00
  0.120900D+00  0.343406D+00
   p     1 1.00
  0.382700D+00  0.100000D+01
   p     1 1.00
  0.120900D+00  0.100000D+01
   d     1 1.00
  0.109700D+01  0.100000D+01
   d     1 1.00
  0.318000D+00  0.100000D+01
   f     1 1.00
  0.761000D+00  0.100000D+01
  
  4  0
   s    10 1.00
  0.823600D+04  0.531000D-03
  0.123500D+04  0.410800D-02
  0.280800D+03  0.210870D-01
  0.792700D+02  0.818530D-01
  0.255900D+02  0.234817D+00
  0.899700D+01  0.434401D+00
  0.331900D+01  0.346129D+00
  0.905900D+00  0.393780D-01
  0.364300D+00 -0.898300D-02
  0.128500D+00  0.238500D-02
   s    10 1.00
  0.823600D+04 -0.113000D-03
  0.123500D+04 -0.878000D-03
  0.280800D+03 -0.454000D-02
  0.792700D+02 -0.181330D-01
  0.255900D+02 -0.557600D-01
  0.899700D+01 -0.126895D+00
  0.331900D+01 -0.170352D+00
  0.905900D+00  0.140382D+00
  0.364300D+00  0.598684D+00
  0.128500D+00  0.395389D+00
   s     1 1.00
  0.905900D+00  0.100000D+01
   s     1 1.00
  0.364300D+00  0.100000D+01
   p     5 1.00
  0.187100D+02  0.140310D-01
  0.413300D+01  0.868660D-01
  0.120000D+01  0.290216D+00
  0.382700D+00  0.501008D+00
  0.120900D+00  0.343406D+00
   p     1 1.00
  0.382700D+00  0.100000D+01
   p     1 1.00
  0.120900D+00  0.100000D+01
   d     1 1.00
  0.109700D+01  0.100000D+01
   d     1 1.00
  0.318000D+00  0.100000D+01
   f     1 1.00
  0.761000D+00  0.100000D+01
  
  5  0
   s    10 1.00
  0.823600D+04  0.531000D-03
  0.123500D+04  0.410800D-02
  0.280800D+03  0.210870D-01
  0.792700D+02  0.818530D-01
  0.255900D+02  0.234817D+00
  0.899700D+01  0.434401D+00
  0.331900D+01  0.346129D+00
  0.905900D+00  0.393780D-01
  0.364300D+00 -0.898300D-02
  0.128500D+00  0.238500D-02
   s    10 1.00
  0.823600D+04 -0.113000D-03
  0.123500D+04 -0.878000D-03
  0.280800D+03 -0.454000D-02
  0.792700D+02 -0.181330D-01
  0.255900D+02 -0.557600D-01
  0.899700D+01 -0.126895D+00
  0.331900D+01 -0.170352D+00
  0.905900D+00  0.140382D+00
  0.364300D+00  0.598684D+00
  0.128500D+00  0.395389D+00
   s     1 1.00
  0.905900D+00  0.100000D+01
   s     1 1.00
  0.364300D+00  0.100000D+01
   p     5 1.00
  0.187100D+02  0.140310D-01
  0.413300D+01  0.868660D-01
  0.120000D+01  0.290216D+00
  0.382700D+00  0.501008D+00
  0.120900D+00  0.343406D+00
   p     1 1.00
  0.382700D+00  0.100000D+01
   p     1 1.00
  0.120900D+00  0.100000D+01
   d     1 1.00
  0.109700D+01  0.100000D+01
   d     1 1.00
  0.318000D+00  0.100000D+01
   f     1 1.00
  0.761000D+00  0.100000D+01
  
  6  0
   s    10 1.00
  0.823600D+04  0.531000D-03
  0.123500D+04  0.410800D-02
  0.280800D+03  0.210870D-01
  0.792700D+02  0.818530D-01
  0.255900D+02  0.234817D+00
  0.899700D+01  0.434401D+00
  0.331900D+01  0.346129D+00
  0.905900D+00  0.393780D-01
  0.364300D+00 -0.898300D-02
  0.128500D+00  0.238500D-02
   s    10 1.00
  0.823600D+04 -0.113000D-03
  0.123500D+04 -0.878000D-03
  0.280800D+03 -0.454000D-02
  0.792700D+02 -0.181330D-01
  0.255900D+02 -0.557600D-01
  0.899700D+01 -0.126895D+00
  0.331900D+01 -0.170352D+00
  0.905900D+00  0.140382D+00
  0.364300D+00  0.598684D+00
  0.128500D+00  0.395389D+00
   s     1 1.00
  0.905900D+00  0.100000D+01
   s     1 1.00
  0.364300D+00  0.100000D+01
   p     5 1.00
  0.187100D+02  0.140310D-01
  0.413300D+01  0.868660D-01
  0.120000D+01  0.290216D+00
  0.382700D+00  0.501008D+00
  0.120900D+00  0.343406D+00
   p     1 1.00
  0.382700D+00  0.100000D+01
   p     1 1.00
  0.120900D+00  0.100000D+01
   d     1 1.00
  0.109700D+01  0.100000D+01
   d     1 1.00
  0.318000D+00  0.100000D+01
   f     1 1.00
  0.761000D+00  0.100000D+01
  
  7  0
   s    10 1.00
  0.823600D+04  0.531000D-03
  0.123500D+04  0.410800D-02
  0.280800D+03  0.210870D-01
  0.792700D+02  0.818530D-01
  0.255900D+02  0.234817D+00
  0.899700D+01  0.434401D+00
  0.331900D+01  0.346129D+00
  0.905900D+00  0.393780D-01
  0.364300D+00 -0.898300D-02
  0.128500D+00  0.238500D-02
   s    10 1.00
  0.823600D+04 -0.113000D-03
  0.123500D+04 -0.878000D-03
  0.280800D+03 -0.454000D-02
  0.792700D+02 -0.181330D-01
  0.255900D+02 -0.557600D-01
  0.899700D+01 -0.126895D+00
  0.331900D+01 -0.170352D+00
  0.905900D+00  0.140382D+00
  0.364300D+00  0.598684D+00
  0.128500D+00  0.395389D+00
   s     1 1.00
  0.905900D+00  0.100000D+01
   s     1 1.00
  0.364300D+00  0.100000D+01
   p     5 1.00
  0.187100D+02  0.140310D-01
  0.413300D+01  0.868660D-01
  0.120000D+01  0.290216D+00
  0.382700D+00  0.501008D+00
  0.120900D+00  0.343406D+00
   p     1 1.00
  0.382700D+00  0.100000D+01
   p     1 1.00
  0.120900D+00  0.100000D+01
   d     1 1.00
  0.109700D+01  0.100000D+01
   d     1 1.00
  0.318000D+00  0.100000D+01
   f     1 1.00
  0.761000D+00  0.100000D+01
  
  8  0
   s     4 1.00
  0.130100D+02  0.196850D-01
  0.196200D+01  0.137977D+00
  0.444600D+00  0.478148D+00
  0.122000D+00  0.501240D+00
   s     1 1.00
  0.122000D+00  0.100000D+01
   p     1 1.00
  0.727000D+00  0.100000D+01
  
  9  0
   s     4 1.00
  0.130100D+02  0.196850D-01
  0.196200D+01  0.137977D+00
  0.444600D+00  0.478148D+00
  0.122000D+00  0.501240D+00
   s     1 1.00
  0.122000D+00  0.100000D+01
   p     1 1.00
  0.727000D+00  0.100000D+01
  
 10  0
   s     4 1.00
  0.130100D+02  0.196850D-01
  0.196200D+01  0.137977D+00
  0.444600D+00  0.478148D+00
  0.122000D+00  0.501240D+00
   s     1 1.00
  0.122000D+00  0.100000D+01
   p     1 1.00
  0.727000D+00  0.100000D+01
  
 11  0
   s     4 1.00
  0.130100D+02  0.196850D-01
  0.196200D+01  0.137977D+00
  0.444600D+00  0.478148D+00
  0.122000D+00  0.501240D+00
   s     1 1.00
  0.122000D+00  0.100000D+01
   p     1 1.00
  0.727000D+00  0.100000D+01
  
 12  0
   s     4 1.00
  0.130100D+02  0.196850D-01
  0.196200D+01  0.137977D+00
  0.444600D+00  0.478148D+00
  0.122000D+00  0.501240D+00
   s     1 1.00
  0.122000D+00  0.100000D+01
   p     1 1.00
  0.727000D+00  0.100000D+01
  
 13  0
   s     4 1.00
  0.130100D+02  0.196850D-01
  0.196200D+01  0.137977D+00
  0.444600D+00  0.478148D+00
  0.122000D+00  0.501240D+00
   s     1 1.00
  0.122000D+00  0.100000D+01
   p     1 1.00
  0.727000D+00  0.100000D+01
  
 14  0
   s     4 1.00
  0.130100D+02  0.196850D-01
  0.196200D+01  0.137977D+00
  0.444600D+00  0.478148D+00
  0.122000D+00  0.501240D+00
   s     1 1.00
  0.122000D+00  0.100000D+01
   p     1 1.00
  0.727000D+00  0.100000D+01
  
[MO]
 Sym= __1_A__
 Ene=   1.00000000000000     
 Spin= Alpha
 Occup=    1.00000000000000     
                     1  7.803584766212548E-005
                     2  0.998339168077991     
                     3  2.214003323367032E-003
                     4  1.723206283844313E-003
                     5  5.217896150661730E-003
                     6  3.296735644824279E-003
                     7  6.041619753764893E-003
                     8  1.359301105500944E-011
                     9 -5.942381514093241E-004
                    10 -5.702007716345376E-004
                    11 -1.003660339313735E-012
                    12 -2.375385636454358E-003
                    13 -1.611633440661800E-003
                    14 -3.912371374402996E-012
                    15 -9.780962361833641E-005
                    16 -1.905287840618992E-013
                    17  2.754824087111692E-013
                    18 -1.690615679243265E-004
                    19 -8.985303676813542E-005
                    20  1.211992657630369E-004
                    21  5.433655942249847E-013
                    22  2.477016444543725E-012
                    23 -2.666421103752206E-004
                    24  5.553831482667951E-004
                    25 -9.296780810843232E-014
                    26 -1.126635866343919E-005
                    27 -5.415011383556334E-005
                    28  1.187546476262876E-013
                    29 -4.001099143641468E-013
                    30  2.808259234629532E-005
                    31 -1.387055028246081E-004
                    32 -3.510771444837547E-004
                    33  1.226576950379096E-003
                    34  2.802602252338715E-004
                    35 -3.179810746032720E-004
                    36 -2.622717406687752E-004
                    37 -4.709632703590730E-003
                    38  1.064481346017082E-011
                    39  4.802955203030932E-004
                    40  3.059267306320232E-004
                    41 -2.372392086964899E-012
                    42 -2.097599345965734E-003
                    43  5.329479466786512E-003
                    44 -4.872302356961379E-013
                    45 -2.451551982887575E-005
                    46  5.314178608113630E-013
                    47 -3.646900751920012E-013
                    48 -2.344602150378906E-004
                    49 -8.194405169530991E-006
                    50 -2.504098278846608E-004
                    51  2.411279524244824E-013
                    52  3.357226252137669E-012
                    53 -1.973165477028666E-005
                    54  8.312221512656131E-004
                    55 -1.035109298628358E-012
                    56 -1.158494049570846E-005
                    57 -4.427997375279549E-005
                    58  5.163068333318786E-013
                    59 -8.802660333421803E-014
                    60  2.186762827442435E-005
                    61 -1.112811388325450E-004
                    62 -4.854870816824434E-004
                    63 -2.264375247865056E-003
                    64 -9.384388793554677E-005
                    65  2.106813753540913E-003
                    66 -6.718242332284343E-004
                    67  5.175968832768675E-004
                    68 -2.566790296230106E-012
                    69  4.523551828670546E-004
                    70  7.773084866600426E-004
                    71  4.632791010019192E-012
                    72 -1.805771797120788E-003
                    73  7.828877726772801E-004
                    74 -3.156135770771483E-013
                    75 -4.117219651411308E-005
                    76  4.987560099665676E-014
                    77  2.449524272869498E-013
                    78 -8.098892219959579E-005
                    79 -2.873078306463919E-005
                    80 -1.291840711045463E-004
                    81 -2.451551311146409E-012
                    82  2.723069316768271E-012
                    83  6.296286800354491E-005
                    84  6.169668558511957E-005
                    85  5.785709213986431E-013
                    86  1.163631977162276E-005
                    87 -4.876702981439669E-005
                    88  9.049465492800488E-013
                    89 -2.638905452434227E-014
                    90 -1.863589529330880E-005
                    91 -1.497629396713257E-004
                    92 -1.638020180190317E-004
                    93 -1.153068028511126E-003
                    94  1.971217033445876E-004
                    95 -2.015862572543414E-004
                    96  5.638516472980003E-004
                    97  7.104196446751890E-004
                    98  5.403729017087688E-012
                    99  4.067272865669320E-004
                   100  3.334400254842938E-004
                   101  4.945503990862859E-013
                   102  4.756802670872878E-004
                   103 -1.687300312733176E-003
                   104 -2.323936723134676E-015
                   105 -4.361211937213157E-007
                   106 -5.679353751500765E-013
                   107 -2.038012731219312E-013
                   108 -7.551049763791184E-005
                   109 -2.091836271526813E-005
                   110  1.000236544005672E-004
                   111  2.572263926818172E-012
                   112  7.419152672857145E-012
                   113 -1.752298593031835E-004
                   114 -9.887719081771425E-006
                   115  3.281348016635291E-013
                   116 -2.483535790748816E-005
                   117 -2.741779656048648E-005
                   118 -1.130949316031317E-012
                   119  8.270232162274205E-013
                   120 -1.095648881404101E-005
                   121 -2.535590279282604E-005
                   122 -2.488172659655208E-004
                   123 -4.749174952727202E-004
                   124  1.641566729738587E-004
                   125  3.529298002404626E-004
                   126 -1.395417292182882E-005
                   127 -5.752250465351869E-004
                   128 -4.309877066736876E-014
                   129  1.910846768041632E-004
                   130  6.088649198793195E-004
                   131 -1.096111833181724E-012
                   132  4.925376208473470E-004
                   133  2.033803724768143E-003
                   134  5.856862681575807E-013
                   135  1.156541985654894E-005
                   136  6.651086047664963E-014
                   137  1.201657143113240E-013
                   138  3.821026667039682E-005
                   139  1.498149642513078E-006
                   140  1.905781677819341E-004
                   141  4.148845809983561E-012
                   142  4.723866772405177E-012
                   143  3.640966927304252E-004
                   144  2.406894722128478E-004
                   145  4.013571475994764E-013
                   146 -8.980548317226534E-006
                   147 -6.109852704213485E-005
                   148 -5.656523785894624E-013
                   149  6.175085929171470E-014
                   150 -1.880448360067434E-005
                   151 -4.614631634830331E-005
                   152 -1.518599241594366E-004
                   153 -1.706079157646945E-004
                   154  4.792933561458266E-005
                   155  2.593817435766421E-004
                   156 -2.702314526983173E-005
                   157 -5.050877925960501E-004
                   158 -4.755720523952378E-013
                   159  2.829370974122274E-005
                   160  6.238934251428820E-005
                   161 -3.031313245746168E-012
                   162  7.580932246841191E-004
                   163 -3.491939328829599E-004
                   164  4.349971102338152E-014
                   165 -2.450936527511719E-006
                   166  4.507470628611618E-013
                   167 -7.925059851011134E-013
                   168 -7.895328026502067E-006
                   169  2.567330643590015E-006
                   170  8.284792572510715E-005
                   171 -2.530803008457975E-012
                   172  5.751547892221937E-012
                   173  2.138839391380630E-005
                   174 -1.092646475223520E-005
                   175 -1.095342380356499E-012
                   176  1.990831709145272E-006
                   177 -9.825711002619849E-006
                   178  8.397718820820368E-013
                   179  5.492356542484032E-013
                   180 -1.729335533750233E-005
                   181 -1.631254761540044E-005
                   182 -1.526304191382915E-004
                   183 -4.483350432164627E-004
                   184  3.949418630042506E-005
                   185  2.152778545769715E-004
                   186 -4.431141716669493E-005
                   187 -4.242579528492359E-005
                   188 -5.515797308781068E-012
                   189  2.347481007964661E-004
                   190  8.261408460847342E-005
                   191  1.032156172252768E-012
                   192  1.356204889972005E-003
                   193 -2.358483942419600E-004
                   194 -2.056923072990109E-012
                   195  7.537907423558692E-007
                   196  3.599462497461052E-013
                   197  2.141272143546459E-013
                   198 -1.207004985758384E-005
                   199  4.267629391381009E-006
                   200 -1.415966191737533E-006
                   201  1.478509131103147E-012
                   202  1.590132670972035E-012
                   203 -8.601979385137924E-005
                   204 -1.911349498917130E-004
                   205  1.123159093302417E-013
                   206 -7.972470724663664E-006
                   207 -4.822758674186831E-006
                   208  6.202208552883626E-013
                   209 -2.463725881374067E-012
                   210  9.454391338345020E-006
                   211 -4.989171528280008E-006
                   212 -3.368881628603843E-005
                   213  8.489318180250193E-005
                   214  7.214577848578789E-005
                   215  8.549935958091514E-005
                   216 -6.133435972458019E-013
                   217  1.458112750927930E-003
                   218 -1.645875455838018E-003
                   219 -4.276112878972049E-004
                   220  1.717201199213347E-004
                   221 -8.100931531956393E-014
                   222 -4.574670697736496E-004
                   223 -6.364185807378353E-004
                   224  3.204289788637372E-006
                   225 -6.880970441371305E-005
                   226 -1.978436274476936E-013
                   227 -2.762560688396240E-004
                   228 -4.686558050235459E-004
                   229 -1.503623956845622E-005
                   230 -1.686093414178929E-005
                   231  1.514271171086801E-012
                   232 -8.495549834732483E-005
                   233 -4.796941360304706E-004
                   234  2.379191630534443E-006
                   235 -2.186710226419761E-006
                   236 -7.127764976344144E-013
                   237 -1.629232989810643E-004
                   238 -3.788202430677569E-004
                   239  4.531088080602728E-006
                   240 -4.547016013948650E-007
                   241  5.525706377231060E-013
                   242  1.162918480749492E-005
                   243  3.298066276848412E-005
                   244 -5.092341474221496E-007
                   245  2.581104391002313E-005
                   246  1.405136705649823E-013
 Sym= __2_A__
 Ene=   2.00000000000000     
 Spin= Alpha
 Occup=    1.00000000000000     
                     1 -5.069809114081232E-005
                     2 -2.610283490041018E-004
                     3  2.636339143864819E-003
                     4  1.166611039819086E-004
                     5  1.327792452317459E-003
                     6 -3.429683112309347E-004
                     7  2.905981275805512E-003
                     8  4.723840718767627E-012
                     9 -5.744536376094739E-005
                    10 -1.135632781140083E-004
                    11 -3.019305089737045E-013
                    12  9.340148401758078E-006
                    13 -3.452549979600798E-004
                    14 -1.031004345746826E-012
                    15  3.002218932510860E-005
                    16  3.802022766643179E-013
                    17  2.752959566368956E-013
                    18 -5.006358119235562E-005
                    19  1.807787542328445E-005
                    20 -1.210253922452309E-004
                    21 -6.688557362939438E-013
                    22  6.101647382877360E-013
                    23  1.416923789947684E-004
                    24 -1.025526641651363E-004
                    25  6.185015584904096E-013
                    26 -1.904628448769910E-005
                    27  9.559460249248474E-005
                    28  2.752512891966014E-013
                    29 -8.942365816495289E-015
                    30 -5.486049957325000E-005
                    31  1.498443832378739E-004
                    32   1.00102875107002     
                    33  9.244957473280514E-003
                    34  2.663273174011174E-003
                    35 -8.041123814170908E-003
                    36 -2.590114954845652E-005
                    37 -3.238436258479636E-003
                    38  5.147379601133158E-012
                    39 -1.231452205240579E-004
                    40  2.808373128070319E-004
                    41 -2.112547658519696E-012
                    42 -7.367545736845863E-005
                    43  4.038832530310218E-003
                    44  1.598689058130744E-013
                    45 -5.472178406947304E-004
                    46  1.961534187426631E-013
                    47 -1.603916626271826E-013
                    48 -1.823984625774104E-004
                    49  2.901011921952042E-005
                    50  5.352743375964976E-004
                    51  1.121175595792104E-012
                    52 -3.258507884549299E-014
                    53 -7.072722775356878E-004
                    54 -2.616512881013824E-004
                    55 -6.182149588598583E-013
                    56  7.464461081970391E-006
                    57  8.726630855058596E-005
                    58 -8.021796726173610E-013
                    59  2.717964802224815E-013
                    60 -2.272137570214429E-005
                    61  3.847697991384973E-004
                    62  9.369139800787680E-003
                    63 -2.044211823490379E-003
                    64 -2.532032668910888E-004
                    65  2.771852401455777E-003
                    66  1.975277613798136E-005
                    67  6.621754311063239E-005
                    68 -2.952571019049196E-013
                    69  5.667255025018090E-004
                    70  1.095151379674584E-004
                    71  2.972078422747760E-012
                    72 -2.051609988095828E-003
                    73  2.321431200781840E-004
                    74  6.072533008667595E-013
                    75  3.479408023855737E-005
                    76  8.209198900630023E-013
                    77 -4.045386229351953E-013
                    78 -2.472220227267248E-006
                    79  4.161967414789995E-006
                    80 -4.194365868676953E-004
                    81 -4.744568719338756E-013
                    82  4.763193305974108E-013
                    83 -6.318659902353220E-004
                    84 -2.787484990838853E-004
                    85  5.735490866707236E-013
                    86  3.045785599053614E-005
                    87 -5.877637726403091E-005
                    88  3.799843482592478E-014
                    89 -1.424184965516773E-012
                    90  3.929483482680773E-005
                    91  1.449720043880882E-004
                    92  1.081985168798690E-002
                    93 -2.053098727418943E-003
                    94 -3.060842958596884E-004
                    95  3.157869983009337E-003
                    96  2.543810160808022E-005
                    97  2.189901330351552E-005
                    98  2.573151771085241E-012
                    99 -8.474438524081914E-004
                   100  4.371089351255417E-005
                   101 -9.071876039157263E-013
                   102  1.818854167151584E-003
                   103  7.293741292030152E-005
                   104 -7.970867786101183E-013
                   105  2.641444944469828E-005
                   106  2.746865381282255E-013
                   107 -4.963068589849298E-013
                   108 -2.682024188292384E-006
                   109  4.103134319598491E-006
                   110 -4.268510320375533E-004
                   111 -6.891853593145889E-013
                   112  9.488318794572476E-013
                   113 -4.544089506347576E-004
                   114  2.886704998596787E-004
                   115  2.015304644644433E-013
                   116 -2.961459714926318E-005
                   117 -6.755135068484636E-005
                   118 -3.149829831211000E-013
                   119 -6.042703279253486E-013
                   120 -1.484660051662920E-005
                   121  1.301548169960904E-004
                   122 -1.650663872490269E-004
                   123 -6.847321124220527E-004
                   124  2.293018641955880E-004
                   125 -1.221847559636946E-004
                   126  1.668433846574188E-006
                   127 -3.396168126907043E-004
                   128 -1.196357779620629E-012
                   129 -7.217363760141885E-005
                   130  5.845425298273591E-004
                   131  1.500987442535872E-012
                   132  3.435403328812675E-004
                   133  8.322154422879596E-004
                   134  4.886157436582474E-013
                   135  1.883578779560339E-005
                   136 -7.403494035435942E-014
                   137 -4.239634197758291E-013
                   138  5.263195516196650E-006
                   139  4.392607344133503E-005
                   140  1.320100140423453E-004
                   141  1.555548054854988E-012
                   142  1.652630879355763E-012
                   143  2.487756613833204E-004
                   144 -1.296011465596006E-004
                   145  1.856118911710960E-013
                   146  8.391720555585662E-006
                   147 -3.585346434303684E-005
                   148  2.468590102583436E-013
                   149  3.911321421182066E-013
                   150 -4.342693596757456E-005
                   151  3.267385925958134E-005
                   152 -1.095127278089975E-004
                   153 -6.822278431522592E-004
                   154  2.354046977788810E-004
                   155 -8.967117311090855E-005
                   156 -1.797422023835647E-005
                   157 -3.307338292347645E-004
                   158  3.640287633747706E-013
                   159  1.037734630422238E-004
                   160  5.539176188855068E-004