[Molden Format]
[Atoms] AU
  N     1    7    -0.0570720500   -4.3511733100    0.0000000000        
  C     2    6     0.0307281700   -1.8105094600    0.0000000000        
  C     3    6    -2.2954543600   -0.4225345800    0.0000000000        
  C     4    6     2.3352574900   -0.3945250900    0.0000000000        
  C     5    6    -2.2755830800    2.1689505000    0.0000000000        
  C     6    6     2.2966909900    2.1946860000    0.0000000000        
  C     7    6     0.0059297500    3.5072513300    0.0000000000        
  H     8    1    -2.9252620400   -6.1786052400    0.0000000000        
  H     9    1     1.6996002300   -5.1717450000    0.0000000000        
  H    10    1    -4.0328276600   -1.4613926400    0.0000000000        
  H    11    1     4.0969318300   -1.3945687800    0.0000000000        
  H    12    1    -4.0316488300    3.1857806700    0.0000000000        
  H    13    1     4.0447389400    3.2267779800    0.0000000000        
  H    14    1    -0.0028545800    5.5348015400    0.0000000000        
[5D]
[7F]
[GTO]
  1  0
   s    12 1.00
  0.114200D+05  0.172695D-04
  0.171200D+04  0.134411D-03
  0.389300D+03  0.694561D-03
  0.110000D+03  0.278531D-02
  0.355700D+02  0.863457D-02
  0.125400D+02  0.199805D-01
  0.464400D+01  0.262908D-01
  0.129300D+01 -0.243845D-01
  0.511800D+00 -0.924934D-01
  0.178700D+00 -0.339683D+00
  0.246240D-01  0.345111D+00
  0.112530D-01  0.752750D+00
   s    10 1.00
  0.114200D+05  0.523000D-03
  0.171200D+04  0.404500D-02
  0.389300D+03  0.207750D-01
  0.110000D+03  0.807269D-01
  0.355700D+02  0.233074D+00
  0.125400D+02  0.433501D+00
  0.464400D+01  0.347472D+00
  0.129300D+01  0.412620D-01
  0.511800D+00 -0.850799D-02
  0.178700D+00  0.238400D-02
   s    10 1.00
  0.114200D+05 -0.115000D-03
  0.171200D+04 -0.895000D-03
  0.389300D+03 -0.462400D-02
  0.110000D+03 -0.185280D-01
  0.355700D+02 -0.573390D-01
  0.125400D+02 -0.132076D+00
  0.464400D+01 -0.172510D+00
  0.129300D+01  0.151814D+00
  0.511800D+00  0.599944D+00
  0.178700D+00  0.387462D+00
   s     1 1.00
  0.129300D+01  0.100000D+01
   s     1 1.00
  0.178700D+00  0.100000D+01
   p     5 1.00
  0.266300D+02  0.146700D-01
  0.594800D+01  0.917640D-01
  0.174200D+01  0.298683D+00
  0.555000D+00  0.498487D+00
  0.172500D+00  0.337023D+00
   p     1 1.00
  0.174200D+01  0.100000D+01
   p     1 1.00
  0.555000D+00  0.100000D+01
   d     1 1.00
  0.165400D+01  0.100000D+01
   d     1 1.00
  0.469000D+00  0.100000D+01
   f     1 1.00
  0.109300D+01  0.100000D+01
  
  2  0
   s    10 1.00
  0.823600D+04  0.531000D-03
  0.123500D+04  0.410800D-02
  0.280800D+03  0.210870D-01
  0.792700D+02  0.818530D-01
  0.255900D+02  0.234817D+00
  0.899700D+01  0.434401D+00
  0.331900D+01  0.346129D+00
  0.905900D+00  0.393780D-01
  0.364300D+00 -0.898300D-02
  0.128500D+00  0.238500D-02
   s    10 1.00
  0.823600D+04 -0.113000D-03
  0.123500D+04 -0.878000D-03
  0.280800D+03 -0.454000D-02
  0.792700D+02 -0.181330D-01
  0.255900D+02 -0.557600D-01
  0.899700D+01 -0.126895D+00
  0.331900D+01 -0.170352D+00
  0.905900D+00  0.140382D+00
  0.364300D+00  0.598684D+00
  0.128500D+00  0.395389D+00
   s     1 1.00
  0.905900D+00  0.100000D+01
   s     1 1.00
  0.364300D+00  0.100000D+01
   p     5 1.00
  0.187100D+02  0.140310D-01
  0.413300D+01  0.868660D-01
  0.120000D+01  0.290216D+00
  0.382700D+00  0.501008D+00
  0.120900D+00  0.343406D+00
   p     1 1.00
  0.382700D+00  0.100000D+01
   p     1 1.00
  0.120900D+00  0.100000D+01
   d     1 1.00
  0.109700D+01  0.100000D+01
   d     1 1.00
  0.318000D+00  0.100000D+01
   f     1 1.00
  0.761000D+00  0.100000D+01
  
  3  0
   s    10 1.00
  0.823600D+04  0.531000D-03
  0.123500D+04  0.410800D-02
  0.280800D+03  0.210870D-01
  0.792700D+02  0.818530D-01
  0.255900D+02  0.234817D+00
  0.899700D+01  0.434401D+00
  0.331900D+01  0.346129D+00
  0.905900D+00  0.393780D-01
  0.364300D+00 -0.898300D-02
  0.128500D+00  0.238500D-02
   s    10 1.00
  0.823600D+04 -0.113000D-03
  0.123500D+04 -0.878000D-03
  0.280800D+03 -0.454000D-02
  0.792700D+02 -0.181330D-01
  0.255900D+02 -0.557600D-01
  0.899700D+01 -0.126895D+00
  0.331900D+01 -0.170352D+00
  0.905900D+00  0.140382D+00
  0.364300D+00  0.598684D+00
  0.128500D+00  0.395389D+00
   s     1 1.00
  0.905900D+00  0.100000D+01
   s     1 1.00
  0.364300D+00  0.100000D+01
   p     5 1.00
  0.187100D+02  0.140310D-01
  0.413300D+01  0.868660D-01
  0.120000D+01  0.290216D+00
  0.382700D+00  0.501008D+00
  0.120900D+00  0.343406D+00
   p     1 1.00
  0.382700D+00  0.100000D+01
   p     1 1.00
  0.120900D+00  0.100000D+01
   d     1 1.00
  0.109700D+01  0.100000D+01
   d     1 1.00
  0.318000D+00  0.100000D+01
   f     1 1.00
  0.761000D+00  0.100000D+01
  
  4  0
   s    10 1.00
  0.823600D+04  0.531000D-03
  0.123500D+04  0.410800D-02
  0.280800D+03  0.210870D-01
  0.792700D+02  0.818530D-01
  0.255900D+02  0.234817D+00
  0.899700D+01  0.434401D+00
  0.331900D+01  0.346129D+00
  0.905900D+00  0.393780D-01
  0.364300D+00 -0.898300D-02
  0.128500D+00  0.238500D-02
   s    10 1.00
  0.823600D+04 -0.113000D-03
  0.123500D+04 -0.878000D-03
  0.280800D+03 -0.454000D-02
  0.792700D+02 -0.181330D-01
  0.255900D+02 -0.557600D-01
  0.899700D+01 -0.126895D+00
  0.331900D+01 -0.170352D+00
  0.905900D+00  0.140382D+00
  0.364300D+00  0.598684D+00
  0.128500D+00  0.395389D+00
   s     1 1.00
  0.905900D+00  0.100000D+01
   s     1 1.00
  0.364300D+00  0.100000D+01
   p     5 1.00
  0.187100D+02  0.140310D-01
  0.413300D+01  0.868660D-01
  0.120000D+01  0.290216D+00
  0.382700D+00  0.501008D+00
  0.120900D+00  0.343406D+00
   p     1 1.00
  0.382700D+00  0.100000D+01
   p     1 1.00
  0.120900D+00  0.100000D+01
   d     1 1.00
  0.109700D+01  0.100000D+01
   d     1 1.00
  0.318000D+00  0.100000D+01
   f     1 1.00
  0.761000D+00  0.100000D+01
  
  5  0
   s    10 1.00
  0.823600D+04  0.531000D-03
  0.123500D+04  0.410800D-02
  0.280800D+03  0.210870D-01
  0.792700D+02  0.818530D-01
  0.255900D+02  0.234817D+00
  0.899700D+01  0.434401D+00
  0.331900D+01  0.346129D+00
  0.905900D+00  0.393780D-01
  0.364300D+00 -0.898300D-02
  0.128500D+00  0.238500D-02
   s    10 1.00
  0.823600D+04 -0.113000D-03
  0.123500D+04 -0.878000D-03
  0.280800D+03 -0.454000D-02
  0.792700D+02 -0.181330D-01
  0.255900D+02 -0.557600D-01
  0.899700D+01 -0.126895D+00
  0.331900D+01 -0.170352D+00
  0.905900D+00  0.140382D+00
  0.364300D+00  0.598684D+00
  0.128500D+00  0.395389D+00
   s     1 1.00
  0.905900D+00  0.100000D+01
   s     1 1.00
  0.364300D+00  0.100000D+01
   p     5 1.00
  0.187100D+02  0.140310D-01
  0.413300D+01  0.868660D-01
  0.120000D+01  0.290216D+00
  0.382700D+00  0.501008D+00
  0.120900D+00  0.343406D+00
   p     1 1.00
  0.382700D+00  0.100000D+01
   p     1 1.00
  0.120900D+00  0.100000D+01
   d     1 1.00
  0.109700D+01  0.100000D+01
   d     1 1.00
  0.318000D+00  0.100000D+01
   f     1 1.00
  0.761000D+00  0.100000D+01
  
  6  0
   s    10 1.00
  0.823600D+04  0.531000D-03
  0.123500D+04  0.410800D-02
  0.280800D+03  0.210870D-01
  0.792700D+02  0.818530D-01
  0.255900D+02  0.234817D+00
  0.899700D+01  0.434401D+00
  0.331900D+01  0.346129D+00
  0.905900D+00  0.393780D-01
  0.364300D+00 -0.898300D-02
  0.128500D+00  0.238500D-02
   s    10 1.00
  0.823600D+04 -0.113000D-03
  0.123500D+04 -0.878000D-03
  0.280800D+03 -0.454000D-02
  0.792700D+02 -0.181330D-01
  0.255900D+02 -0.557600D-01
  0.899700D+01 -0.126895D+00
  0.331900D+01 -0.170352D+00
  0.905900D+00  0.140382D+00
  0.364300D+00  0.598684D+00
  0.128500D+00  0.395389D+00
   s     1 1.00
  0.905900D+00  0.100000D+01
   s     1 1.00
  0.364300D+00  0.100000D+01
   p     5 1.00
  0.187100D+02  0.140310D-01
  0.413300D+01  0.868660D-01
  0.120000D+01  0.290216D+00
  0.382700D+00  0.501008D+00
  0.120900D+00  0.343406D+00
   p     1 1.00
  0.382700D+00  0.100000D+01
   p     1 1.00
  0.120900D+00  0.100000D+01
   d     1 1.00
  0.109700D+01  0.100000D+01
   d     1 1.00
  0.318000D+00  0.100000D+01
   f     1 1.00
  0.761000D+00  0.100000D+01
  
  7  0
   s    10 1.00
  0.823600D+04  0.531000D-03
  0.123500D+04  0.410800D-02
  0.280800D+03  0.210870D-01
  0.792700D+02  0.818530D-01
  0.255900D+02  0.234817D+00
  0.899700D+01  0.434401D+00
  0.331900D+01  0.346129D+00
  0.905900D+00  0.393780D-01
  0.364300D+00 -0.898300D-02
  0.128500D+00  0.238500D-02
   s    10 1.00
  0.823600D+04 -0.113000D-03
  0.123500D+04 -0.878000D-03
  0.280800D+03 -0.454000D-02
  0.792700D+02 -0.181330D-01
  0.255900D+02 -0.557600D-01
  0.899700D+01 -0.126895D+00
  0.331900D+01 -0.170352D+00
  0.905900D+00  0.140382D+00
  0.364300D+00  0.598684D+00
  0.128500D+00  0.395389D+00
   s     1 1.00
  0.905900D+00  0.100000D+01
   s     1 1.00
  0.364300D+00  0.100000D+01
   p     5 1.00
  0.187100D+02  0.140310D-01
  0.413300D+01  0.868660D-01
  0.120000D+01  0.290216D+00
  0.382700D+00  0.501008D+00
  0.120900D+00  0.343406D+00
   p     1 1.00
  0.382700D+00  0.100000D+01
   p     1 1.00
  0.120900D+00  0.100000D+01
   d     1 1.00
  0.109700D+01  0.100000D+01
   d     1 1.00
  0.318000D+00  0.100000D+01
   f     1 1.00
  0.761000D+00  0.100000D+01
  
  8  0
   s     4 1.00
  0.130100D+02  0.196850D-01
  0.196200D+01  0.137977D+00
  0.444600D+00  0.478148D+00
  0.122000D+00  0.501240D+00
   s     1 1.00
  0.122000D+00  0.100000D+01
   p     1 1.00
  0.727000D+00  0.100000D+01
  
  9  0
   s     4 1.00
  0.130100D+02  0.196850D-01
  0.196200D+01  0.137977D+00
  0.444600D+00  0.478148D+00
  0.122000D+00  0.501240D+00
   s     1 1.00
  0.122000D+00  0.100000D+01
   p     1 1.00
  0.727000D+00  0.100000D+01
  
 10  0
   s     4 1.00
  0.130100D+02  0.196850D-01
  0.196200D+01  0.137977D+00
  0.444600D+00  0.478148D+00
  0.122000D+00  0.501240D+00
   s     1 1.00
  0.122000D+00  0.100000D+01
   p     1 1.00
  0.727000D+00  0.100000D+01
  
 11  0
   s     4 1.00
  0.130100D+02  0.196850D-01
  0.196200D+01  0.137977D+00
  0.444600D+00  0.478148D+00
  0.122000D+00  0.501240D+00
   s     1 1.00
  0.122000D+00  0.100000D+01
   p     1 1.00
  0.727000D+00  0.100000D+01
  
 12  0
   s     4 1.00
  0.130100D+02  0.196850D-01
  0.196200D+01  0.137977D+00
  0.444600D+00  0.478148D+00
  0.122000D+00  0.501240D+00
   s     1 1.00
  0.122000D+00  0.100000D+01
   p     1 1.00
  0.727000D+00  0.100000D+01
  
 13  0
   s     4 1.00
  0.130100D+02  0.196850D-01
  0.196200D+01  0.137977D+00
  0.444600D+00  0.478148D+00
  0.122000D+00  0.501240D+00
   s     1 1.00
  0.122000D+00  0.100000D+01
   p     1 1.00
  0.727000D+00  0.100000D+01
  
 14  0
   s     4 1.00
  0.130100D+02  0.196850D-01
  0.196200D+01  0.137977D+00
  0.444600D+00  0.478148D+00
  0.122000D+00  0.501240D+00
   s     1 1.00
  0.122000D+00  0.100000D+01
   p     1 1.00
  0.727000D+00  0.100000D+01
  
[MO]
 Sym= __1_a__
 Ene=  0.000000000000000E+000
 Spin= Alpha
 Occup=    2.00000000000000     
                     1  7.803584766212550E-005
                     2  0.998339168077991     
                     3  2.214003323367030E-003
                     4  1.723206283844310E-003
                     5  5.217896150661730E-003
                     6  3.296735644824280E-003
                     7  6.041619753764890E-003
                     8  1.359301105500940E-011
                     9 -5.942381514093240E-004
                    10 -5.702007716345380E-004
                    11 -1.003660339313740E-012
                    12 -2.375385636454360E-003
                    13 -1.611633440661800E-003
                    14 -3.912371374403000E-012
                    15 -9.780962361833656E-005
                    16 -1.905287840618990E-013
                    17  2.754824087111690E-013
                    18 -1.690615679243266E-004
                    19 -8.985303676813541E-005
                    20  1.211992657630370E-004
                    21  5.433655942249850E-013
                    22  2.477016444543730E-012
                    23 -2.666421103752200E-004
                    24  5.553831482667950E-004
                    25 -9.296780810843226E-014
                    26 -1.126635866343918E-005
                    27 -5.415011383556333E-005
                    28  1.187546476262876E-013
                    29 -4.001099143641470E-013
                    30  2.808259234629525E-005
                    31 -1.387055028246081E-004
                    32 -3.510771444837550E-004
                    33  1.226576950379100E-003
                    34  2.802602252338710E-004
                    35 -3.179810746032720E-004
                    36 -2.622717406687750E-004
                    37 -4.709632703590730E-003
                    38  1.064481346017080E-011
                    39  4.802955203030930E-004
                    40  3.059267306320230E-004
                    41 -2.372392086964900E-012
                    42 -2.097599345965730E-003
                    43  5.329479466786510E-003
                    44 -4.872302356961380E-013
                    45 -2.451551982887574E-005
                    46  5.314178608113630E-013
                    47 -3.646900751920010E-013
                    48 -2.344602150378900E-004
                    49 -8.194405169530991E-006
                    50 -2.504098278846608E-004
                    51  2.411279524244820E-013
                    52  3.357226252137670E-012
                    53 -1.973165477028666E-005
                    54  8.312221512656131E-004
                    55 -1.035109298628358E-012
                    56 -1.158494049570844E-005
                    57 -4.427997375279550E-005
                    58  5.163068333318780E-013
                    59 -8.802660333421800E-014
                    60  2.186762827442441E-005
                    61 -1.112811388325448E-004
                    62 -4.854870816824430E-004
                    63 -2.264375247865060E-003
                    64 -9.384388793554680E-005
                    65  2.106813753540910E-003
                    66 -6.718242332284340E-004
                    67  5.175968832768670E-004
                    68 -2.566790296230110E-012
                    69  4.523551828670550E-004
                    70  7.773084866600430E-004
                    71  4.632791010019190E-012
                    72 -1.805771797120790E-003
                    73  7.828877726772800E-004
                    74 -3.156135770771480E-013
                    75 -4.117219651411315E-005
                    76  4.987560099665680E-014
                    77  2.449524272869500E-013
                    78 -8.098892219959580E-005
                    79 -2.873078306463920E-005
                    80 -1.291840711045463E-004
                    81 -2.451551311146410E-012
                    82  2.723069316768270E-012
                    83  6.296286800354500E-005
                    84  6.169668558511960E-005
                    85  5.785709213986418E-013
                    86  1.163631977162274E-005
                    87 -4.876702981439670E-005
                    88  9.049465492800481E-013
                    89 -2.638905452434230E-014
                    90 -1.863589529330880E-005
                    91 -1.497629396713258E-004
                    92 -1.638020180190320E-004
                    93 -1.153068028511130E-003
                    94  1.971217033445880E-004
                    95 -2.015862572543410E-004
                    96  5.638516472980000E-004
                    97  7.104196446751890E-004
                    98  5.403729017087690E-012
                    99  4.067272865669320E-004
                   100  3.334400254842940E-004
                   101  4.945503990862860E-013
                   102  4.756802670872880E-004
                   103 -1.687300312733180E-003
                   104 -2.323936723134680E-015
                   105 -4.361211937213147E-007
                   106 -5.679353751500760E-013
                   107 -2.038012731219310E-013
                   108 -7.551049763791179E-005
                   109 -2.091836271526810E-005
                   110  1.000236544005672E-004
                   111  2.572263926818170E-012
                   112  7.419152672857140E-012
                   113 -1.752298593031834E-004
                   114 -9.887719081771419E-006
                   115  3.281348016635286E-013
                   116 -2.483535790748818E-005
                   117 -2.741779656048647E-005
                   118 -1.130949316031316E-012
                   119  8.270232162274210E-013
                   120 -1.095648881404101E-005
                   121 -2.535590279282603E-005
                   122 -2.488172659655210E-004
                   123 -4.749174952727200E-004
                   124  1.641566729738590E-004
                   125  3.529298002404630E-004
                   126 -1.395417292182880E-005
                   127 -5.752250465351870E-004
                   128 -4.309877066736880E-014
                   129  1.910846768041630E-004
                   130  6.088649198793200E-004
                   131 -1.096111833181720E-012
                   132  4.925376208473470E-004
                   133  2.033803724768140E-003
                   134  5.856862681575810E-013
                   135  1.156541985654895E-005
                   136  6.651086047664960E-014
                   137  1.201657143113240E-013
                   138  3.821026667039680E-005
                   139  1.498149642513080E-006
                   140  1.905781677819342E-004
                   141  4.148845809983560E-012
                   142  4.723866772405180E-012
                   143  3.640966927304260E-004
                   144  2.406894722128480E-004
                   145  4.013571475994753E-013
                   146 -8.980548317226534E-006
                   147 -6.109852704213483E-005
                   148 -5.656523785894620E-013
                   149  6.175085929171470E-014
                   150 -1.880448360067439E-005
                   151 -4.614631634830330E-005
                   152 -1.518599241594370E-004
                   153 -1.706079157646940E-004
                   154  4.792933561458270E-005
                   155  2.593817435766420E-004
                   156 -2.702314526983170E-005
                   157 -5.050877925960500E-004
                   158 -4.755720523952380E-013
                   159  2.829370974122270E-005
                   160  6.238934251428820E-005
                   161 -3.031313245746170E-012
                   162  7.580932246841190E-004
                   163 -3.491939328829600E-004
                   164  4.349971102338150E-014
                   165 -2.450936527511719E-006
                   166  4.507470628611620E-013
                   167 -7.925059851011130E-013
                   168 -7.895328026502060E-006
                   169  2.567330643590020E-006
                   170  8.284792572510725E-005
                   171 -2.530803008457970E-012
                   172  5.751547892221940E-012
                   173  2.138839391380640E-005
                   174 -1.092646475223520E-005
                   175 -1.095342380356499E-012
                   176  1.990831709145270E-006
                   177 -9.825711002619849E-006
                   178  8.397718820820360E-013
                   179  5.492356542484030E-013
                   180 -1.729335533750238E-005
                   181 -1.631254761540045E-005
                   182 -1.526304191382910E-004
                   183 -4.483350432164630E-004
                   184  3.949418630042510E-005
                   185  2.152778545769710E-004
                   186 -4.431141716669490E-005
                   187 -4.242579528492360E-005
                   188 -5.515797308781070E-012
                   189  2.347481007964660E-004
                   190  8.261408460847340E-005
                   191  1.032156172252770E-012
                   192  1.356204889972000E-003
                   193 -2.358483942419600E-004
                   194 -2.056923072990110E-012
                   195  7.537907423558709E-007
                   196  3.599462497461050E-013
                   197  2.141272143546460E-013
                   198 -1.207004985758384E-005
                   199  4.267629391381010E-006
                   200 -1.415966191737533E-006
                   201  1.478509131103150E-012
                   202  1.590132670972040E-012
                   203 -8.601979385137920E-005
                   204 -1.911349498917130E-004
                   205  1.123159093302416E-013
                   206 -7.972470724663690E-006
                   207 -4.822758674186829E-006
                   208  6.202208552883620E-013
                   209 -2.463725881374070E-012
                   210  9.454391338345018E-006
                   211 -4.989171528280027E-006
                   212 -3.368881628603840E-005
                   213  8.489318180250190E-005
                   214  7.214577848578790E-005
                   215  8.549935958091509E-005
                   216 -6.133435972458020E-013
                   217  1.458112750927930E-003
                   218 -1.645875455838020E-003
                   219 -4.276112878972050E-004
                   220  1.717201199213350E-004
                   221 -8.100931531956390E-014
                   222 -4.574670697736500E-004
                   223 -6.364185807378350E-004
                   224  3.204289788637370E-006
                   225 -6.880970441371309E-005
                   226 -1.978436274476940E-013
                   227 -2.762560688396240E-004
                   228 -4.686558050235460E-004
                   229 -1.503623956845620E-005
                   230 -1.686093414178930E-005
                   231  1.514271171086800E-012
                   232 -8.495549834732479E-005
                   233 -4.796941360304710E-004
                   234  2.379191630534440E-006
                   235 -2.186710226419760E-006
                   236 -7.127764976344140E-013
                   237 -1.629232989810640E-004
                   238 -3.788202430677570E-004
                   239  4.531088080602730E-006
                   240 -4.547016013948650E-007
                   241  5.525706377231060E-013
                   242  1.162918480749490E-005
                   243  3.298066276848410E-005
                   244 -5.092341474221500E-007
                   245  2.581104391002310E-005
                   246  1.405136705649820E-013
 Sym= __2_a__
 Ene=  0.000000000000000E+000
 Spin= Alpha
 Occup=    2.00000000000000     
                     1 -5.069809114081230E-005
                     2 -2.610283490041020E-004
                     3  2.636339143864820E-003
                     4  1.166611039819090E-004
                     5  1.327792452317460E-003
                     6 -3.429683112309350E-004
                     7  2.905981275805510E-003
                     8  4.723840718767630E-012
                     9 -5.744536376094740E-005
                    10 -1.135632781140080E-004
                    11 -3.019305089737050E-013
                    12  9.340148401758080E-006
                    13 -3.452549979600800E-004
                    14 -1.031004345746830E-012
                    15  3.002218932510860E-005
                    16  3.802022766643180E-013
                    17  2.752959566368950E-013
                    18 -5.006358119235560E-005
                    19  1.807787542328450E-005
                    20 -1.210253922452310E-004
                    21 -6.688557362939440E-013
                    22  6.101647382877360E-013
                    23  1.416923789947684E-004
                    24 -1.025526641651360E-004
                    25  6.185015584904099E-013
                    26 -1.904628448769909E-005
                    27  9.559460249248505E-005
                    28  2.752512891966020E-013
                    29 -8.942365816495291E-015
                    30 -5.486049957325001E-005
                    31  1.498443832378740E-004
                    32   1.00102875107002     
                    33  9.244957473280510E-003
                    34  2.663273174011170E-003
                    35 -8.041123814170910E-003
                    36 -2.590114954845650E-005
                    37 -3.238436258479640E-003
                    38  5.147379601133160E-012
                    39 -1.231452205240580E-004
                    40  2.808373128070320E-004
                    41 -2.112547658519700E-012
                    42 -7.367545736845861E-005
                    43  4.038832530310220E-003
                    44  1.598689058130740E-013
                    45 -5.472178406947297E-004
                    46  1.961534187426630E-013
                    47 -1.603916626271830E-013
                    48 -1.823984625774104E-004
                    49  2.901011921952040E-005
                    50  5.352743375964966E-004
                    51  1.121175595792100E-012
                    52 -3.258507884549300E-014
                    53 -7.072722775356880E-004
                    54 -2.616512881013820E-004
                    55 -6.182149588598570E-013
                    56  7.464461081970373E-006
                    57  8.726630855058570E-005
                    58 -8.021796726173600E-013
                    59  2.717964802224810E-013
                    60 -2.272137570214423E-005
                    61  3.847697991384971E-004
                    62  9.369139800787680E-003
                    63 -2.044211823490380E-003
                    64 -2.532032668910890E-004
                    65  2.771852401455780E-003
                    66  1.975277613798140E-005
                    67  6.621754311063240E-005
                    68 -2.952571019049190E-013
                    69  5.667255025018090E-004
                    70  1.095151379674580E-004
                    71  2.972078422747760E-012
                    72 -2.051609988095830E-003
                    73  2.321431200781840E-004
                    74  6.072533008667590E-013
                    75  3.479408023855748E-005
                    76  8.209198900630020E-013
                    77 -4.045386229351950E-013
                    78 -2.472220227267240E-006
                    79  4.161967414789990E-006
                    80 -4.194365868676957E-004
                    81 -4.744568719338760E-013
                    82  4.763193305974110E-013
                    83 -6.318659902353220E-004
                    84 -2.787484990838850E-004
                    85  5.735490866707244E-013
                    86  3.045785599053611E-005
                    87 -5.877637726403091E-005
                    88  3.799843482592480E-014
                    89 -1.424184965516770E-012
                    90  3.929483482680777E-005
                    91  1.449720043880880E-004
                    92  1.081985168798690E-002
                    93 -2.053098727418940E-003
                    94 -3.060842958596880E-004
                    95  3.157869983009340E-003
                    96  2.543810160808020E-005
                    97  2.189901330351550E-005
                    98  2.573151771085240E-012
                    99 -8.474438524081910E-004
                   100  4.371089351255420E-005
                   101 -9.071876039157260E-013
                   102  1.818854167151580E-003
                   103  7.293741292030150E-005
                   104 -7.970867786101180E-013
                   105  2.641444944469829E-005
                   106  2.746865381282250E-013
                   107 -4.963068589849300E-013
                   108 -2.682024188292380E-006
                   109  4.103134319598490E-006
                   110 -4.268510320375550E-004
                   111 -6.891853593145890E-013
                   112  9.488318794572470E-013
                   113 -4.544089506347580E-004
                   114  2.886704998596790E-004
                   115  2.015304644644432E-013
                   116 -2.961459714926321E-005
                   117 -6.755135068484648E-005
                   118 -3.149829831211000E-013
                   119 -6.042703279253480E-013
                   120 -1.484660051662920E-005
                   121  1.301548169960903E-004
                   122 -1.650663872490270E-004
                   123 -6.847321124220530E-004
                   124  2.293018641955880E-004
                   125 -1.221847559636950E-004
                   126  1.668433846574190E-006
                   127 -3.396168126907040E-004
                   128 -1.196357779620630E-012
                   129 -7.217363760141879E-005
                   130  5.845425298273590E-004
                   131  1.500987442535870E-012
                   132  3.435403328812680E-004
                   133  8.322154422879591E-004
                   134  4.886157436582470E-013
                   135  1.883578779560338E-005
                   136 -7.403494035435941E-014
                   137 -4.239634197758290E-013
                   138  5.263195516196640E-006
                   139  4.392607344133500E-005
                   140  1.320100140423454E-004
                   141  1.555548054854990E-012
                   142  1.652630879355760E-012
                   143  2.487756613833200E-004
                   144 -1.296011465596010E-004
                   145  1.856118911710959E-013
                   146  8.391720555585687E-006
                   147 -3.585346434303685E-005
                   148  2.468590102583440E-013
                   149  3.911321421182070E-013
                   150 -4.342693596757450E-005
                   151  3.267385925958133E-005
                   152 -1.095127278089970E-004
                   153 -6.822278431522590E-004
                   154  2.354046977788810E-004
                   155 -8.967117311090850E-005
                   156 -1.797422023835650E-005
                   157 -3.307338292347650E-004
                   158  3.640287633747710E-013
                   159  1.037734630422240E-004
                   160  5.539176188855070E-004