[Molden Format]
[Atoms] AU
  N     1    7     0.0228629600   -4.2630017900    0.0000000200        
  C     2    6     0.1261310400   -1.7225440700   -0.0000000100        
  C     3    6    -2.2156233700   -0.3667511900    0.0000000100        
  C     4    6     2.4120152100   -0.2639184400   -0.0000000300        
  C     5    6    -2.2378860700    2.2144333300   -0.0000000100        
  C     6    6     2.3407992200    2.3127472500    0.0000000000        
  C     7    6     0.0277794900    3.5831222100    0.0000000000        
  H     8    1    -4.1776521700   -7.4805818000    0.0000000300        
  H     9    1     1.8344876500   -4.9857947800    0.0000000000        
  H    10    1    -3.9360405800   -1.4345647000    0.0000000000        
  H    11    1     4.1890296500   -1.2452383300   -0.0000000300        
  H    12    1    -4.0043231700    3.2133125500   -0.0000000400        
  H    13    1     4.0661694300    3.3813175200    0.0000000300        
  H    14    1    -0.0149815000    5.6107866500    0.0000000100        
[5D]
[7F]
[GTO]
  1  0
   s    12 1.00
  0.114200D+05  0.172695D-04
  0.171200D+04  0.134411D-03
  0.389300D+03  0.694561D-03
  0.110000D+03  0.278531D-02
  0.355700D+02  0.863457D-02
  0.125400D+02  0.199805D-01
  0.464400D+01  0.262908D-01
  0.129300D+01 -0.243845D-01
  0.511800D+00 -0.924934D-01
  0.178700D+00 -0.339683D+00
  0.246240D-01  0.345111D+00
  0.112530D-01  0.752750D+00
   s    10 1.00
  0.114200D+05  0.523000D-03
  0.171200D+04  0.404500D-02
  0.389300D+03  0.207750D-01
  0.110000D+03  0.807269D-01
  0.355700D+02  0.233074D+00
  0.125400D+02  0.433501D+00
  0.464400D+01  0.347472D+00
  0.129300D+01  0.412620D-01
  0.511800D+00 -0.850799D-02
  0.178700D+00  0.238400D-02
   s    10 1.00
  0.114200D+05 -0.115000D-03
  0.171200D+04 -0.895000D-03
  0.389300D+03 -0.462400D-02
  0.110000D+03 -0.185280D-01
  0.355700D+02 -0.573390D-01
  0.125400D+02 -0.132076D+00
  0.464400D+01 -0.172510D+00
  0.129300D+01  0.151814D+00
  0.511800D+00  0.599944D+00
  0.178700D+00  0.387462D+00
   s     1 1.00
  0.129300D+01  0.100000D+01
   s     1 1.00
  0.178700D+00  0.100000D+01
   p     5 1.00
  0.266300D+02  0.146700D-01
  0.594800D+01  0.917640D-01
  0.174200D+01  0.298683D+00
  0.555000D+00  0.498487D+00
  0.172500D+00  0.337023D+00
   p     1 1.00
  0.174200D+01  0.100000D+01
   p     1 1.00
  0.555000D+00  0.100000D+01
   d     1 1.00
  0.165400D+01  0.100000D+01
   d     1 1.00
  0.469000D+00  0.100000D+01
   f     1 1.00
  0.109300D+01  0.100000D+01
  
  2  0
   s    10 1.00
  0.823600D+04  0.531000D-03
  0.123500D+04  0.410800D-02
  0.280800D+03  0.210870D-01
  0.792700D+02  0.818530D-01
  0.255900D+02  0.234817D+00
  0.899700D+01  0.434401D+00
  0.331900D+01  0.346129D+00
  0.905900D+00  0.393780D-01
  0.364300D+00 -0.898300D-02
  0.128500D+00  0.238500D-02
   s    10 1.00
  0.823600D+04 -0.113000D-03
  0.123500D+04 -0.878000D-03
  0.280800D+03 -0.454000D-02
  0.792700D+02 -0.181330D-01
  0.255900D+02 -0.557600D-01
  0.899700D+01 -0.126895D+00
  0.331900D+01 -0.170352D+00
  0.905900D+00  0.140382D+00
  0.364300D+00  0.598684D+00
  0.128500D+00  0.395389D+00
   s     1 1.00
  0.905900D+00  0.100000D+01
   s     1 1.00
  0.364300D+00  0.100000D+01
   p     5 1.00
  0.187100D+02  0.140310D-01
  0.413300D+01  0.868660D-01
  0.120000D+01  0.290216D+00
  0.382700D+00  0.501008D+00
  0.120900D+00  0.343406D+00
   p     1 1.00
  0.382700D+00  0.100000D+01
   p     1 1.00
  0.120900D+00  0.100000D+01
   d     1 1.00
  0.109700D+01  0.100000D+01
   d     1 1.00
  0.318000D+00  0.100000D+01
   f     1 1.00
  0.761000D+00  0.100000D+01
  
  3  0
   s    10 1.00
  0.823600D+04  0.531000D-03
  0.123500D+04  0.410800D-02
  0.280800D+03  0.210870D-01
  0.792700D+02  0.818530D-01
  0.255900D+02  0.234817D+00
  0.899700D+01  0.434401D+00
  0.331900D+01  0.346129D+00
  0.905900D+00  0.393780D-01
  0.364300D+00 -0.898300D-02
  0.128500D+00  0.238500D-02
   s    10 1.00
  0.823600D+04 -0.113000D-03
  0.123500D+04 -0.878000D-03
  0.280800D+03 -0.454000D-02
  0.792700D+02 -0.181330D-01
  0.255900D+02 -0.557600D-01
  0.899700D+01 -0.126895D+00
  0.331900D+01 -0.170352D+00
  0.905900D+00  0.140382D+00
  0.364300D+00  0.598684D+00
  0.128500D+00  0.395389D+00
   s     1 1.00
  0.905900D+00  0.100000D+01
   s     1 1.00
  0.364300D+00  0.100000D+01
   p     5 1.00
  0.187100D+02  0.140310D-01
  0.413300D+01  0.868660D-01
  0.120000D+01  0.290216D+00
  0.382700D+00  0.501008D+00
  0.120900D+00  0.343406D+00
   p     1 1.00
  0.382700D+00  0.100000D+01
   p     1 1.00
  0.120900D+00  0.100000D+01
   d     1 1.00
  0.109700D+01  0.100000D+01
   d     1 1.00
  0.318000D+00  0.100000D+01
   f     1 1.00
  0.761000D+00  0.100000D+01
  
  4  0
   s    10 1.00
  0.823600D+04  0.531000D-03
  0.123500D+04  0.410800D-02
  0.280800D+03  0.210870D-01
  0.792700D+02  0.818530D-01
  0.255900D+02  0.234817D+00
  0.899700D+01  0.434401D+00
  0.331900D+01  0.346129D+00
  0.905900D+00  0.393780D-01
  0.364300D+00 -0.898300D-02
  0.128500D+00  0.238500D-02
   s    10 1.00
  0.823600D+04 -0.113000D-03
  0.123500D+04 -0.878000D-03
  0.280800D+03 -0.454000D-02
  0.792700D+02 -0.181330D-01
  0.255900D+02 -0.557600D-01
  0.899700D+01 -0.126895D+00
  0.331900D+01 -0.170352D+00
  0.905900D+00  0.140382D+00
  0.364300D+00  0.598684D+00
  0.128500D+00  0.395389D+00
   s     1 1.00
  0.905900D+00  0.100000D+01
   s     1 1.00
  0.364300D+00  0.100000D+01
   p     5 1.00
  0.187100D+02  0.140310D-01
  0.413300D+01  0.868660D-01
  0.120000D+01  0.290216D+00
  0.382700D+00  0.501008D+00
  0.120900D+00  0.343406D+00
   p     1 1.00
  0.382700D+00  0.100000D+01
   p     1 1.00
  0.120900D+00  0.100000D+01
   d     1 1.00
  0.109700D+01  0.100000D+01
   d     1 1.00
  0.318000D+00  0.100000D+01
   f     1 1.00
  0.761000D+00  0.100000D+01
  
  5  0
   s    10 1.00
  0.823600D+04  0.531000D-03
  0.123500D+04  0.410800D-02
  0.280800D+03  0.210870D-01
  0.792700D+02  0.818530D-01
  0.255900D+02  0.234817D+00
  0.899700D+01  0.434401D+00
  0.331900D+01  0.346129D+00
  0.905900D+00  0.393780D-01
  0.364300D+00 -0.898300D-02
  0.128500D+00  0.238500D-02
   s    10 1.00
  0.823600D+04 -0.113000D-03
  0.123500D+04 -0.878000D-03
  0.280800D+03 -0.454000D-02
  0.792700D+02 -0.181330D-01
  0.255900D+02 -0.557600D-01
  0.899700D+01 -0.126895D+00
  0.331900D+01 -0.170352D+00
  0.905900D+00  0.140382D+00
  0.364300D+00  0.598684D+00
  0.128500D+00  0.395389D+00
   s     1 1.00
  0.905900D+00  0.100000D+01
   s     1 1.00
  0.364300D+00  0.100000D+01
   p     5 1.00
  0.187100D+02  0.140310D-01
  0.413300D+01  0.868660D-01
  0.120000D+01  0.290216D+00
  0.382700D+00  0.501008D+00
  0.120900D+00  0.343406D+00
   p     1 1.00
  0.382700D+00  0.100000D+01
   p     1 1.00
  0.120900D+00  0.100000D+01
   d     1 1.00
  0.109700D+01  0.100000D+01
   d     1 1.00
  0.318000D+00  0.100000D+01
   f     1 1.00
  0.761000D+00  0.100000D+01
  
  6  0
   s    10 1.00
  0.823600D+04  0.531000D-03
  0.123500D+04  0.410800D-02
  0.280800D+03  0.210870D-01
  0.792700D+02  0.818530D-01
  0.255900D+02  0.234817D+00
  0.899700D+01  0.434401D+00
  0.331900D+01  0.346129D+00
  0.905900D+00  0.393780D-01
  0.364300D+00 -0.898300D-02
  0.128500D+00  0.238500D-02
   s    10 1.00
  0.823600D+04 -0.113000D-03
  0.123500D+04 -0.878000D-03
  0.280800D+03 -0.454000D-02
  0.792700D+02 -0.181330D-01
  0.255900D+02 -0.557600D-01
  0.899700D+01 -0.126895D+00
  0.331900D+01 -0.170352D+00
  0.905900D+00  0.140382D+00
  0.364300D+00  0.598684D+00
  0.128500D+00  0.395389D+00
   s     1 1.00
  0.905900D+00  0.100000D+01
   s     1 1.00
  0.364300D+00  0.100000D+01
   p     5 1.00
  0.187100D+02  0.140310D-01
  0.413300D+01  0.868660D-01
  0.120000D+01  0.290216D+00
  0.382700D+00  0.501008D+00
  0.120900D+00  0.343406D+00
   p     1 1.00
  0.382700D+00  0.100000D+01
   p     1 1.00
  0.120900D+00  0.100000D+01
   d     1 1.00
  0.109700D+01  0.100000D+01
   d     1 1.00
  0.318000D+00  0.100000D+01
   f     1 1.00
  0.761000D+00  0.100000D+01
  
  7  0
   s    10 1.00
  0.823600D+04  0.531000D-03
  0.123500D+04  0.410800D-02
  0.280800D+03  0.210870D-01
  0.792700D+02  0.818530D-01
  0.255900D+02  0.234817D+00
  0.899700D+01  0.434401D+00
  0.331900D+01  0.346129D+00
  0.905900D+00  0.393780D-01
  0.364300D+00 -0.898300D-02
  0.128500D+00  0.238500D-02
   s    10 1.00
  0.823600D+04 -0.113000D-03
  0.123500D+04 -0.878000D-03
  0.280800D+03 -0.454000D-02
  0.792700D+02 -0.181330D-01
  0.255900D+02 -0.557600D-01
  0.899700D+01 -0.126895D+00
  0.331900D+01 -0.170352D+00
  0.905900D+00  0.140382D+00
  0.364300D+00  0.598684D+00
  0.128500D+00  0.395389D+00
   s     1 1.00
  0.905900D+00  0.100000D+01
   s     1 1.00
  0.364300D+00  0.100000D+01
   p     5 1.00
  0.187100D+02  0.140310D-01
  0.413300D+01  0.868660D-01
  0.120000D+01  0.290216D+00
  0.382700D+00  0.501008D+00
  0.120900D+00  0.343406D+00
   p     1 1.00
  0.382700D+00  0.100000D+01
   p     1 1.00
  0.120900D+00  0.100000D+01
   d     1 1.00
  0.109700D+01  0.100000D+01
   d     1 1.00
  0.318000D+00  0.100000D+01
   f     1 1.00
  0.761000D+00  0.100000D+01
  
  8  0
   s     4 1.00
  0.130100D+02  0.196850D-01
  0.196200D+01  0.137977D+00
  0.444600D+00  0.478148D+00
  0.122000D+00  0.501240D+00
   s     1 1.00
  0.122000D+00  0.100000D+01
   p     1 1.00
  0.727000D+00  0.100000D+01
  
  9  0
   s     4 1.00
  0.130100D+02  0.196850D-01
  0.196200D+01  0.137977D+00
  0.444600D+00  0.478148D+00
  0.122000D+00  0.501240D+00
   s     1 1.00
  0.122000D+00  0.100000D+01
   p     1 1.00
  0.727000D+00  0.100000D+01
  
 10  0
   s     4 1.00
  0.130100D+02  0.196850D-01
  0.196200D+01  0.137977D+00
  0.444600D+00  0.478148D+00
  0.122000D+00  0.501240D+00
   s     1 1.00
  0.122000D+00  0.100000D+01
   p     1 1.00
  0.727000D+00  0.100000D+01
  
 11  0
   s     4 1.00
  0.130100D+02  0.196850D-01
  0.196200D+01  0.137977D+00
  0.444600D+00  0.478148D+00
  0.122000D+00  0.501240D+00
   s     1 1.00
  0.122000D+00  0.100000D+01
   p     1 1.00
  0.727000D+00  0.100000D+01
  
 12  0
   s     4 1.00
  0.130100D+02  0.196850D-01
  0.196200D+01  0.137977D+00
  0.444600D+00  0.478148D+00
  0.122000D+00  0.501240D+00
   s     1 1.00
  0.122000D+00  0.100000D+01
   p     1 1.00
  0.727000D+00  0.100000D+01
  
 13  0
   s     4 1.00
  0.130100D+02  0.196850D-01
  0.196200D+01  0.137977D+00
  0.444600D+00  0.478148D+00
  0.122000D+00  0.501240D+00
   s     1 1.00
  0.122000D+00  0.100000D+01
   p     1 1.00
  0.727000D+00  0.100000D+01
  
 14  0
   s     4 1.00
  0.130100D+02  0.196850D-01
  0.196200D+01  0.137977D+00
  0.444600D+00  0.478148D+00
  0.122000D+00  0.501240D+00
   s     1 1.00
  0.122000D+00  0.100000D+01
   p     1 1.00
  0.727000D+00  0.100000D+01
  
[MO]
 Sym= __1_A'_
 Ene=   1.00000000000000     
 Spin= Alpha
 Occup=    1.00000000000000     
                     1  1.066701742618172E-004
                     2  0.998348220265472     
                     3 -2.695271679342821E-003
                     4  1.838909079680073E-003
                     5  6.547899083180711E-003
                     6  2.787226245629338E-003
                     7  5.967004947767083E-003
                     8  0.000000000000000E+000
                     9 -7.064430770592024E-004
                    10 -7.425526688203876E-004
                    11  0.000000000000000E+000
                    12 -2.477363831744970E-003
                    13 -1.950918913975081E-003
                    14  0.000000000000000E+000
                    15 -3.175792261846563E-005
                    16  0.000000000000000E+000
                    17  0.000000000000000E+000
                    18 -1.548251461802808E-004
                    19 -6.411289238556009E-005
                    20  9.021131776314440E-005
                    21  0.000000000000000E+000
                    22  0.000000000000000E+000
                    23 -2.247024865943168E-004
                    24  5.021222609596940E-004
                    25  0.000000000000000E+000
                    26 -4.882335316683487E-006
                    27 -5.009610171329830E-005
                    28  0.000000000000000E+000
                    29  0.000000000000000E+000
                    30  3.359340555368569E-005
                    31 -1.108942624943599E-004
                    32 -3.706180674386596E-004
                    33  1.708910595029292E-004
                    34  3.282384114217166E-004
                    35 -1.288680455387650E-004
                    36 -5.470514383873086E-005
                    37 -2.661049446174402E-003
                    38  0.000000000000000E+000
                    39  3.739390850283882E-004
                    40  2.239374547732079E-004
                    41  0.000000000000000E+000
                    42 -2.174802236380227E-003
                    43  5.054522758626086E-003
                    44  0.000000000000000E+000
                    45  6.012256184869636E-006
                    46  0.000000000000000E+000
                    47  0.000000000000000E+000
                    48 -1.293455381743275E-004
                    49  1.332499885058476E-005
                    50 -1.964584634070201E-004
                    51  0.000000000000000E+000
                    52  0.000000000000000E+000
                    53  2.280752186378482E-005
                    54  7.844264920456559E-004
                    55  0.000000000000000E+000
                    56 -2.630232056014025E-006
                    57 -7.447127303423690E-005
                    58  0.000000000000000E+000
                    59  0.000000000000000E+000
                    60  1.715056879027910E-005
                    61 -1.290440670167256E-004
                    62 -5.525888766965321E-004
                    63 -2.195984638590485E-003
                    64 -8.889812119740683E-005
                    65  2.257623881195732E-003
                    66 -4.852748967994454E-004
                    67  1.307768250504336E-004
                    68  0.000000000000000E+000
                    69  3.839949450184071E-004
                    70  9.020867736722032E-004
                    71  0.000000000000000E+000
                    72 -1.802504587752299E-003
                    73  6.889620044732525E-004
                    74  0.000000000000000E+000
                    75 -4.490290108507844E-005
                    76  0.000000000000000E+000
                    77  0.000000000000000E+000
                    78 -6.224468629393918E-005
                    79 -2.356280364421436E-005
                    80 -1.342987083915316E-004
                    81  0.000000000000000E+000
                    82  0.000000000000000E+000
                    83  3.120349451236528E-005
                    84  1.045987842912290E-005
                    85  0.000000000000000E+000
                    86  9.735726941213753E-006
                    87 -4.664426555143871E-005
                    88  0.000000000000000E+000
                    89  0.000000000000000E+000
                    90 -2.941817418090798E-005
                    91 -1.553256153112812E-004
                    92 -1.773872095583996E-004
                    93 -6.550979454925204E-004
                    94  1.622439635612210E-004
                    95 -8.406728347136259E-005
                    96  2.178255286848545E-004
                    97  3.449519714346653E-005
                    98  0.000000000000000E+000
                    99  3.424440335984521E-004
                   100  3.822218779967941E-004
                   101  0.000000000000000E+000
                   102  6.261210098671032E-004
                   103 -1.771307821950257E-003
                   104  0.000000000000000E+000
                   105 -1.139032966199701E-005
                   106  0.000000000000000E+000
                   107  0.000000000000000E+000
                   108 -4.472986979876722E-005
                   109 -1.531555531479948E-005
                   110  8.602613731353170E-005
                   111  0.000000000000000E+000
                   112  0.000000000000000E+000
                   113 -1.648420799714998E-004
                   114  8.130331537358675E-005
                   115  0.000000000000000E+000
                   116 -1.943119939788308E-005
                   117 -2.261904535103463E-005
                   118  0.000000000000000E+000
                   119  0.000000000000000E+000
                   120 -1.251564160679325E-005
                   121 -3.660771603427118E-005
                   122 -2.461029299710812E-004
                   123 -6.052656871974943E-004
                   124  1.724089951618086E-004
                   125  3.071061498680063E-004
                   126 -2.918217195111390E-005
                   127 -3.300569587958998E-004
                   128  0.000000000000000E+000
                   129  2.307974184183479E-004
                   130  6.610619060425142E-004
                   131  0.000000000000000E+000
                   132  4.279140677880709E-004
                   133  2.035511744072779E-003
                   134  0.000000000000000E+000
                   135  1.428600656004727E-005
                   136  0.000000000000000E+000
                   137  0.000000000000000E+000
                   138  4.675429417468400E-005
                   139 -7.829885273682386E-007
                   140  2.068098336700538E-004
                   141  0.000000000000000E+000
                   142  0.000000000000000E+000
                   143  4.016965285723238E-004
                   144  2.374463984486813E-004
                   145  0.000000000000000E+000
                   146 -1.147896149901643E-005
                   147 -6.499451124074564E-005
                   148  0.000000000000000E+000
                   149  0.000000000000000E+000
                   150 -1.584135592559889E-005
                   151 -5.405199590658870E-005
                   152 -1.337834527742313E-004
                   153 -3.618188294503041E-004
                   154  5.475335402570417E-005
                   155  1.966428031772824E-004
                   156  6.190043996772942E-006
                   157 -9.613744386369076E-005
                   158  0.000000000000000E+000
                   159  1.130483419763971E-005
                   160  4.917812003796386E-005
                   161  0.000000000000000E+000
                   162  7.550044595546221E-004
                   163 -3.868078641473707E-004
                   164  0.000000000000000E+000
                   165  1.602645044686553E-006
                   166  0.000000000000000E+000
                   167  0.000000000000000E+000
                   168  1.951859071621515E-006
                   169  1.003335345817093E-005
                   170  1.041767703394231E-004
                   171  0.000000000000000E+000
                   172  0.000000000000000E+000
                   173  4.505516384572166E-005
                   174  3.128912799057027E-005
                   175  0.000000000000000E+000
                   176  3.509785745985025E-006
                   177 -1.342787180932745E-005
                   178  0.000000000000000E+000
                   179  0.000000000000000E+000
                   180 -2.331739033346806E-005
                   181 -2.830290544218671E-005
                   182 -1.389498381109266E-004
                   183 -4.064458077103345E-004
                   184  3.242665244554648E-005
                   185  2.052018515145526E-004
                   186 -4.764559043246401E-005
                   187 -6.310309735398373E-005
                   188  0.000000000000000E+000
                   189  2.669426360797258E-004
                   190  1.223800806050620E-004
                   191  0.000000000000000E+000
                   192  1.375568825287060E-003
                   193 -3.123863204117076E-004
                   194  0.000000000000000E+000
                   195  1.286283557626920E-006
                   196  0.000000000000000E+000
                   197  0.000000000000000E+000
                   198 -3.866136221335274E-006
                   199  4.348262498041849E-006
                   200 -9.378031720520967E-006
                   201  0.000000000000000E+000
                   202  0.000000000000000E+000
                   203 -7.075864932591028E-005
                   204 -2.071931361011342E-004
                   205  0.000000000000000E+000
                   206 -9.934833131066257E-006
                   207 -4.134956292757780E-006
                   208  0.000000000000000E+000
                   209  0.000000000000000E+000
                   210  8.175091246752042E-006
                   211 -4.508807207181021E-006
                   212 -4.865809639703310E-005
                   213  1.039460804449415E-004
                   214  2.127910231823691E-005
                   215  2.537101782748901E-005
                   216  0.000000000000000E+000
                   217 -8.584814436810647E-004
                   218 -6.337937137790115E-004
                   219 -2.443916022298031E-004
                   220  5.845075697850696E-005
                   221  0.000000000000000E+000
                   222 -2.155196832742737E-004
                   223 -6.150597889525301E-004
                   224  2.397182382395581E-005
                   225 -6.012131495097736E-005
                   226  0.000000000000000E+000
                   227  6.158497724627240E-005
                   228 -6.645892239852187E-004
                   229 -4.412764982642069E-005
                   230 -1.354057919148611E-005
                   231  0.000000000000000E+000
                   232  8.348191758462975E-006
                   233 -4.968149354755989E-004
                   234  1.238812469499125E-005
                   235 -4.048034419704080E-006
                   236  0.000000000000000E+000
                   237  5.586470287623541E-007
                   238 -3.637064508797732E-004
                   239 -6.516809401833533E-006
                   240 -2.107590086152043E-006
                   241  0.000000000000000E+000
                   242 -6.174269783744612E-005
                   243  9.211735044424673E-005
                   244 -1.686697935927198E-007
                   245  3.074213957416698E-005
                   246  0.000000000000000E+000
 Sym= __2_A'_
 Ene=   2.00000000000000     
 Spin= Alpha
 Occup=    1.00000000000000     
                     1  4.385412077391860E-005
                     2  3.025477162730031E-004
                     3 -3.545164109487876E-003
                     4 -1.048507849872198E-004
                     5 -1.418907408075747E-003
                     6  7.855127894917577E-004
                     7 -3.616266399285998E-003
                     8  0.000000000000000E+000
                     9  1.153419938965124E-005
                    10  1.010262069102316E-004
                    11  0.000000000000000E+000
                    12  7.598054594138722E-006
                    13  2.757595277133182E-004
                    14  0.000000000000000E+000
                    15 -1.998508141635642E-005
                    16  0.000000000000000E+000
                    17  0.000000000000000E+000
                    18  6.962127910810513E-005
                    19 -2.654798797987660E-005
                    20  1.368150092928186E-004
                    21  0.000000000000000E+000
                    22  0.000000000000000E+000
                    23 -5.464078953801078E-005
                    24  1.463078895877130E-004
                    25  0.000000000000000E+000
                    26  1.591909839533247E-005
                    27 -8.367706504398835E-005
                    28  0.000000000000000E+000
                    29  0.000000000000000E+000
                    30  6.497373251303648E-005
                    31 -1.382622812763282E-004
                    32  -1.00079520599989     
                    33 -9.304364429410024E-003
                    34 -2.824990185048693E-003
                    35  8.145953129668589E-003
                    36  2.711887315362925E-004
                    37  4.178619109082461E-003
                    38  0.000000000000000E+000
                    39  2.098491201977656E-004
                    40 -3.061193371647541E-004
                    41  0.000000000000000E+000
                    42  1.232978899192106E-004
                    43 -4.372382080765784E-003
                    44  0.000000000000000E+000
                    45  5.201344213899459E-004
                    46  0.000000000000000E+000
                    47  0.000000000000000E+000
                    48  2.206965892735354E-004
                    49 -3.606399099869170E-005
                    50 -5.539075711686408E-004
                    51  0.000000000000000E+000
                    52  0.000000000000000E+000
                    53  6.604795975841976E-004
                    54  4.707381549551482E-004
                    55  0.000000000000000E+000
                    56 -1.873987405359072E-005
                    57 -1.041271747191248E-004
                    58  0.000000000000000E+000
                    59  0.000000000000000E+000
                    60  2.451416494374764E-005
                    61 -3.797134668033414E-004
                    62 -1.386025198071096E-002
                    63  2.213243442862410E-003
                    64  2.156345019988050E-004
                    65 -2.667394091631827E-003
                    66  1.038898424187025E-004
                    67 -3.022057688039740E-004
                    68  0.000000000000000E+000
                    69 -4.794492229792778E-004
                    70 -1.744387842004414E-004
                    71  0.000000000000000E+000
                    72  2.129957866899035E-003
                    73 -2.479027933533320E-004
                    74  0.000000000000000E+000
                    75 -3.698700502036896E-005
                    76  0.000000000000000E+000
                    77  0.000000000000000E+000
                    78  2.422148179414548E-005
                    79 -3.677988736585907E-006
                    80  4.235319116271325E-004
                    81  0.000000000000000E+000
                    82  0.000000000000000E+000
                    83  6.899436781613970E-004
                    84  2.482686656632606E-004
                    85  0.000000000000000E+000
                    86 -3.103022556799864E-005
                    87  5.829082628917891E-005
                    88  0.000000000000000E+000
                    89  0.000000000000000E+000
                    90 -5.526261717273935E-005
                    91 -1.494583475291966E-004
                    92 -1.758674439728625E-002
                    93  2.293385635312919E-003
                    94  2.940374816191574E-004
                    95 -3.212755344255188E-003
                    96 -4.699690156646215E-004
                    97 -4.767724980468808E-004
                    98  0.000000000000000E+000
                    99  9.811864886272866E-004
                   100  2.491403984845467E-005
                   101  0.000000000000000E+000
                   102 -1.741397130024032E-003
                   103  4.169940359575507E-005
                   104  0.000000000000000E+000
                   105 -2.250673259380847E-005
                   106  0.000000000000000E+000
                   107  0.000000000000000E+000
                   108  2.108255796889362E-005
                   109 -4.189189396323354E-007
                   110  4.151326173603835E-004
                   111  0.000000000000000E+000
                   112  0.000000000000000E+000
                   113  3.900470203318628E-004
                   114 -2.291475742609562E-004
                   115  0.000000000000000E+000
                   116  3.279836153852068E-005
                   117  7.495951373182352E-005
                   118  0.000000000000000E+000
                   119  0.000000000000000E+000
                   120  3.767605299596276E-006
                   121 -1.374063083893349E-004
                   122 -1.006741455769439E-004
                   123  5.896539729760251E-004
                   124 -2.297240929462993E-004
                   125  1.226655228999945E-004
                   126 -1.403999939909703E-006
                   127  5.376463364288067E-004
                   128  0.000000000000000E+000
                   129  8.275037483326937E-005
                   130 -6.348977075351190E-004
                   131  0.000000000000000E+000
                   132 -3.582298991120876E-004
                   133 -9.731149322110669E-004
                   134  0.000000000000000E+000
                   135 -1.784133152625701E-005
                   136  0.000000000000000E+000
                   137  0.000000000000000E+000
                   138  4.809635203521332E-007
                   139 -4.778253578383364E-005
                   140 -1.272927673640522E-004
                   141  0.000000000000000E+000
                   142  0.000000000000000E+000
                   143 -2.625319246226160E-004
                   144  9.112455590037478E-005
                   145  0.000000000000000E+000
                   146 -9.813824210866839E-006
                   147  3.593214545098412E-005
                   148  0.000000000000000E+000
                   149  0.000000000000000E+000
                   150  4.527026819843168E-005
                   151 -4.029979920836716E-005
                   152 -4.527109783832392E-004
                   153  5.375275931700460E-004
                   154 -2.282722772219823E-004
                   155  2.786365998249798E-005
                   156  5.744067460628945E-005
                   157  6.108782642776842E-004
                   158  0.000000000000000E+000
                   159 -1.427863464505850E-004
                   160 -5.528179278001661E-004