[Molden Format]
[Atoms] AU
  N     1    7     0.0228629600   -4.2630017900    0.0000000200        
  C     2    6     0.1261310400   -1.7225440700   -0.0000000100        
  C     3    6    -2.2156233700   -0.3667511900    0.0000000100        
  C     4    6     2.4120152100   -0.2639184400   -0.0000000300        
  C     5    6    -2.2378860700    2.2144333300   -0.0000000100        
  C     6    6     2.3407992200    2.3127472500    0.0000000000        
  C     7    6     0.0277794900    3.5831222100    0.0000000000        
  H     8    1    -4.1776521700   -7.4805818000    0.0000000300        
  H     9    1     1.8344876500   -4.9857947800    0.0000000000        
  H    10    1    -3.9360405800   -1.4345647000    0.0000000000        
  H    11    1     4.1890296500   -1.2452383300   -0.0000000300        
  H    12    1    -4.0043231700    3.2133125500   -0.0000000400        
  H    13    1     4.0661694300    3.3813175200    0.0000000300        
  H    14    1    -0.0149815000    5.6107866500    0.0000000100        
[5D]
[7F]
[GTO]
  1  0
   s    12 1.00
  0.114200D+05  0.172695D-04
  0.171200D+04  0.134411D-03
  0.389300D+03  0.694561D-03
  0.110000D+03  0.278531D-02
  0.355700D+02  0.863457D-02
  0.125400D+02  0.199805D-01
  0.464400D+01  0.262908D-01
  0.129300D+01 -0.243845D-01
  0.511800D+00 -0.924934D-01
  0.178700D+00 -0.339683D+00
  0.246240D-01  0.345111D+00
  0.112530D-01  0.752750D+00
   s    10 1.00
  0.114200D+05  0.523000D-03
  0.171200D+04  0.404500D-02
  0.389300D+03  0.207750D-01
  0.110000D+03  0.807269D-01
  0.355700D+02  0.233074D+00
  0.125400D+02  0.433501D+00
  0.464400D+01  0.347472D+00
  0.129300D+01  0.412620D-01
  0.511800D+00 -0.850799D-02
  0.178700D+00  0.238400D-02
   s    10 1.00
  0.114200D+05 -0.115000D-03
  0.171200D+04 -0.895000D-03
  0.389300D+03 -0.462400D-02
  0.110000D+03 -0.185280D-01
  0.355700D+02 -0.573390D-01
  0.125400D+02 -0.132076D+00
  0.464400D+01 -0.172510D+00
  0.129300D+01  0.151814D+00
  0.511800D+00  0.599944D+00
  0.178700D+00  0.387462D+00
   s     1 1.00
  0.129300D+01  0.100000D+01
   s     1 1.00
  0.178700D+00  0.100000D+01
   p     5 1.00
  0.266300D+02  0.146700D-01
  0.594800D+01  0.917640D-01
  0.174200D+01  0.298683D+00
  0.555000D+00  0.498487D+00
  0.172500D+00  0.337023D+00
   p     1 1.00
  0.174200D+01  0.100000D+01
   p     1 1.00
  0.555000D+00  0.100000D+01
   d     1 1.00
  0.165400D+01  0.100000D+01
   d     1 1.00
  0.469000D+00  0.100000D+01
   f     1 1.00
  0.109300D+01  0.100000D+01
  
  2  0
   s    10 1.00
  0.823600D+04  0.531000D-03
  0.123500D+04  0.410800D-02
  0.280800D+03  0.210870D-01
  0.792700D+02  0.818530D-01
  0.255900D+02  0.234817D+00
  0.899700D+01  0.434401D+00
  0.331900D+01  0.346129D+00
  0.905900D+00  0.393780D-01
  0.364300D+00 -0.898300D-02
  0.128500D+00  0.238500D-02
   s    10 1.00
  0.823600D+04 -0.113000D-03
  0.123500D+04 -0.878000D-03
  0.280800D+03 -0.454000D-02
  0.792700D+02 -0.181330D-01
  0.255900D+02 -0.557600D-01
  0.899700D+01 -0.126895D+00
  0.331900D+01 -0.170352D+00
  0.905900D+00  0.140382D+00
  0.364300D+00  0.598684D+00
  0.128500D+00  0.395389D+00
   s     1 1.00
  0.905900D+00  0.100000D+01
   s     1 1.00
  0.364300D+00  0.100000D+01
   p     5 1.00
  0.187100D+02  0.140310D-01
  0.413300D+01  0.868660D-01
  0.120000D+01  0.290216D+00
  0.382700D+00  0.501008D+00
  0.120900D+00  0.343406D+00
   p     1 1.00
  0.382700D+00  0.100000D+01
   p     1 1.00
  0.120900D+00  0.100000D+01
   d     1 1.00
  0.109700D+01  0.100000D+01
   d     1 1.00
  0.318000D+00  0.100000D+01
   f     1 1.00
  0.761000D+00  0.100000D+01
  
  3  0
   s    10 1.00
  0.823600D+04  0.531000D-03
  0.123500D+04  0.410800D-02
  0.280800D+03  0.210870D-01
  0.792700D+02  0.818530D-01
  0.255900D+02  0.234817D+00
  0.899700D+01  0.434401D+00
  0.331900D+01  0.346129D+00
  0.905900D+00  0.393780D-01
  0.364300D+00 -0.898300D-02
  0.128500D+00  0.238500D-02
   s    10 1.00
  0.823600D+04 -0.113000D-03
  0.123500D+04 -0.878000D-03
  0.280800D+03 -0.454000D-02
  0.792700D+02 -0.181330D-01
  0.255900D+02 -0.557600D-01
  0.899700D+01 -0.126895D+00
  0.331900D+01 -0.170352D+00
  0.905900D+00  0.140382D+00
  0.364300D+00  0.598684D+00
  0.128500D+00  0.395389D+00
   s     1 1.00
  0.905900D+00  0.100000D+01
   s     1 1.00
  0.364300D+00  0.100000D+01
   p     5 1.00
  0.187100D+02  0.140310D-01
  0.413300D+01  0.868660D-01
  0.120000D+01  0.290216D+00
  0.382700D+00  0.501008D+00
  0.120900D+00  0.343406D+00
   p     1 1.00
  0.382700D+00  0.100000D+01
   p     1 1.00
  0.120900D+00  0.100000D+01
   d     1 1.00
  0.109700D+01  0.100000D+01
   d     1 1.00
  0.318000D+00  0.100000D+01
   f     1 1.00
  0.761000D+00  0.100000D+01
  
  4  0
   s    10 1.00
  0.823600D+04  0.531000D-03
  0.123500D+04  0.410800D-02
  0.280800D+03  0.210870D-01
  0.792700D+02  0.818530D-01
  0.255900D+02  0.234817D+00
  0.899700D+01  0.434401D+00
  0.331900D+01  0.346129D+00
  0.905900D+00  0.393780D-01
  0.364300D+00 -0.898300D-02
  0.128500D+00  0.238500D-02
   s    10 1.00
  0.823600D+04 -0.113000D-03
  0.123500D+04 -0.878000D-03
  0.280800D+03 -0.454000D-02
  0.792700D+02 -0.181330D-01
  0.255900D+02 -0.557600D-01
  0.899700D+01 -0.126895D+00
  0.331900D+01 -0.170352D+00
  0.905900D+00  0.140382D+00
  0.364300D+00  0.598684D+00
  0.128500D+00  0.395389D+00
   s     1 1.00
  0.905900D+00  0.100000D+01
   s     1 1.00
  0.364300D+00  0.100000D+01
   p     5 1.00
  0.187100D+02  0.140310D-01
  0.413300D+01  0.868660D-01
  0.120000D+01  0.290216D+00
  0.382700D+00  0.501008D+00
  0.120900D+00  0.343406D+00
   p     1 1.00
  0.382700D+00  0.100000D+01
   p     1 1.00
  0.120900D+00  0.100000D+01
   d     1 1.00
  0.109700D+01  0.100000D+01
   d     1 1.00
  0.318000D+00  0.100000D+01
   f     1 1.00
  0.761000D+00  0.100000D+01
  
  5  0
   s    10 1.00
  0.823600D+04  0.531000D-03
  0.123500D+04  0.410800D-02
  0.280800D+03  0.210870D-01
  0.792700D+02  0.818530D-01
  0.255900D+02  0.234817D+00
  0.899700D+01  0.434401D+00
  0.331900D+01  0.346129D+00
  0.905900D+00  0.393780D-01
  0.364300D+00 -0.898300D-02
  0.128500D+00  0.238500D-02
   s    10 1.00
  0.823600D+04 -0.113000D-03
  0.123500D+04 -0.878000D-03
  0.280800D+03 -0.454000D-02
  0.792700D+02 -0.181330D-01
  0.255900D+02 -0.557600D-01
  0.899700D+01 -0.126895D+00
  0.331900D+01 -0.170352D+00
  0.905900D+00  0.140382D+00
  0.364300D+00  0.598684D+00
  0.128500D+00  0.395389D+00
   s     1 1.00
  0.905900D+00  0.100000D+01
   s     1 1.00
  0.364300D+00  0.100000D+01
   p     5 1.00
  0.187100D+02  0.140310D-01
  0.413300D+01  0.868660D-01
  0.120000D+01  0.290216D+00
  0.382700D+00  0.501008D+00
  0.120900D+00  0.343406D+00
   p     1 1.00
  0.382700D+00  0.100000D+01
   p     1 1.00
  0.120900D+00  0.100000D+01
   d     1 1.00
  0.109700D+01  0.100000D+01
   d     1 1.00
  0.318000D+00  0.100000D+01
   f     1 1.00
  0.761000D+00  0.100000D+01
  
  6  0
   s    10 1.00
  0.823600D+04  0.531000D-03
  0.123500D+04  0.410800D-02
  0.280800D+03  0.210870D-01
  0.792700D+02  0.818530D-01
  0.255900D+02  0.234817D+00
  0.899700D+01  0.434401D+00
  0.331900D+01  0.346129D+00
  0.905900D+00  0.393780D-01
  0.364300D+00 -0.898300D-02
  0.128500D+00  0.238500D-02
   s    10 1.00
  0.823600D+04 -0.113000D-03
  0.123500D+04 -0.878000D-03
  0.280800D+03 -0.454000D-02
  0.792700D+02 -0.181330D-01
  0.255900D+02 -0.557600D-01
  0.899700D+01 -0.126895D+00
  0.331900D+01 -0.170352D+00
  0.905900D+00  0.140382D+00
  0.364300D+00  0.598684D+00
  0.128500D+00  0.395389D+00
   s     1 1.00
  0.905900D+00  0.100000D+01
   s     1 1.00
  0.364300D+00  0.100000D+01
   p     5 1.00
  0.187100D+02  0.140310D-01
  0.413300D+01  0.868660D-01
  0.120000D+01  0.290216D+00
  0.382700D+00  0.501008D+00
  0.120900D+00  0.343406D+00
   p     1 1.00
  0.382700D+00  0.100000D+01
   p     1 1.00
  0.120900D+00  0.100000D+01
   d     1 1.00
  0.109700D+01  0.100000D+01
   d     1 1.00
  0.318000D+00  0.100000D+01
   f     1 1.00
  0.761000D+00  0.100000D+01
  
  7  0
   s    10 1.00
  0.823600D+04  0.531000D-03
  0.123500D+04  0.410800D-02
  0.280800D+03  0.210870D-01
  0.792700D+02  0.818530D-01
  0.255900D+02  0.234817D+00
  0.899700D+01  0.434401D+00
  0.331900D+01  0.346129D+00
  0.905900D+00  0.393780D-01
  0.364300D+00 -0.898300D-02
  0.128500D+00  0.238500D-02
   s    10 1.00
  0.823600D+04 -0.113000D-03
  0.123500D+04 -0.878000D-03
  0.280800D+03 -0.454000D-02
  0.792700D+02 -0.181330D-01
  0.255900D+02 -0.557600D-01
  0.899700D+01 -0.126895D+00
  0.331900D+01 -0.170352D+00
  0.905900D+00  0.140382D+00
  0.364300D+00  0.598684D+00
  0.128500D+00  0.395389D+00
   s     1 1.00
  0.905900D+00  0.100000D+01
   s     1 1.00
  0.364300D+00  0.100000D+01
   p     5 1.00
  0.187100D+02  0.140310D-01
  0.413300D+01  0.868660D-01
  0.120000D+01  0.290216D+00
  0.382700D+00  0.501008D+00
  0.120900D+00  0.343406D+00
   p     1 1.00
  0.382700D+00  0.100000D+01
   p     1 1.00
  0.120900D+00  0.100000D+01
   d     1 1.00
  0.109700D+01  0.100000D+01
   d     1 1.00
  0.318000D+00  0.100000D+01
   f     1 1.00
  0.761000D+00  0.100000D+01
  
  8  0
   s     4 1.00
  0.130100D+02  0.196850D-01
  0.196200D+01  0.137977D+00
  0.444600D+00  0.478148D+00
  0.122000D+00  0.501240D+00
   s     1 1.00
  0.122000D+00  0.100000D+01
   p     1 1.00
  0.727000D+00  0.100000D+01
  
  9  0
   s     4 1.00
  0.130100D+02  0.196850D-01
  0.196200D+01  0.137977D+00
  0.444600D+00  0.478148D+00
  0.122000D+00  0.501240D+00
   s     1 1.00
  0.122000D+00  0.100000D+01
   p     1 1.00
  0.727000D+00  0.100000D+01
  
 10  0
   s     4 1.00
  0.130100D+02  0.196850D-01
  0.196200D+01  0.137977D+00
  0.444600D+00  0.478148D+00
  0.122000D+00  0.501240D+00
   s     1 1.00
  0.122000D+00  0.100000D+01
   p     1 1.00
  0.727000D+00  0.100000D+01
  
 11  0
   s     4 1.00
  0.130100D+02  0.196850D-01
  0.196200D+01  0.137977D+00
  0.444600D+00  0.478148D+00
  0.122000D+00  0.501240D+00
   s     1 1.00
  0.122000D+00  0.100000D+01
   p     1 1.00
  0.727000D+00  0.100000D+01
  
 12  0
   s     4 1.00
  0.130100D+02  0.196850D-01
  0.196200D+01  0.137977D+00
  0.444600D+00  0.478148D+00
  0.122000D+00  0.501240D+00
   s     1 1.00
  0.122000D+00  0.100000D+01
   p     1 1.00
  0.727000D+00  0.100000D+01
  
 13  0
   s     4 1.00
  0.130100D+02  0.196850D-01
  0.196200D+01  0.137977D+00
  0.444600D+00  0.478148D+00
  0.122000D+00  0.501240D+00
   s     1 1.00
  0.122000D+00  0.100000D+01
   p     1 1.00
  0.727000D+00  0.100000D+01
  
 14  0
   s     4 1.00
  0.130100D+02  0.196850D-01
  0.196200D+01  0.137977D+00
  0.444600D+00  0.478148D+00
  0.122000D+00  0.501240D+00
   s     1 1.00
  0.122000D+00  0.100000D+01
   p     1 1.00
  0.727000D+00  0.100000D+01
  
[MO]
 Sym= __1_A'_
 Ene=  0.000000000000000E+000
 Spin= Alpha
 Occup=    2.00000000000000     
                     1  1.066701742797664E-004
                     2  0.998348220265445     
                     3 -2.695271678522654E-003
                     4  1.838909079667717E-003
                     5  6.547899083208322E-003
                     6  2.787226246447162E-003
                     7  5.967004948072152E-003
                     8  0.000000000000000E+000
                     9 -7.064430770338457E-004
                    10 -7.425526688256708E-004
                    11  0.000000000000000E+000
                    12 -2.477363831749778E-003
                    13 -1.950918913890368E-003
                    14  0.000000000000000E+000
                    15 -3.175792263069906E-005
                    16  0.000000000000000E+000
                    17  0.000000000000000E+000
                    18 -1.548251461814488E-004
                    19 -6.411289236202824E-005
                    20  9.021131773835377E-005
                    21  0.000000000000000E+000
                    22  0.000000000000000E+000
                    23 -2.247024866377334E-004
                    24  5.021222611010567E-004
                    25  0.000000000000000E+000
                    26 -4.882335326996193E-006
                    27 -5.009610171981489E-005
                    28  0.000000000000000E+000
                    29  0.000000000000000E+000
                    30  3.359340557448212E-005
                    31 -1.108942624998884E-004
                    32 -3.706180697147126E-004
                    33  1.708910611869125E-004
                    34  3.282384113871528E-004
                    35 -1.288680455337172E-004
                    36 -5.470513972846501E-005
                    37 -2.661049446110414E-003
                    38  0.000000000000000E+000
                    39  3.739390849515284E-004
                    40  2.239374548958358E-004
                    41  0.000000000000000E+000
                    42 -2.174802237291709E-003
                    43  5.054522758703134E-003
                    44  0.000000000000000E+000
                    45  6.012256159772311E-006
                    46  0.000000000000000E+000
                    47  0.000000000000000E+000
                    48 -1.293455381920175E-004
                    49  1.332499895692129E-005
                    50 -1.964584634581603E-004
                    51  0.000000000000000E+000
                    52  0.000000000000000E+000
                    53  2.280752203521418E-005
                    54  7.844264923052294E-004
                    55  0.000000000000000E+000
                    56 -2.630232094768386E-006
                    57 -7.447127304144461E-005
                    58  0.000000000000000E+000
                    59  0.000000000000000E+000
                    60  1.715056880196619E-005
                    61 -1.290440669867237E-004
                    62 -5.525888766024593E-004
                    63 -2.195984639461912E-003
                    64 -8.889812116819289E-005
                    65  2.257623881233816E-003
                    66 -4.852748986354992E-004
                    67  1.307768265405077E-004
                    68  0.000000000000000E+000
                    69  3.839949451971399E-004
                    70  9.020867736831604E-004
                    71  0.000000000000000E+000
                    72 -1.802504587726757E-003
                    73  6.889620042204743E-004
                    74  0.000000000000000E+000
                    75 -4.490290107432410E-005
                    76  0.000000000000000E+000
                    77  0.000000000000000E+000
                    78 -6.224468631887322E-005
                    79 -2.356280357758710E-005
                    80 -1.342987083643377E-004
                    81  0.000000000000000E+000
                    82  0.000000000000000E+000
                    83  3.120349456782124E-005
                    84  1.045987854096015E-005
                    85  0.000000000000000E+000
                    86  9.735726954475611E-006
                    87 -4.664426556976472E-005
                    88  0.000000000000000E+000
                    89  0.000000000000000E+000
                    90 -2.941817419986721E-005
                    91 -1.553256152952954E-004
                    92 -1.773872099350932E-004
                    93 -6.550979459288546E-004
                    94  1.622439635711335E-004
                    95 -8.406728354370851E-005
                    96  2.178255248349221E-004
                    97  3.449519514675217E-005
                    98  0.000000000000000E+000
                    99  3.424440340381962E-004
                   100  3.822218781370827E-004
                   101  0.000000000000000E+000
                   102  6.261210103545152E-004
                   103 -1.771307821439513E-003
                   104  0.000000000000000E+000
                   105 -1.139032965443524E-005
                   106  0.000000000000000E+000
                   107  0.000000000000000E+000
                   108 -4.472986977027244E-005
                   109 -1.531555517482171E-005
                   110  8.602613728936806E-005
                   111  0.000000000000000E+000
                   112  0.000000000000000E+000
                   113 -1.648420798714723E-004
                   114  8.130331529505160E-005
                   115  0.000000000000000E+000
                   116 -1.943119937590377E-005
                   117 -2.261904532723481E-005
                   118  0.000000000000000E+000
                   119  0.000000000000000E+000
                   120 -1.251564162022107E-005
                   121 -3.660771603194902E-005
                   122 -2.461029300314188E-004
                   123 -6.052656861576342E-004
                   124  1.724089951510558E-004
                   125  3.071061498538953E-004
                   126 -2.918217180101683E-005
                   127 -3.300569592979208E-004
                   128  0.000000000000000E+000
                   129  2.307974184308224E-004
                   130  6.610619060987963E-004
                   131  0.000000000000000E+000
                   132  4.279140679517041E-004
                   133  2.035511744412703E-003
                   134  0.000000000000000E+000
                   135  1.428600654296999E-005
                   136  0.000000000000000E+000
                   137  0.000000000000000E+000
                   138  4.675429415337452E-005
                   139 -7.829884971718457E-007
                   140  2.068098336566664E-004
                   141  0.000000000000000E+000
                   142  0.000000000000000E+000
                   143  4.016965285748562E-004
                   144  2.374463985465697E-004
                   145  0.000000000000000E+000
                   146 -1.147896150107461E-005
                   147 -6.499451123977578E-005
                   148  0.000000000000000E+000
                   149  0.000000000000000E+000
                   150 -1.584135593331894E-005
                   151 -5.405199589165690E-005
                   152 -1.337834527171703E-004
                   153 -3.618188305320622E-004
                   154  5.475335403602329E-005
                   155  1.966428033180420E-004
                   156  6.190044422343140E-006
                   157 -9.613744240285123E-005
                   158  0.000000000000000E+000
                   159  1.130483423664648E-005
                   160  4.917811988735519E-005
                   161  0.000000000000000E+000
                   162  7.550044598673266E-004
                   163 -3.868078644976427E-004
                   164  0.000000000000000E+000
                   165  1.602645062380187E-006
                   166  0.000000000000000E+000
                   167  0.000000000000000E+000
                   168  1.951859117764551E-006
                   169  1.003335353454834E-005
                   170  1.041767703780971E-004
                   171  0.000000000000000E+000
                   172  0.000000000000000E+000
                   173  4.505516381618030E-005
                   174  3.128912798688778E-005
                   175  0.000000000000000E+000
                   176  3.509785744187361E-006
                   177 -1.342787182251314E-005
                   178  0.000000000000000E+000
                   179  0.000000000000000E+000
                   180 -2.331739035454050E-005
                   181 -2.830290545723524E-005
                   182 -1.389498380979310E-004
                   183 -4.064458077841140E-004
                   184  3.242665244775507E-005
                   185  2.052018514982242E-004
                   186 -4.764559093565110E-005
                   187 -6.310309736541561E-005
                   188  0.000000000000000E+000
                   189  2.669426361461512E-004
                   190  1.223800805866846E-004
                   191  0.000000000000000E+000
                   192  1.375568825612439E-003
                   193 -3.123863204934112E-004
                   194  0.000000000000000E+000
                   195  1.286283557026618E-006
                   196  0.000000000000000E+000
                   197  0.000000000000000E+000
                   198 -3.866136212232824E-006
                   199  4.348262520410671E-006
                   200 -9.378031727745884E-006
                   201  0.000000000000000E+000
                   202  0.000000000000000E+000
                   203 -7.075864936646878E-005
                   204 -2.071931361084649E-004
                   205  0.000000000000000E+000
                   206 -9.934833129985600E-006
                   207 -4.134956290567066E-006
                   208  0.000000000000000E+000
                   209  0.000000000000000E+000
                   210  8.175091248385909E-006
                   211 -4.508807206532092E-006
                   212 -4.865809638799743E-005
                   213  1.039460804932800E-004
                   214  2.127910232070620E-005
                   215  2.537101783024052E-005
                   216  0.000000000000000E+000
                   217 -8.584814430234298E-004
                   218 -6.337937142934788E-004
                   219 -2.443916022970173E-004
                   220  5.845075702180228E-005
                   221  0.000000000000000E+000
                   222 -2.155196826476285E-004
                   223 -6.150597890608087E-004
                   224  2.397182383356115E-005
                   225 -6.012131491080886E-005
                   226  0.000000000000000E+000
                   227  6.158497429887704E-005
                   228 -6.645892230764494E-004
                   229 -4.412764971237665E-005
                   230 -1.354057931050805E-005
                   231  0.000000000000000E+000
                   232  8.348191660530315E-006
                   233 -4.968149356407339E-004
                   234  1.238812470073515E-005
                   235 -4.048034431619284E-006
                   236  0.000000000000000E+000
                   237  5.586480982373849E-007
                   238 -3.637064511147245E-004
                   239 -6.516809440140156E-006
                   240 -2.107590082990930E-006
                   241  0.000000000000000E+000
                   242 -6.174269793734931E-005
                   243  9.211735049306095E-005
                   244 -1.686697965142506E-007
                   245  3.074213957643491E-005
                   246  0.000000000000000E+000
 Sym= __2_A'_
 Ene=  0.000000000000000E+000
 Spin= Alpha
 Occup=    2.00000000000000     
                     1  4.385412069096633E-005
                     2  3.025477141480805E-004
                     3 -3.545164112799910E-003
                     4 -1.048507849396108E-004
                     5 -1.418907408210807E-003
                     6  7.855127853388129E-004
                     7 -3.616266400294714E-003
                     8  0.000000000000000E+000
                     9  1.153419924904364E-005
                    10  1.010262069678475E-004
                    11  0.000000000000000E+000
                    12  7.598054741559835E-006
                    13  2.757595273588324E-004
                    14  0.000000000000000E+000
                    15 -1.998508136588686E-005
                    16  0.000000000000000E+000
                    17  0.000000000000000E+000
                    18  6.962127909361891E-005
                    19 -2.654798810700931E-005
                    20  1.368150093985170E-004
                    21  0.000000000000000E+000
                    22  0.000000000000000E+000
                    23 -5.464078940917866E-005
                    24  1.463078889415042E-004
                    25  0.000000000000000E+000
                    26  1.591909845035900E-005
                    27 -8.367706501792422E-005
                    28  0.000000000000000E+000
                    29  0.000000000000000E+000
                    30  6.497373240995983E-005
                    31 -1.382622812607366E-004
                    32  -1.00079520600285     
                    33 -9.304364432064241E-003
                    34 -2.824990185107407E-003
                    35  8.145953130323812E-003
                    36  2.711887099778894E-004
                    37  4.178619110942697E-003
                    38  0.000000000000000E+000
                    39  2.098491207970576E-004
                    40 -3.061193376621694E-004
                    41  0.000000000000000E+000
                    42  1.232978961172525E-004
                    43 -4.372382081142095E-003
                    44  0.000000000000000E+000
                    45  5.201344214272865E-004
                    46  0.000000000000000E+000
                    47  0.000000000000000E+000
                    48  2.206965893733106E-004
                    49 -3.606399154068015E-005
                    50 -5.539075711560560E-004
                    51  0.000000000000000E+000
                    52  0.000000000000000E+000
                    53  6.604795972391644E-004
                    54  4.707381539003316E-004
                    55  0.000000000000000E+000
                    56 -1.873987385997745E-005
                    57 -1.041271747056414E-004
                    58  0.000000000000000E+000
                    59  0.000000000000000E+000
                    60  2.451416493054055E-005
                    61 -3.797134668639829E-004
                    62 -1.386025171264934E-002
                    63  2.213243452452312E-003
                    64  2.156345026476934E-004
                    65 -2.667394094211388E-003
                    66  1.038898527630710E-004
                    67 -3.022057795388474E-004
                    68  0.000000000000000E+000
                    69 -4.794492238810452E-004
                    70 -1.744387836983732E-004
                    71  0.000000000000000E+000
                    72  2.129957866172290E-003
                    73 -2.479027915702780E-004
                    74  0.000000000000000E+000
                    75 -3.698700525400068E-005
                    76  0.000000000000000E+000
                    77  0.000000000000000E+000
                    78  2.422148200956902E-005
                    79 -3.677989124818859E-006
                    80  4.235319115721430E-004
                    81  0.000000000000000E+000
                    82  0.000000000000000E+000
                    83  6.899436781424550E-004
                    84  2.482686652321520E-004
                    85  0.000000000000000E+000
                    86 -3.103022563682473E-005
                    87  5.829082640206728E-005
                    88  0.000000000000000E+000
                    89  0.000000000000000E+000
                    90 -5.526261712141770E-005
                    91 -1.494583477146951E-004
                    92 -1.758674445327036E-002
                    93  2.293385630122255E-003
                    94  2.940374815334198E-004
                    95 -3.212755343072375E-003
                    96 -4.699690044549646E-004
                    97 -4.767724866145071E-004
                    98  0.000000000000000E+000
                    99  9.811864876445326E-004
                   100  2.491403891543070E-005
                   101  0.000000000000000E+000
                   102 -1.741397130859002E-003
                   103  4.169940166129581E-005
                   104  0.000000000000000E+000
                   105 -2.250673250110249E-005
                   106  0.000000000000000E+000
                   107  0.000000000000000E+000
                   108  2.108255780102924E-005
                   109 -4.189194009852247E-007
                   110  4.151326174740847E-004
                   111  0.000000000000000E+000
                   112  0.000000000000000E+000
                   113  3.900470203060408E-004
                   114 -2.291475744063119E-004
                   115  0.000000000000000E+000
                   116  3.279836145028811E-005
                   117  7.495951362054873E-005
                   118  0.000000000000000E+000
                   119  0.000000000000000E+000
                   120  3.767605372764855E-006
                   121 -1.374063083297011E-004
                   122 -1.006741120258947E-004
                   123  5.896539686340680E-004
                   124 -2.297240928549677E-004
                   125  1.226655233777841E-004
                   126 -1.404001196942132E-006
                   127  5.376463413098368E-004
                   128  0.000000000000000E+000
                   129  8.275037503818217E-005
                   130 -6.348977080567433E-004
                   131  0.000000000000000E+000
                   132 -3.582298999103316E-004
                   133 -9.731149335188666E-004
                   134  0.000000000000000E+000
                   135 -1.784133146051077E-005
                   136  0.000000000000000E+000
                   137  0.000000000000000E+000
                   138  4.809636826582936E-007
                   139 -4.778253596105926E-005
                   140 -1.272927673627773E-004
                   141  0.000000000000000E+000
                   142  0.000000000000000E+000
                   143 -2.625319246004310E-004
                   144  9.112455567955847E-005
                   145  0.000000000000000E+000
                   146 -9.813824214348309E-006
                   147  3.593214540183005E-005
                   148  0.000000000000000E+000
                   149  0.000000000000000E+000
                   150  4.527026825552466E-005
                   151 -4.029979931101026E-005
                   152 -4.527109497897325E-004
                   153  5.375275971738537E-004
                   154 -2.282722771996659E-004
                   155  2.786365971365640E-005
                   156  5.744067349622588E-005
                   157  6.108782579630784E-004
                   158  0.000000000000000E+000
                   159 -1.427863464226900E-004
                   160 -5.528179273188782E-004