[Molden Format]
[Atoms] AU
  N     1    7    -0.1266953200   -4.3372225400    0.0000000000        
  C     2    6     0.0027806400   -1.8069546000    0.0000000000        
  C     3    6    -2.2906629400   -0.4252438100    0.0000000000        
  C     4    6     2.3185652300   -0.4043813000    0.0000000000        
  C     5    6    -2.2782918100    2.1680279100    0.0000000000        
  C     6    6     2.3094582600    2.1764919700    0.0000000000        
  C     7    6     0.0148444900    3.4966288100    0.0000000000        
  H     8    1    -4.3028254600   -7.5862227300    0.0000000000        
  H     9    1     1.6888592600   -5.0703662700    0.0000000000        
  H    10    1    -4.0284023400   -1.4672723900    0.0000000000        
  H    11    1     4.0748450700   -1.4238400000    0.0000000000        
  H    12    1    -4.0271380100    3.1959799800    0.0000000000        
  H    13    1     4.0551613000    3.2103876400    0.0000000000        
  H    14    1     0.0124314300    5.5245646400    0.0000000000        
[5D]
[7F]
[GTO]
  1  0
   s    12 1.00
  0.114200D+05  0.172695D-04
  0.171200D+04  0.134411D-03
  0.389300D+03  0.694561D-03
  0.110000D+03  0.278531D-02
  0.355700D+02  0.863457D-02
  0.125400D+02  0.199805D-01
  0.464400D+01  0.262908D-01
  0.129300D+01 -0.243845D-01
  0.511800D+00 -0.924934D-01
  0.178700D+00 -0.339683D+00
  0.246240D-01  0.345111D+00
  0.112530D-01  0.752750D+00
   s    10 1.00
  0.114200D+05  0.523000D-03
  0.171200D+04  0.404500D-02
  0.389300D+03  0.207750D-01
  0.110000D+03  0.807269D-01
  0.355700D+02  0.233074D+00
  0.125400D+02  0.433501D+00
  0.464400D+01  0.347472D+00
  0.129300D+01  0.412620D-01
  0.511800D+00 -0.850799D-02
  0.178700D+00  0.238400D-02
   s    10 1.00
  0.114200D+05 -0.115000D-03
  0.171200D+04 -0.895000D-03
  0.389300D+03 -0.462400D-02
  0.110000D+03 -0.185280D-01
  0.355700D+02 -0.573390D-01
  0.125400D+02 -0.132076D+00
  0.464400D+01 -0.172510D+00
  0.129300D+01  0.151814D+00
  0.511800D+00  0.599944D+00
  0.178700D+00  0.387462D+00
   s     1 1.00
  0.129300D+01  0.100000D+01
   s     1 1.00
  0.178700D+00  0.100000D+01
   p     5 1.00
  0.266300D+02  0.146700D-01
  0.594800D+01  0.917640D-01
  0.174200D+01  0.298683D+00
  0.555000D+00  0.498487D+00
  0.172500D+00  0.337023D+00
   p     1 1.00
  0.174200D+01  0.100000D+01
   p     1 1.00
  0.555000D+00  0.100000D+01
   d     1 1.00
  0.165400D+01  0.100000D+01
   d     1 1.00
  0.469000D+00  0.100000D+01
   f     1 1.00
  0.109300D+01  0.100000D+01
  
  2  0
   s    10 1.00
  0.823600D+04  0.531000D-03
  0.123500D+04  0.410800D-02
  0.280800D+03  0.210870D-01
  0.792700D+02  0.818530D-01
  0.255900D+02  0.234817D+00
  0.899700D+01  0.434401D+00
  0.331900D+01  0.346129D+00
  0.905900D+00  0.393780D-01
  0.364300D+00 -0.898300D-02
  0.128500D+00  0.238500D-02
   s    10 1.00
  0.823600D+04 -0.113000D-03
  0.123500D+04 -0.878000D-03
  0.280800D+03 -0.454000D-02
  0.792700D+02 -0.181330D-01
  0.255900D+02 -0.557600D-01
  0.899700D+01 -0.126895D+00
  0.331900D+01 -0.170352D+00
  0.905900D+00  0.140382D+00
  0.364300D+00  0.598684D+00
  0.128500D+00  0.395389D+00
   s     1 1.00
  0.905900D+00  0.100000D+01
   s     1 1.00
  0.364300D+00  0.100000D+01
   p     5 1.00
  0.187100D+02  0.140310D-01
  0.413300D+01  0.868660D-01
  0.120000D+01  0.290216D+00
  0.382700D+00  0.501008D+00
  0.120900D+00  0.343406D+00
   p     1 1.00
  0.382700D+00  0.100000D+01
   p     1 1.00
  0.120900D+00  0.100000D+01
   d     1 1.00
  0.109700D+01  0.100000D+01
   d     1 1.00
  0.318000D+00  0.100000D+01
   f     1 1.00
  0.761000D+00  0.100000D+01
  
  3  0
   s    10 1.00
  0.823600D+04  0.531000D-03
  0.123500D+04  0.410800D-02
  0.280800D+03  0.210870D-01
  0.792700D+02  0.818530D-01
  0.255900D+02  0.234817D+00
  0.899700D+01  0.434401D+00
  0.331900D+01  0.346129D+00
  0.905900D+00  0.393780D-01
  0.364300D+00 -0.898300D-02
  0.128500D+00  0.238500D-02
   s    10 1.00
  0.823600D+04 -0.113000D-03
  0.123500D+04 -0.878000D-03
  0.280800D+03 -0.454000D-02
  0.792700D+02 -0.181330D-01
  0.255900D+02 -0.557600D-01
  0.899700D+01 -0.126895D+00
  0.331900D+01 -0.170352D+00
  0.905900D+00  0.140382D+00
  0.364300D+00  0.598684D+00
  0.128500D+00  0.395389D+00
   s     1 1.00
  0.905900D+00  0.100000D+01
   s     1 1.00
  0.364300D+00  0.100000D+01
   p     5 1.00
  0.187100D+02  0.140310D-01
  0.413300D+01  0.868660D-01
  0.120000D+01  0.290216D+00
  0.382700D+00  0.501008D+00
  0.120900D+00  0.343406D+00
   p     1 1.00
  0.382700D+00  0.100000D+01
   p     1 1.00
  0.120900D+00  0.100000D+01
   d     1 1.00
  0.109700D+01  0.100000D+01
   d     1 1.00
  0.318000D+00  0.100000D+01
   f     1 1.00
  0.761000D+00  0.100000D+01
  
  4  0
   s    10 1.00
  0.823600D+04  0.531000D-03
  0.123500D+04  0.410800D-02
  0.280800D+03  0.210870D-01
  0.792700D+02  0.818530D-01
  0.255900D+02  0.234817D+00
  0.899700D+01  0.434401D+00
  0.331900D+01  0.346129D+00
  0.905900D+00  0.393780D-01
  0.364300D+00 -0.898300D-02
  0.128500D+00  0.238500D-02
   s    10 1.00
  0.823600D+04 -0.113000D-03
  0.123500D+04 -0.878000D-03
  0.280800D+03 -0.454000D-02
  0.792700D+02 -0.181330D-01
  0.255900D+02 -0.557600D-01
  0.899700D+01 -0.126895D+00
  0.331900D+01 -0.170352D+00
  0.905900D+00  0.140382D+00
  0.364300D+00  0.598684D+00
  0.128500D+00  0.395389D+00
   s     1 1.00
  0.905900D+00  0.100000D+01
   s     1 1.00
  0.364300D+00  0.100000D+01
   p     5 1.00
  0.187100D+02  0.140310D-01
  0.413300D+01  0.868660D-01
  0.120000D+01  0.290216D+00
  0.382700D+00  0.501008D+00
  0.120900D+00  0.343406D+00
   p     1 1.00
  0.382700D+00  0.100000D+01
   p     1 1.00
  0.120900D+00  0.100000D+01
   d     1 1.00
  0.109700D+01  0.100000D+01
   d     1 1.00
  0.318000D+00  0.100000D+01
   f     1 1.00
  0.761000D+00  0.100000D+01
  
  5  0
   s    10 1.00
  0.823600D+04  0.531000D-03
  0.123500D+04  0.410800D-02
  0.280800D+03  0.210870D-01
  0.792700D+02  0.818530D-01
  0.255900D+02  0.234817D+00
  0.899700D+01  0.434401D+00
  0.331900D+01  0.346129D+00
  0.905900D+00  0.393780D-01
  0.364300D+00 -0.898300D-02
  0.128500D+00  0.238500D-02
   s    10 1.00
  0.823600D+04 -0.113000D-03
  0.123500D+04 -0.878000D-03
  0.280800D+03 -0.454000D-02
  0.792700D+02 -0.181330D-01
  0.255900D+02 -0.557600D-01
  0.899700D+01 -0.126895D+00
  0.331900D+01 -0.170352D+00
  0.905900D+00  0.140382D+00
  0.364300D+00  0.598684D+00
  0.128500D+00  0.395389D+00
   s     1 1.00
  0.905900D+00  0.100000D+01
   s     1 1.00
  0.364300D+00  0.100000D+01
   p     5 1.00
  0.187100D+02  0.140310D-01
  0.413300D+01  0.868660D-01
  0.120000D+01  0.290216D+00
  0.382700D+00  0.501008D+00
  0.120900D+00  0.343406D+00
   p     1 1.00
  0.382700D+00  0.100000D+01
   p     1 1.00
  0.120900D+00  0.100000D+01
   d     1 1.00
  0.109700D+01  0.100000D+01
   d     1 1.00
  0.318000D+00  0.100000D+01
   f     1 1.00
  0.761000D+00  0.100000D+01
  
  6  0
   s    10 1.00
  0.823600D+04  0.531000D-03
  0.123500D+04  0.410800D-02
  0.280800D+03  0.210870D-01
  0.792700D+02  0.818530D-01
  0.255900D+02  0.234817D+00
  0.899700D+01  0.434401D+00
  0.331900D+01  0.346129D+00
  0.905900D+00  0.393780D-01
  0.364300D+00 -0.898300D-02
  0.128500D+00  0.238500D-02
   s    10 1.00
  0.823600D+04 -0.113000D-03
  0.123500D+04 -0.878000D-03
  0.280800D+03 -0.454000D-02
  0.792700D+02 -0.181330D-01
  0.255900D+02 -0.557600D-01
  0.899700D+01 -0.126895D+00
  0.331900D+01 -0.170352D+00
  0.905900D+00  0.140382D+00
  0.364300D+00  0.598684D+00
  0.128500D+00  0.395389D+00
   s     1 1.00
  0.905900D+00  0.100000D+01
   s     1 1.00
  0.364300D+00  0.100000D+01
   p     5 1.00
  0.187100D+02  0.140310D-01
  0.413300D+01  0.868660D-01
  0.120000D+01  0.290216D+00
  0.382700D+00  0.501008D+00
  0.120900D+00  0.343406D+00
   p     1 1.00
  0.382700D+00  0.100000D+01
   p     1 1.00
  0.120900D+00  0.100000D+01
   d     1 1.00
  0.109700D+01  0.100000D+01
   d     1 1.00
  0.318000D+00  0.100000D+01
   f     1 1.00
  0.761000D+00  0.100000D+01
  
  7  0
   s    10 1.00
  0.823600D+04  0.531000D-03
  0.123500D+04  0.410800D-02
  0.280800D+03  0.210870D-01
  0.792700D+02  0.818530D-01
  0.255900D+02  0.234817D+00
  0.899700D+01  0.434401D+00
  0.331900D+01  0.346129D+00
  0.905900D+00  0.393780D-01
  0.364300D+00 -0.898300D-02
  0.128500D+00  0.238500D-02
   s    10 1.00
  0.823600D+04 -0.113000D-03
  0.123500D+04 -0.878000D-03
  0.280800D+03 -0.454000D-02
  0.792700D+02 -0.181330D-01
  0.255900D+02 -0.557600D-01
  0.899700D+01 -0.126895D+00
  0.331900D+01 -0.170352D+00
  0.905900D+00  0.140382D+00
  0.364300D+00  0.598684D+00
  0.128500D+00  0.395389D+00
   s     1 1.00
  0.905900D+00  0.100000D+01
   s     1 1.00
  0.364300D+00  0.100000D+01
   p     5 1.00
  0.187100D+02  0.140310D-01
  0.413300D+01  0.868660D-01
  0.120000D+01  0.290216D+00
  0.382700D+00  0.501008D+00
  0.120900D+00  0.343406D+00
   p     1 1.00
  0.382700D+00  0.100000D+01
   p     1 1.00
  0.120900D+00  0.100000D+01
   d     1 1.00
  0.109700D+01  0.100000D+01
   d     1 1.00
  0.318000D+00  0.100000D+01
   f     1 1.00
  0.761000D+00  0.100000D+01
  
  8  0
   s     4 1.00
  0.130100D+02  0.196850D-01
  0.196200D+01  0.137977D+00
  0.444600D+00  0.478148D+00
  0.122000D+00  0.501240D+00
   s     1 1.00
  0.122000D+00  0.100000D+01
   p     1 1.00
  0.727000D+00  0.100000D+01
  
  9  0
   s     4 1.00
  0.130100D+02  0.196850D-01
  0.196200D+01  0.137977D+00
  0.444600D+00  0.478148D+00
  0.122000D+00  0.501240D+00
   s     1 1.00
  0.122000D+00  0.100000D+01
   p     1 1.00
  0.727000D+00  0.100000D+01
  
 10  0
   s     4 1.00
  0.130100D+02  0.196850D-01
  0.196200D+01  0.137977D+00
  0.444600D+00  0.478148D+00
  0.122000D+00  0.501240D+00
   s     1 1.00
  0.122000D+00  0.100000D+01
   p     1 1.00
  0.727000D+00  0.100000D+01
  
 11  0
   s     4 1.00
  0.130100D+02  0.196850D-01
  0.196200D+01  0.137977D+00
  0.444600D+00  0.478148D+00
  0.122000D+00  0.501240D+00
   s     1 1.00
  0.122000D+00  0.100000D+01
   p     1 1.00
  0.727000D+00  0.100000D+01
  
 12  0
   s     4 1.00
  0.130100D+02  0.196850D-01
  0.196200D+01  0.137977D+00
  0.444600D+00  0.478148D+00
  0.122000D+00  0.501240D+00
   s     1 1.00
  0.122000D+00  0.100000D+01
   p     1 1.00
  0.727000D+00  0.100000D+01
  
 13  0
   s     4 1.00
  0.130100D+02  0.196850D-01
  0.196200D+01  0.137977D+00
  0.444600D+00  0.478148D+00
  0.122000D+00  0.501240D+00
   s     1 1.00
  0.122000D+00  0.100000D+01
   p     1 1.00
  0.727000D+00  0.100000D+01
  
 14  0
   s     4 1.00
  0.130100D+02  0.196850D-01
  0.196200D+01  0.137977D+00
  0.444600D+00  0.478148D+00
  0.122000D+00  0.501240D+00
   s     1 1.00
  0.122000D+00  0.100000D+01
   p     1 1.00
  0.727000D+00  0.100000D+01
  
[MO]
 Sym= __1_A'_
 Ene=  0.000000000000000E+000
 Spin= Alpha
 Occup=    2.00000000000000     
                     1  8.048762022979579E-005
                     2  0.998377564652195     
                     3 -1.243455750874889E-002
                     4  1.947953197908391E-003
                     5  7.697346924049941E-003
                     6  9.390485078761374E-004
                     7  6.941243949817657E-003
                     8  0.000000000000000E+000
                     9 -8.604285580975130E-004
                    10 -7.535907445337177E-004
                    11  0.000000000000000E+000
                    12 -2.394858613662516E-003
                    13 -2.284794373052548E-003
                    14  0.000000000000000E+000
                    15  3.588937041023485E-005
                    16  0.000000000000000E+000
                    17  0.000000000000000E+000
                    18 -1.852595371615655E-004
                    19  2.153475503114900E-005
                    20  9.129395709213757E-005
                    21  0.000000000000000E+000
                    22  0.000000000000000E+000
                    23 -9.626623884171220E-005
                    24  4.248251113557007E-004
                    25  0.000000000000000E+000
                    26  1.709463630495070E-005
                    27 -4.152479295772740E-005
                    28  0.000000000000000E+000
                    29  0.000000000000000E+000
                    30  4.512849462965830E-005
                    31 -4.468096526119800E-005
                    32 -2.298829817138499E-004
                    33  7.062626847223986E-004
                    34  2.865880582642694E-004
                    35  4.456860422848724E-005
                    36  2.354258218491021E-003
                    37  2.350505764217913E-004
                    38  0.000000000000000E+000
                    39  6.744765417389376E-005
                    40 -2.267100028153120E-004
                    41  0.000000000000000E+000
                    42 -1.885828272453626E-003
                    43  4.581840125051071E-003
                    44  0.000000000000000E+000
                    45  2.218468959089038E-005
                    46  0.000000000000000E+000
                    47  0.000000000000000E+000
                    48  2.911229903927054E-005
                    49  1.189994116451519E-004
                    50 -1.656651362188265E-004
                    51  0.000000000000000E+000
                    52  0.000000000000000E+000
                    53  2.096613797345922E-005
                    54  6.753809987990003E-004
                    55  0.000000000000000E+000
                    56 -1.774629753893544E-005
                    57 -9.859134420352247E-005
                    58  0.000000000000000E+000
                    59  0.000000000000000E+000
                    60 -3.397235206339723E-006
                    61 -1.168747655948398E-004
                    62 -5.542039721224710E-004
                    63 -2.284461650325758E-003
                    64 -5.885071696035902E-005
                    65  2.098765902600107E-003
                    66 -1.016574572042273E-003
                    67 -9.819607595511110E-005
                    68  0.000000000000000E+000
                    69  3.369323535937713E-004
                    70  8.551086047440184E-004
                    71  0.000000000000000E+000
                    72 -1.679662316723846E-003
                    73  2.483096792825135E-004
                    74  0.000000000000000E+000
                    75 -3.944541314118835E-005
                    76  0.000000000000000E+000
                    77  0.000000000000000E+000
                    78 -1.788537062183048E-005
                    79  1.762489320013149E-005
                    80 -1.164307590497155E-004
                    81  0.000000000000000E+000
                    82  0.000000000000000E+000
                    83 -5.335996273314318E-005
                    84 -9.517647304202631E-005
                    85  0.000000000000000E+000
                    86  1.504895831065639E-005
                    87 -4.462280487858781E-005
                    88  0.000000000000000E+000
                    89  0.000000000000000E+000
                    90 -2.984243191446598E-005
                    91 -1.452728717989064E-004
                    92 -2.007927362249303E-004
                    93  9.403408639406827E-004
                    94  7.644568074511022E-005
                    95  1.224642097457948E-004
                    96 -1.722022231067115E-003
                    97 -2.631784819309895E-003
                    98  0.000000000000000E+000
                    99  2.974316345594841E-004
                   100  5.172059682806013E-004
                   101  0.000000000000000E+000
                   102  1.149740610776165E-003
                   103 -8.791481504341748E-004
                   104  0.000000000000000E+000
                   105 -4.713783490797931E-005
                   106  0.000000000000000E+000
                   107  0.000000000000000E+000
                   108  3.586552677523030E-005
                   109  6.206790501818230E-005
                   110  2.147201544880809E-005
                   111  0.000000000000000E+000
                   112  0.000000000000000E+000
                   113 -7.924767871771510E-005
                   114  2.891018871891039E-004
                   115  0.000000000000000E+000
                   116  3.270340643349929E-006
                   117 -6.217499113302003E-006
                   118  0.000000000000000E+000
                   119  0.000000000000000E+000
                   120 -6.636648559798528E-007
                   121 -8.247132415266626E-005
                   122 -2.450254499814665E-004
                   123 -7.510193305632296E-004
                   124  1.686523438626600E-004
                   125  2.850922515666430E-004
                   126  8.662202290147682E-005
                   127  7.756275214698162E-005
                   128  0.000000000000000E+000
                   129  2.587424636487513E-004
                   130  6.101717457019079E-004
                   131  0.000000000000000E+000
                   132  2.875980136995298E-004
                   133  1.533453925578399E-003
                   134  0.000000000000000E+000
                   135  1.545644365069269E-005
                   136  0.000000000000000E+000
                   137  0.000000000000000E+000
                   138  5.324926009890142E-005
                   139  1.043113655802601E-005
                   140  1.963914657481207E-004
                   141  0.000000000000000E+000
                   142  0.000000000000000E+000
                   143  3.933349225255408E-004
                   144  1.544929368617098E-004
                   145  0.000000000000000E+000
                   146 -1.493820922298514E-005
                   147 -5.953352422617731E-005
                   148  0.000000000000000E+000
                   149  0.000000000000000E+000
                   150 -3.673269554523008E-006
                   151 -5.672730241455508E-005
                   152 -1.364166736210085E-004
                   153 -1.185931460237444E-003
                   154  7.410454260246332E-005
                   155  2.542543454165663E-004
                   156  3.259748923858790E-004
                   157  1.428088925001046E-003
                   158  0.000000000000000E+000
                   159 -1.189687506697688E-004
                   160 -1.056399568198720E-005
                   161  0.000000000000000E+000
                   162  5.983824575433035E-004
                   163 -1.044512939191595E-004
                   164  0.000000000000000E+000
                   165  1.375718484083700E-005
                   166  0.000000000000000E+000
                   167  0.000000000000000E+000
                   168  5.110770056293634E-005
                   169  4.800448269655126E-005
                   170  1.482206846660309E-004
                   171  0.000000000000000E+000
                   172  0.000000000000000E+000
                   173  1.101945780519548E-004
                   174  6.081074171899513E-005
                   175  0.000000000000000E+000
                   176  5.934266564999215E-006
                   177 -3.024724263992288E-005
                   178  0.000000000000000E+000
                   179  0.000000000000000E+000
                   180 -3.332963766742272E-005
                   181 -5.387281487907516E-005
                   182 -1.306245365058002E-004
                   183 -3.565267900817595E-004
                   184  3.012617013055836E-005
                   185  2.194326382811964E-004
                   186 -1.753756261449293E-004
                   187 -1.749742639528615E-004
                   188  0.000000000000000E+000
                   189  2.208908672401575E-004
                   190  1.453113877904905E-004
                   191  0.000000000000000E+000
                   192  8.455065587613359E-004
                   193 -3.976294192403711E-004
                   194  0.000000000000000E+000
                   195 -8.854664046780684E-008
                   196  0.000000000000000E+000
                   197  0.000000000000000E+000
                   198  1.920427021158148E-005
                   199  1.308603615044897E-005
                   200 -4.095154808566303E-006
                   201  0.000000000000000E+000
                   202  0.000000000000000E+000
                   203 -5.803827386490302E-005
                   204 -1.357148886558402E-004
                   205  0.000000000000000E+000
                   206 -8.501827196211565E-006
                   207 -4.457018834764572E-006
                   208  0.000000000000000E+000
                   209  0.000000000000000E+000
                   210  3.035594019914926E-006
                   211 -1.882175426032607E-006
                   212 -1.859557309572233E-005
                   213  1.053094089112296E-004
                   214  1.623222214142655E-005
                   215  2.253284100613764E-005
                   216  0.000000000000000E+000
                   217 -6.758565545264359E-003
                   218  1.983880079264749E-003
                   219  2.149344542006106E-004
                   220 -1.143329377928482E-004
                   221  0.000000000000000E+000
                   222  5.955466694135373E-004
                   223 -8.485552293660764E-004
                   224  4.030710596678237E-005
                   225 -2.546478178119147E-005
                   226  0.000000000000000E+000
                   227  3.207263014729753E-004
                   228 -9.503478592838009E-004
                   229 -8.759548824368057E-005
                   230 -3.879965053658372E-005
                   231  0.000000000000000E+000
                   232 -4.251196055890028E-005
                   233 -4.576974642308382E-004
                   234  1.563264595194919E-005
                   235 -5.245567889195638E-006
                   236  0.000000000000000E+000
                   237  8.870295317751311E-004
                   238 -5.634735166903033E-004
                   239 -5.210048690841748E-005
                   240 -9.738934472703642E-006
                   241  0.000000000000000E+000
                   242 -3.028124423955633E-004
                   243  1.160616446880970E-004
                   244  1.401061505853811E-006
                   245  3.823268913106178E-005
                   246  0.000000000000000E+000
 Sym= __2_A'_
 Ene=  0.000000000000000E+000
 Spin= Alpha
 Occup=    2.00000000000000     
                     1  4.241877274922013E-005
                     2  3.436893975604415E-004
                     3 -3.235219367637693E-003
                     4 -9.344229027513155E-005
                     5 -1.540890156668394E-003
                     6  9.646333382948874E-004
                     7 -3.942337571415155E-003
                     8  0.000000000000000E+000
                     9  3.143936370275671E-005
                    10  1.141479181987734E-004
                    11  0.000000000000000E+000
                    12  2.709704385724024E-006
                    13  2.495791262945987E-004
                    14  0.000000000000000E+000
                    15 -1.562034694825718E-005
                    16  0.000000000000000E+000
                    17  0.000000000000000E+000
                    18  8.398494223760385E-005
                    19 -3.252584095231789E-005
                    20  1.502363424478792E-004
                    21  0.000000000000000E+000
                    22  0.000000000000000E+000
                    23 -4.995511864998492E-005
                    24  1.421551373868263E-004
                    25  0.000000000000000E+000
                    26  1.460568348756913E-005
                    27 -8.590744653747994E-005
                    28  0.000000000000000E+000
                    29  0.000000000000000E+000
                    30  7.135476031755134E-005
                    31 -1.538888810613777E-004
                    32  -1.00083646474472     
                    33 -9.575875473082125E-003
                    34 -2.957331593888827E-003
                    35  8.174536806905268E-003
                    36  2.134945108020420E-004
                    37  4.863596179881446E-003
                    38  0.000000000000000E+000
                    39  3.834528237665281E-004
                    40 -9.919516675935775E-004
                    41  0.000000000000000E+000
                    42  4.700820241697075E-005
                    43 -4.750042965372338E-003
                    44  0.000000000000000E+000
                    45  5.482359541233821E-004
                    46  0.000000000000000E+000
                    47  0.000000000000000E+000
                    48  2.212037327676226E-004
                    49 -2.981686886865889E-005
                    50 -5.538129994672442E-004
                    51  0.000000000000000E+000
                    52  0.000000000000000E+000
                    53  6.578510533421894E-004
                    54  5.016827405717149E-004
                    55  0.000000000000000E+000
                    56 -2.874415716726123E-005
                    57 -8.901037135719798E-005
                    58  0.000000000000000E+000
                    59  0.000000000000000E+000
                    60  4.421759983903898E-005
                    61 -4.047782215701306E-004
                    62 -1.126989723136836E-002
                    63  2.265052241360794E-003
                    64  2.054267720658861E-004
                    65 -2.674685710906525E-003
                    66  5.986934082868592E-005
                    67 -1.181846180164441E-004
                    68  0.000000000000000E+000
                    69 -3.383006762566848E-004
                    70 -2.620793513364245E-004
                    71  0.000000000000000E+000
                    72  2.204985987420247E-003
                    73 -3.398705742108045E-004
                    74  0.000000000000000E+000
                    75 -4.886871766956227E-005
                    76  0.000000000000000E+000
                    77  0.000000000000000E+000
                    78  2.514061423675408E-005
                    79 -2.154079102279024E-005
                    80  4.284922765249963E-004
                    81  0.000000000000000E+000
                    82  0.000000000000000E+000
                    83  8.037931532145220E-004
                    84  2.266808635601425E-004
                    85  0.000000000000000E+000
                    86 -3.375299100315929E-005
                    87  5.649975035203111E-005
                    88  0.000000000000000E+000
                    89  0.000000000000000E+000
                    90 -5.072021704960058E-005
                    91 -1.467690828932588E-004
                    92 -1.317590297705977E-002
                    93  2.280373188106811E-003
                    94  3.083103640946153E-004
                    95 -3.278283358113444E-003
                    96 -4.306275042850283E-004
                    97 -2.467024852854997E-004
                    98  0.000000000000000E+000
                    99  9.578772729920819E-004
                   100 -1.175881731946481E-005
                   101  0.000000000000000E+000
                   102 -1.835519555205903E-003
                   103  3.169800233445180E-006
                   104  0.000000000000000E+000
                   105 -2.556670326091428E-005
                   106  0.000000000000000E+000
                   107  0.000000000000000E+000
                   108  1.307697655410900E-005
                   109  4.720329554496506E-006
                   110  4.194669016927206E-004
                   111  0.000000000000000E+000
                   112  0.000000000000000E+000
                   113  4.242888129670702E-004
                   114 -3.039640044688596E-004
                   115  0.000000000000000E+000
                   116  3.374624340995793E-005
                   117  6.864029008207850E-005
                   118  0.000000000000000E+000
                   119  0.000000000000000E+000
                   120  2.270002083724837E-005
                   121 -1.351967953676998E-004
                   122  2.044801847859965E-004
                   123  6.913370904522225E-004
                   124 -2.411508896744419E-004
                   125  1.799845941797052E-004
                   126  1.410727042973230E-005
                   127  4.196265499709295E-004
                   128  0.000000000000000E+000
                   129  3.402483519275461E-005
                   130 -6.850839031285707E-004
                   131  0.000000000000000E+000
                   132 -3.815239439723225E-004
                   133 -9.525767531996099E-004
                   134  0.000000000000000E+000
                   135 -2.291510867135604E-005
                   136  0.000000000000000E+000
                   137  0.000000000000000E+000
                   138 -7.614549502764572E-006
                   139 -4.839734769144811E-005
                   140 -1.245029994876258E-004
                   141  0.000000000000000E+000
                   142  0.000000000000000E+000
                   143 -3.009495063461842E-004
                   144  1.236870643350307E-004
                   145  0.000000000000000E+000
                   146 -6.983119589890171E-006
                   147  3.372540417962007E-005
                   148  0.000000000000000E+000
                   149  0.000000000000000E+000
                   150  4.081153152897579E-005
                   151 -3.146881022201223E-005
                   152 -2.213600970942344E-005
                   153  6.491573955581249E-004
                   154 -2.345400318069007E-004
                   155  5.421630037690027E-005
                   156  6.455186259384139E-005
                   157  4.509151493231244E-004
                   158  0.000000000000000E+000
                   159 -1.335671464270280E-004
                   160 -5.389733178281931E-004