[Molden Format]
[Atoms] AU
  N     1    7    -0.0915059100   -4.3437728000    0.0000000000        
  C     2    6     0.0298670300   -1.8299099900    0.0000000000        
  C     3    6    -2.2991427200   -0.4299594000    0.0000000000        
  C     4    6     2.3386281800   -0.4015387700    0.0000000000        
  C     5    6    -2.2806301800    2.1531503200    0.0000000000        
  C     6    6     2.2979003900    2.1821826100    0.0000000000        
  C     7    6     0.0007353800    3.4886564700    0.0000000000        
  H     8    1    -2.9724942800   -6.1521301300    0.0000000000        
  H     9    1     1.6930544200   -5.1061046600    0.0000000000        
  H    10    1    -4.0326037600   -1.4728701200    0.0000000000        
  H    11    1     4.1020400100   -1.4050519400    0.0000000000        
  H    12    1    -4.0339020700    3.1747884200    0.0000000000        
  H    13    1     4.0403484000    3.2221645200    0.0000000000        
  H    14    1    -0.0105546100    5.5162347200    0.0000000000        
[5D]
[7F]
[GTO]
  1  0
   s    12 1.00
  0.114200D+05  0.172695D-04
  0.171200D+04  0.134411D-03
  0.389300D+03  0.694561D-03
  0.110000D+03  0.278531D-02
  0.355700D+02  0.863457D-02
  0.125400D+02  0.199805D-01
  0.464400D+01  0.262908D-01
  0.129300D+01 -0.243845D-01
  0.511800D+00 -0.924934D-01
  0.178700D+00 -0.339683D+00
  0.246240D-01  0.345111D+00
  0.112530D-01  0.752750D+00
   s    10 1.00
  0.114200D+05  0.523000D-03
  0.171200D+04  0.404500D-02
  0.389300D+03  0.207750D-01
  0.110000D+03  0.807269D-01
  0.355700D+02  0.233074D+00
  0.125400D+02  0.433501D+00
  0.464400D+01  0.347472D+00
  0.129300D+01  0.412620D-01
  0.511800D+00 -0.850799D-02
  0.178700D+00  0.238400D-02
   s    10 1.00
  0.114200D+05 -0.115000D-03
  0.171200D+04 -0.895000D-03
  0.389300D+03 -0.462400D-02
  0.110000D+03 -0.185280D-01
  0.355700D+02 -0.573390D-01
  0.125400D+02 -0.132076D+00
  0.464400D+01 -0.172510D+00
  0.129300D+01  0.151814D+00
  0.511800D+00  0.599944D+00
  0.178700D+00  0.387462D+00
   s     1 1.00
  0.129300D+01  0.100000D+01
   s     1 1.00
  0.178700D+00  0.100000D+01
   p     5 1.00
  0.266300D+02  0.146700D-01
  0.594800D+01  0.917640D-01
  0.174200D+01  0.298683D+00
  0.555000D+00  0.498487D+00
  0.172500D+00  0.337023D+00
   p     1 1.00
  0.174200D+01  0.100000D+01
   p     1 1.00
  0.555000D+00  0.100000D+01
   d     1 1.00
  0.165400D+01  0.100000D+01
   d     1 1.00
  0.469000D+00  0.100000D+01
   f     1 1.00
  0.109300D+01  0.100000D+01
  
  2  0
   s    10 1.00
  0.823600D+04  0.531000D-03
  0.123500D+04  0.410800D-02
  0.280800D+03  0.210870D-01
  0.792700D+02  0.818530D-01
  0.255900D+02  0.234817D+00
  0.899700D+01  0.434401D+00
  0.331900D+01  0.346129D+00
  0.905900D+00  0.393780D-01
  0.364300D+00 -0.898300D-02
  0.128500D+00  0.238500D-02
   s    10 1.00
  0.823600D+04 -0.113000D-03
  0.123500D+04 -0.878000D-03
  0.280800D+03 -0.454000D-02
  0.792700D+02 -0.181330D-01
  0.255900D+02 -0.557600D-01
  0.899700D+01 -0.126895D+00
  0.331900D+01 -0.170352D+00
  0.905900D+00  0.140382D+00
  0.364300D+00  0.598684D+00
  0.128500D+00  0.395389D+00
   s     1 1.00
  0.905900D+00  0.100000D+01
   s     1 1.00
  0.364300D+00  0.100000D+01
   p     5 1.00
  0.187100D+02  0.140310D-01
  0.413300D+01  0.868660D-01
  0.120000D+01  0.290216D+00
  0.382700D+00  0.501008D+00
  0.120900D+00  0.343406D+00
   p     1 1.00
  0.382700D+00  0.100000D+01
   p     1 1.00
  0.120900D+00  0.100000D+01
   d     1 1.00
  0.109700D+01  0.100000D+01
   d     1 1.00
  0.318000D+00  0.100000D+01
   f     1 1.00
  0.761000D+00  0.100000D+01
  
  3  0
   s    10 1.00
  0.823600D+04  0.531000D-03
  0.123500D+04  0.410800D-02
  0.280800D+03  0.210870D-01
  0.792700D+02  0.818530D-01
  0.255900D+02  0.234817D+00
  0.899700D+01  0.434401D+00
  0.331900D+01  0.346129D+00
  0.905900D+00  0.393780D-01
  0.364300D+00 -0.898300D-02
  0.128500D+00  0.238500D-02
   s    10 1.00
  0.823600D+04 -0.113000D-03
  0.123500D+04 -0.878000D-03
  0.280800D+03 -0.454000D-02
  0.792700D+02 -0.181330D-01
  0.255900D+02 -0.557600D-01
  0.899700D+01 -0.126895D+00
  0.331900D+01 -0.170352D+00
  0.905900D+00  0.140382D+00
  0.364300D+00  0.598684D+00
  0.128500D+00  0.395389D+00
   s     1 1.00
  0.905900D+00  0.100000D+01
   s     1 1.00
  0.364300D+00  0.100000D+01
   p     5 1.00
  0.187100D+02  0.140310D-01
  0.413300D+01  0.868660D-01
  0.120000D+01  0.290216D+00
  0.382700D+00  0.501008D+00
  0.120900D+00  0.343406D+00
   p     1 1.00
  0.382700D+00  0.100000D+01
   p     1 1.00
  0.120900D+00  0.100000D+01
   d     1 1.00
  0.109700D+01  0.100000D+01
   d     1 1.00
  0.318000D+00  0.100000D+01
   f     1 1.00
  0.761000D+00  0.100000D+01
  
  4  0
   s    10 1.00
  0.823600D+04  0.531000D-03
  0.123500D+04  0.410800D-02
  0.280800D+03  0.210870D-01
  0.792700D+02  0.818530D-01
  0.255900D+02  0.234817D+00
  0.899700D+01  0.434401D+00
  0.331900D+01  0.346129D+00
  0.905900D+00  0.393780D-01
  0.364300D+00 -0.898300D-02
  0.128500D+00  0.238500D-02
   s    10 1.00
  0.823600D+04 -0.113000D-03
  0.123500D+04 -0.878000D-03
  0.280800D+03 -0.454000D-02
  0.792700D+02 -0.181330D-01
  0.255900D+02 -0.557600D-01
  0.899700D+01 -0.126895D+00
  0.331900D+01 -0.170352D+00
  0.905900D+00  0.140382D+00
  0.364300D+00  0.598684D+00
  0.128500D+00  0.395389D+00
   s     1 1.00
  0.905900D+00  0.100000D+01
   s     1 1.00
  0.364300D+00  0.100000D+01
   p     5 1.00
  0.187100D+02  0.140310D-01
  0.413300D+01  0.868660D-01
  0.120000D+01  0.290216D+00
  0.382700D+00  0.501008D+00
  0.120900D+00  0.343406D+00
   p     1 1.00
  0.382700D+00  0.100000D+01
   p     1 1.00
  0.120900D+00  0.100000D+01
   d     1 1.00
  0.109700D+01  0.100000D+01
   d     1 1.00
  0.318000D+00  0.100000D+01
   f     1 1.00
  0.761000D+00  0.100000D+01
  
  5  0
   s    10 1.00
  0.823600D+04  0.531000D-03
  0.123500D+04  0.410800D-02
  0.280800D+03  0.210870D-01
  0.792700D+02  0.818530D-01
  0.255900D+02  0.234817D+00
  0.899700D+01  0.434401D+00
  0.331900D+01  0.346129D+00
  0.905900D+00  0.393780D-01
  0.364300D+00 -0.898300D-02
  0.128500D+00  0.238500D-02
   s    10 1.00
  0.823600D+04 -0.113000D-03
  0.123500D+04 -0.878000D-03
  0.280800D+03 -0.454000D-02
  0.792700D+02 -0.181330D-01
  0.255900D+02 -0.557600D-01
  0.899700D+01 -0.126895D+00
  0.331900D+01 -0.170352D+00
  0.905900D+00  0.140382D+00
  0.364300D+00  0.598684D+00
  0.128500D+00  0.395389D+00
   s     1 1.00
  0.905900D+00  0.100000D+01
   s     1 1.00
  0.364300D+00  0.100000D+01
   p     5 1.00
  0.187100D+02  0.140310D-01
  0.413300D+01  0.868660D-01
  0.120000D+01  0.290216D+00
  0.382700D+00  0.501008D+00
  0.120900D+00  0.343406D+00
   p     1 1.00
  0.382700D+00  0.100000D+01
   p     1 1.00
  0.120900D+00  0.100000D+01
   d     1 1.00
  0.109700D+01  0.100000D+01
   d     1 1.00
  0.318000D+00  0.100000D+01
   f     1 1.00
  0.761000D+00  0.100000D+01
  
  6  0
   s    10 1.00
  0.823600D+04  0.531000D-03
  0.123500D+04  0.410800D-02
  0.280800D+03  0.210870D-01
  0.792700D+02  0.818530D-01
  0.255900D+02  0.234817D+00
  0.899700D+01  0.434401D+00
  0.331900D+01  0.346129D+00
  0.905900D+00  0.393780D-01
  0.364300D+00 -0.898300D-02
  0.128500D+00  0.238500D-02
   s    10 1.00
  0.823600D+04 -0.113000D-03
  0.123500D+04 -0.878000D-03
  0.280800D+03 -0.454000D-02
  0.792700D+02 -0.181330D-01
  0.255900D+02 -0.557600D-01
  0.899700D+01 -0.126895D+00
  0.331900D+01 -0.170352D+00
  0.905900D+00  0.140382D+00
  0.364300D+00  0.598684D+00
  0.128500D+00  0.395389D+00
   s     1 1.00
  0.905900D+00  0.100000D+01
   s     1 1.00
  0.364300D+00  0.100000D+01
   p     5 1.00
  0.187100D+02  0.140310D-01
  0.413300D+01  0.868660D-01
  0.120000D+01  0.290216D+00
  0.382700D+00  0.501008D+00
  0.120900D+00  0.343406D+00
   p     1 1.00
  0.382700D+00  0.100000D+01
   p     1 1.00
  0.120900D+00  0.100000D+01
   d     1 1.00
  0.109700D+01  0.100000D+01
   d     1 1.00
  0.318000D+00  0.100000D+01
   f     1 1.00
  0.761000D+00  0.100000D+01
  
  7  0
   s    10 1.00
  0.823600D+04  0.531000D-03
  0.123500D+04  0.410800D-02
  0.280800D+03  0.210870D-01
  0.792700D+02  0.818530D-01
  0.255900D+02  0.234817D+00
  0.899700D+01  0.434401D+00
  0.331900D+01  0.346129D+00
  0.905900D+00  0.393780D-01
  0.364300D+00 -0.898300D-02
  0.128500D+00  0.238500D-02
   s    10 1.00
  0.823600D+04 -0.113000D-03
  0.123500D+04 -0.878000D-03
  0.280800D+03 -0.454000D-02
  0.792700D+02 -0.181330D-01
  0.255900D+02 -0.557600D-01
  0.899700D+01 -0.126895D+00
  0.331900D+01 -0.170352D+00
  0.905900D+00  0.140382D+00
  0.364300D+00  0.598684D+00
  0.128500D+00  0.395389D+00
   s     1 1.00
  0.905900D+00  0.100000D+01
   s     1 1.00
  0.364300D+00  0.100000D+01
   p     5 1.00
  0.187100D+02  0.140310D-01
  0.413300D+01  0.868660D-01
  0.120000D+01  0.290216D+00
  0.382700D+00  0.501008D+00
  0.120900D+00  0.343406D+00
   p     1 1.00
  0.382700D+00  0.100000D+01
   p     1 1.00
  0.120900D+00  0.100000D+01
   d     1 1.00
  0.109700D+01  0.100000D+01
   d     1 1.00
  0.318000D+00  0.100000D+01
   f     1 1.00
  0.761000D+00  0.100000D+01
  
  8  0
   s     4 1.00
  0.130100D+02  0.196850D-01
  0.196200D+01  0.137977D+00
  0.444600D+00  0.478148D+00
  0.122000D+00  0.501240D+00
   s     1 1.00
  0.122000D+00  0.100000D+01
   p     1 1.00
  0.727000D+00  0.100000D+01
  
  9  0
   s     4 1.00
  0.130100D+02  0.196850D-01
  0.196200D+01  0.137977D+00
  0.444600D+00  0.478148D+00
  0.122000D+00  0.501240D+00
   s     1 1.00
  0.122000D+00  0.100000D+01
   p     1 1.00
  0.727000D+00  0.100000D+01
  
 10  0
   s     4 1.00
  0.130100D+02  0.196850D-01
  0.196200D+01  0.137977D+00
  0.444600D+00  0.478148D+00
  0.122000D+00  0.501240D+00
   s     1 1.00
  0.122000D+00  0.100000D+01
   p     1 1.00
  0.727000D+00  0.100000D+01
  
 11  0
   s     4 1.00
  0.130100D+02  0.196850D-01
  0.196200D+01  0.137977D+00
  0.444600D+00  0.478148D+00
  0.122000D+00  0.501240D+00
   s     1 1.00
  0.122000D+00  0.100000D+01
   p     1 1.00
  0.727000D+00  0.100000D+01
  
 12  0
   s     4 1.00
  0.130100D+02  0.196850D-01
  0.196200D+01  0.137977D+00
  0.444600D+00  0.478148D+00
  0.122000D+00  0.501240D+00
   s     1 1.00
  0.122000D+00  0.100000D+01
   p     1 1.00
  0.727000D+00  0.100000D+01
  
 13  0
   s     4 1.00
  0.130100D+02  0.196850D-01
  0.196200D+01  0.137977D+00
  0.444600D+00  0.478148D+00
  0.122000D+00  0.501240D+00
   s     1 1.00
  0.122000D+00  0.100000D+01
   p     1 1.00
  0.727000D+00  0.100000D+01
  
 14  0
   s     4 1.00
  0.130100D+02  0.196850D-01
  0.196200D+01  0.137977D+00
  0.444600D+00  0.478148D+00
  0.122000D+00  0.501240D+00
   s     1 1.00
  0.122000D+00  0.100000D+01
   p     1 1.00
  0.727000D+00  0.100000D+01
  
[MO]
 Sym= __1_A'_
 Ene=   1.00000000000000     
 Spin= Alpha
 Occup=    1.00000000000000     
                     1  7.685210656835011E-005
                     2  0.998338321585023     
                     3  2.844337219280997E-003
                     4  1.707720532287372E-003
                     5  5.228998135597417E-003
                     6  3.458853532938855E-003
                     7  6.265406198377915E-003
                     8  0.000000000000000E+000
                     9 -6.028483904356967E-004
                    10 -5.829124484494838E-004
                    11  0.000000000000000E+000
                    12 -2.398520371003892E-003
                    13 -1.595982115297512E-003
                    14  0.000000000000000E+000
                    15 -1.146883764726462E-004
                    16  0.000000000000000E+000
                    17  0.000000000000000E+000
                    18 -1.839885476488549E-004
                    19 -8.155162282969866E-005
                    20  9.401072526568823E-005
                    21  0.000000000000000E+000
                    22  0.000000000000000E+000
                    23 -3.258728525006594E-004
                    24  5.651312528096624E-004
                    25  0.000000000000000E+000
                    26 -1.365325349718132E-005
                    27 -6.346709428115937E-005
                    28  0.000000000000000E+000
                    29  0.000000000000000E+000
                    30  3.599414080798651E-005
                    31 -1.540929595556757E-004
                    32 -3.932431418350149E-004
                    33  1.293300297146450E-003
                    34  3.262443892381145E-004
                    35 -4.019656423121737E-004
                    36 -3.202496918688127E-004
                    37 -5.073387787836500E-003
                    38  0.000000000000000E+000
                    39  4.600642204219311E-004
                    40  5.208700543327528E-004
                    41  0.000000000000000E+000
                    42 -2.136552058155693E-003
                    43  5.500414698567626E-003
                    44  0.000000000000000E+000
                    45 -1.668109673103909E-005
                    46  0.000000000000000E+000
                    47  0.000000000000000E+000
                    48 -2.306353929660458E-004
                    49 -8.896570780699276E-006
                    50 -2.555045139412529E-004
                    51  0.000000000000000E+000
                    52  0.000000000000000E+000
                    53  4.498197036622108E-005
                    54  8.440493127275525E-004
                    55  0.000000000000000E+000
                    56 -1.077877688894306E-005
                    57 -5.676827116501446E-005
                    58  0.000000000000000E+000
                    59  0.000000000000000E+000
                    60  3.218633406354719E-005
                    61 -1.214997609633407E-004
                    62 -4.869931495843827E-004
                    63 -2.312686183075977E-003
                    64 -8.833381027452189E-005
                    65  2.107856944245782E-003
                    66 -6.973609514075921E-004
                    67  5.562403062332506E-004
                    68  0.000000000000000E+000
                    69  4.253080132117620E-004
                    70  8.422694241753771E-004
                    71  0.000000000000000E+000
                    72 -1.919070123520154E-003
                    73  8.797104936735081E-004
                    74  0.000000000000000E+000
                    75 -4.067783841641038E-005
                    76  0.000000000000000E+000
                    77  0.000000000000000E+000
                    78 -8.377819755494130E-005
                    79 -2.694628267031067E-005
                    80 -1.235380609727574E-004
                    81  0.000000000000000E+000
                    82  0.000000000000000E+000
                    83  4.236142039940768E-005
                    84  8.716032037679451E-005
                    85  0.000000000000000E+000
                    86  1.385550900094584E-005
                    87 -5.059476156110264E-005
                    88  0.000000000000000E+000
                    89  0.000000000000000E+000
                    90 -1.993874367770521E-005
                    91 -1.509113863497045E-004
                    92 -1.781835211464177E-004
                    93 -1.255971388622986E-003
                    94  2.089741930091826E-004
                    95 -1.987555104370723E-004
                    96  6.116837500074249E-004
                    97  7.786816559922840E-004
                    98  0.000000000000000E+000
                    99  4.235223493423208E-004
                   100  3.644307647022040E-004
                   101  0.000000000000000E+000
                   102  4.595602159806998E-004
                   103 -1.769253626189442E-003
                   104  0.000000000000000E+000
                   105  1.961761570402124E-006
                   106  0.000000000000000E+000
                   107  0.000000000000000E+000
                   108 -8.186102074168732E-005
                   109 -2.273272065932837E-005
                   110  9.842397491557679E-005
                   111  0.000000000000000E+000
                   112  0.000000000000000E+000
                   113 -1.801266110139305E-004
                   114 -2.465482515818038E-005
                   115  0.000000000000000E+000
                   116 -2.675342616919442E-005
                   117 -2.625968549972984E-005
                   118  0.000000000000000E+000
                   119  0.000000000000000E+000
                   120 -1.789723090407055E-005
                   121 -2.502415065306530E-005
                   122 -2.543516790371546E-004
                   123 -4.729021100801342E-004
                   124  1.732543585834108E-004
                   125  3.197098239786534E-004
                   126 -1.513042003241490E-005
                   127 -6.052603454186783E-004
                   128  0.000000000000000E+000
                   129  1.878038072893765E-004
                   130  6.430658900822656E-004
                   131  0.000000000000000E+000
                   132  5.832988853851227E-004
                   133  2.122454495063393E-003
                   134  0.000000000000000E+000
                   135  1.373408245004961E-005
                   136  0.000000000000000E+000
                   137  0.000000000000000E+000
                   138  3.891097551310394E-005
                   139  2.214613076797617E-006
                   140  1.893154588127073E-004
                   141  0.000000000000000E+000
                   142  0.000000000000000E+000
                   143  3.860429879481074E-004
                   144  2.439304116370132E-004
                   145  0.000000000000000E+000
                   146 -9.340904160173664E-006
                   147 -6.152524160008857E-005
                   148  0.000000000000000E+000
                   149  0.000000000000000E+000
                   150 -1.878384141834849E-005
                   151 -4.670036069795517E-005
                   152 -1.551804424356458E-004
                   153 -1.557347359951141E-004
                   154  5.483087292243720E-005
                   155  2.383478864742699E-004
                   156 -3.076320084659296E-005
                   157 -5.410004781908480E-004
                   158  0.000000000000000E+000
                   159  4.195381512565223E-005
                   160  6.056615224470292E-005
                   161  0.000000000000000E+000
                   162  8.056440435301323E-004
                   163 -3.832735859685658E-004
                   164  0.000000000000000E+000
                   165 -1.990271579598404E-006
                   166  0.000000000000000E+000
                   167  0.000000000000000E+000
                   168 -8.855887122532476E-006
                   169  1.197482480472862E-006
                   170  8.848739677042991E-005
                   171  0.000000000000000E+000
                   172  0.000000000000000E+000
                   173  2.251323640015146E-005
                   174 -9.049418743386170E-006
                   175  0.000000000000000E+000
                   176  1.139832679809678E-006
                   177 -9.293653268806269E-006
                   178  0.000000000000000E+000
                   179  0.000000000000000E+000
                   180 -1.554166461394807E-005
                   181 -1.838260953681020E-005
                   182 -1.619421419799774E-004
                   183 -4.757594604276431E-004
                   184  3.845756315640358E-005
                   185  2.328681097419785E-004
                   186 -4.589086819033149E-005
                   187 -4.464373741209455E-005
                   188  0.000000000000000E+000
                   189  2.524609557556179E-004
                   190  8.579667761970830E-005
                   191  0.000000000000000E+000
                   192  1.439336965982200E-003
                   193 -2.396235935278010E-004
                   194  0.000000000000000E+000
                   195  1.143710987774823E-006
                   196  0.000000000000000E+000
                   197  0.000000000000000E+000
                   198 -1.198881390943320E-005
                   199  3.778218708512340E-006
                   200 -1.021420746500930E-005
                   201  0.000000000000000E+000
                   202  0.000000000000000E+000
                   203 -8.236716962135757E-005
                   204 -2.007374243131134E-004
                   205  0.000000000000000E+000
                   206 -8.745509295339498E-006
                   207 -4.340255296845063E-006
                   208  0.000000000000000E+000
                   209  0.000000000000000E+000
                   210  8.939342707273071E-006
                   211 -8.000038089740461E-006
                   212 -2.242190542558017E-005
                   213  9.075232242742795E-005
                   214  7.623043406895197E-005
                   215  8.913240334078190E-005
                   216  0.000000000000000E+000
                   217  1.722467774476487E-003
                   218 -1.759793619732843E-003
                   219 -4.510028824725684E-004
                   220  1.766797010214837E-004
                   221  0.000000000000000E+000
                   222 -4.858315564444767E-004
                   223 -6.618511619813542E-004
                   224  2.777913347104947E-007
                   225 -6.807100443451888E-005
                   226  0.000000000000000E+000
                   227 -3.046839932309164E-004
                   228 -4.625227131587055E-004
                   229 -1.581124483061665E-005
                   230 -1.772349635051527E-005
                   231  0.000000000000000E+000
                   232 -1.011347667713803E-004
                   233 -4.694787948826946E-004
                   234  1.159442817855111E-006
                   235 -6.220026690715194E-007
                   236  0.000000000000000E+000
                   237 -1.777213805632296E-004
                   238 -3.949118558116696E-004
                   239  4.132669957457338E-006
                   240 -5.266585790459874E-007
                   241  0.000000000000000E+000
                   242  9.238008860498873E-006
                   243  3.249137956206416E-005
                   244 -5.469456367861383E-007
                   245  2.789874980157650E-005
                   246  0.000000000000000E+000
 Sym= __2_A'_
 Ene=   2.00000000000000     
 Spin= Alpha
 Occup=    1.00000000000000     
                     1 -5.020245963783482E-005
                     2 -2.911787223102684E-004
                     3  2.665485819284451E-003
                     4  1.352222872936471E-004
                     5  1.380177622775589E-003
                     6 -3.640027663335143E-004
                     7  3.013308843335706E-003
                     8  0.000000000000000E+000
                     9 -3.967898474713640E-005
                    10 -1.159581303869074E-004
                    11  0.000000000000000E+000
                    12 -2.701561013900307E-005
                    13 -3.852287719739324E-004
                    14  0.000000000000000E+000
                    15  3.346069991913434E-005
                    16  0.000000000000000E+000
                    17  0.000000000000000E+000
                    18 -4.459113773377336E-005
                    19  2.203604830305143E-005
                    20 -1.146113071437580E-004
                    21  0.000000000000000E+000
                    22  0.000000000000000E+000
                    23  1.355958207003939E-004
                    24 -1.391780912968700E-004
                    25  0.000000000000000E+000
                    26 -1.769767561266924E-005
                    27  9.275742658012300E-005
                    28  0.000000000000000E+000
                    29  0.000000000000000E+000
                    30 -6.378398479565921E-005
                    31  1.404651330906190E-004
                    32   1.00101251329828     
                    33  9.297881738926173E-003
                    34  2.695296673320672E-003
                    35 -8.046504896310687E-003
                    36 -1.340355515024593E-005
                    37 -3.301630384633311E-003
                    38  0.000000000000000E+000
                    39 -1.979067641591709E-004
                    40  1.767024172729867E-004
                    41  0.000000000000000E+000
                    42 -1.427929725672320E-004
                    43  4.140894601178457E-003
                    44  0.000000000000000E+000
                    45 -5.589132979518170E-004
                    46  0.000000000000000E+000
                    47  0.000000000000000E+000
                    48 -2.217022716770524E-004
                    49  4.341581357786170E-005
                    50  5.252650187782269E-004
                    51  0.000000000000000E+000
                    52  0.000000000000000E+000
                    53 -6.727710444110660E-004
                    54 -3.779838269779537E-004
                    55  0.000000000000000E+000
                    56  1.235544282232329E-005
                    57  1.012360160183901E-004
                    58  0.000000000000000E+000
                    59  0.000000000000000E+000
                    60 -3.433790074946113E-005
                    61  3.963749960929341E-004
                    62  8.907239490264023E-003
                    63 -2.078393611554237E-003
                    64 -2.404973423209794E-004
                    65  2.703618142405223E-003
                    66  3.563230010797113E-006
                    67  7.553743280323591E-005
                    68  0.000000000000000E+000
                    69  5.384723054488175E-004
                    70  1.447872908622539E-004
                    71  0.000000000000000E+000
                    72 -2.133147409631908E-003
                    73  2.948174816331771E-004
                    74  0.000000000000000E+000
                    75  3.563750124847775E-005
                    76  0.000000000000000E+000
                    77  0.000000000000000E+000
                    78 -4.062017145746192E-006
                    79  2.704971890230220E-006
                    80 -4.177868440942447E-004
                    81  0.000000000000000E+000
                    82  0.000000000000000E+000
                    83 -6.369900530995248E-004
                    84 -2.406271365076176E-004
                    85  0.000000000000000E+000
                    86  2.711247497128868E-005
                    87 -5.842407017402281E-005
                    88  0.000000000000000E+000
                    89  0.000000000000000E+000
                    90  4.024089838729878E-005
                    91  1.515584261139532E-004
                    92  1.066692886721791E-002
                    93 -2.072839276289983E-003
                    94 -3.146741361181033E-004
                    95  3.207563890715790E-003
                    96  6.037090798019941E-005
                    97  3.218569939265121E-005
                    98  0.000000000000000E+000
                    99 -9.404877069200548E-004
                   100  2.068205447752366E-005
                   101  0.000000000000000E+000
                   102  1.775243486141919E-003
                   103  2.352942592140210E-005
                   104  0.000000000000000E+000
                   105  2.262340013586593E-005
                   106  0.000000000000000E+000
                   107  0.000000000000000E+000
                   108 -2.190656278819672E-006
                   109  1.124851400945471E-005
                   110 -4.242111635912732E-004
                   111  0.000000000000000E+000
                   112  0.000000000000000E+000
                   113 -3.792440279462310E-004
                   114  2.650342141512888E-004
                   115  0.000000000000000E+000
                   116 -2.704224613532891E-005
                   117 -6.956510404380798E-005
                   118  0.000000000000000E+000
                   119  0.000000000000000E+000
                   120 -9.320573019508986E-006
                   121  1.340919167704054E-004
                   122 -1.801519636960421E-004
                   123 -6.999820828398240E-004
                   124  2.269245648178392E-004
                   125 -9.828607695502624E-005
                   126  5.862261339859628E-006
                   127 -3.498301176553735E-004
                   128  0.000000000000000E+000
                   129 -8.346035041236985E-005
                   130  6.004882785163662E-004
                   131  0.000000000000000E+000
                   132  3.729201408267622E-004
                   133  9.176999605456594E-004
                   134  0.000000000000000E+000
                   135  1.745118400802139E-005
                   136  0.000000000000000E+000
                   137  0.000000000000000E+000
                   138  4.160389624199728E-006
                   139  4.345540813448155E-005
                   140  1.313942228800797E-004
                   141  0.000000000000000E+000
                   142  0.000000000000000E+000
                   143  2.475296230160628E-004
                   144 -1.032213832670114E-004
                   145  0.000000000000000E+000
                   146  9.700590043959903E-006
                   147 -3.745942114779381E-005
                   148  0.000000000000000E+000
                   149  0.000000000000000E+000
                   150 -4.590501554568976E-005
                   151  3.746785676281219E-005
                   152 -1.100049247708628E-004
                   153 -6.904902855850530E-004
                   154  2.314233922502547E-004
                   155 -3.496916863972946E-005
                   156 -2.956963509047542E-005
                   157 -3.393860665050193E-004
                   158  0.000000000000000E+000
                   159  1.370392130742478E-004
                   160  5.348487639242011E-004