[Molden Format]
[Atoms] AU
  N     1    7    -0.0915059100   -4.3437728000    0.0000000000        
  C     2    6     0.0298670300   -1.8299099900    0.0000000000        
  C     3    6    -2.2991427200   -0.4299594000    0.0000000000        
  C     4    6     2.3386281800   -0.4015387700    0.0000000000        
  C     5    6    -2.2806301800    2.1531503200    0.0000000000        
  C     6    6     2.2979003900    2.1821826100    0.0000000000        
  C     7    6     0.0007353800    3.4886564700    0.0000000000        
  H     8    1    -2.9724942800   -6.1521301300    0.0000000000        
  H     9    1     1.6930544200   -5.1061046600    0.0000000000        
  H    10    1    -4.0326037600   -1.4728701200    0.0000000000        
  H    11    1     4.1020400100   -1.4050519400    0.0000000000        
  H    12    1    -4.0339020700    3.1747884200    0.0000000000        
  H    13    1     4.0403484000    3.2221645200    0.0000000000        
  H    14    1    -0.0105546100    5.5162347200    0.0000000000        
[5D]
[7F]
[GTO]
  1  0
   s    12 1.00
  0.114200D+05  0.172695D-04
  0.171200D+04  0.134411D-03
  0.389300D+03  0.694561D-03
  0.110000D+03  0.278531D-02
  0.355700D+02  0.863457D-02
  0.125400D+02  0.199805D-01
  0.464400D+01  0.262908D-01
  0.129300D+01 -0.243845D-01
  0.511800D+00 -0.924934D-01
  0.178700D+00 -0.339683D+00
  0.246240D-01  0.345111D+00
  0.112530D-01  0.752750D+00
   s    10 1.00
  0.114200D+05  0.523000D-03
  0.171200D+04  0.404500D-02
  0.389300D+03  0.207750D-01
  0.110000D+03  0.807269D-01
  0.355700D+02  0.233074D+00
  0.125400D+02  0.433501D+00
  0.464400D+01  0.347472D+00
  0.129300D+01  0.412620D-01
  0.511800D+00 -0.850799D-02
  0.178700D+00  0.238400D-02
   s    10 1.00
  0.114200D+05 -0.115000D-03
  0.171200D+04 -0.895000D-03
  0.389300D+03 -0.462400D-02
  0.110000D+03 -0.185280D-01
  0.355700D+02 -0.573390D-01
  0.125400D+02 -0.132076D+00
  0.464400D+01 -0.172510D+00
  0.129300D+01  0.151814D+00
  0.511800D+00  0.599944D+00
  0.178700D+00  0.387462D+00
   s     1 1.00
  0.129300D+01  0.100000D+01
   s     1 1.00
  0.178700D+00  0.100000D+01
   p     5 1.00
  0.266300D+02  0.146700D-01
  0.594800D+01  0.917640D-01
  0.174200D+01  0.298683D+00
  0.555000D+00  0.498487D+00
  0.172500D+00  0.337023D+00
   p     1 1.00
  0.174200D+01  0.100000D+01
   p     1 1.00
  0.555000D+00  0.100000D+01
   d     1 1.00
  0.165400D+01  0.100000D+01
   d     1 1.00
  0.469000D+00  0.100000D+01
   f     1 1.00
  0.109300D+01  0.100000D+01
  
  2  0
   s    10 1.00
  0.823600D+04  0.531000D-03
  0.123500D+04  0.410800D-02
  0.280800D+03  0.210870D-01
  0.792700D+02  0.818530D-01
  0.255900D+02  0.234817D+00
  0.899700D+01  0.434401D+00
  0.331900D+01  0.346129D+00
  0.905900D+00  0.393780D-01
  0.364300D+00 -0.898300D-02
  0.128500D+00  0.238500D-02
   s    10 1.00
  0.823600D+04 -0.113000D-03
  0.123500D+04 -0.878000D-03
  0.280800D+03 -0.454000D-02
  0.792700D+02 -0.181330D-01
  0.255900D+02 -0.557600D-01
  0.899700D+01 -0.126895D+00
  0.331900D+01 -0.170352D+00
  0.905900D+00  0.140382D+00
  0.364300D+00  0.598684D+00
  0.128500D+00  0.395389D+00
   s     1 1.00
  0.905900D+00  0.100000D+01
   s     1 1.00
  0.364300D+00  0.100000D+01
   p     5 1.00
  0.187100D+02  0.140310D-01
  0.413300D+01  0.868660D-01
  0.120000D+01  0.290216D+00
  0.382700D+00  0.501008D+00
  0.120900D+00  0.343406D+00
   p     1 1.00
  0.382700D+00  0.100000D+01
   p     1 1.00
  0.120900D+00  0.100000D+01
   d     1 1.00
  0.109700D+01  0.100000D+01
   d     1 1.00
  0.318000D+00  0.100000D+01
   f     1 1.00
  0.761000D+00  0.100000D+01
  
  3  0
   s    10 1.00
  0.823600D+04  0.531000D-03
  0.123500D+04  0.410800D-02
  0.280800D+03  0.210870D-01
  0.792700D+02  0.818530D-01
  0.255900D+02  0.234817D+00
  0.899700D+01  0.434401D+00
  0.331900D+01  0.346129D+00
  0.905900D+00  0.393780D-01
  0.364300D+00 -0.898300D-02
  0.128500D+00  0.238500D-02
   s    10 1.00
  0.823600D+04 -0.113000D-03
  0.123500D+04 -0.878000D-03
  0.280800D+03 -0.454000D-02
  0.792700D+02 -0.181330D-01
  0.255900D+02 -0.557600D-01
  0.899700D+01 -0.126895D+00
  0.331900D+01 -0.170352D+00
  0.905900D+00  0.140382D+00
  0.364300D+00  0.598684D+00
  0.128500D+00  0.395389D+00
   s     1 1.00
  0.905900D+00  0.100000D+01
   s     1 1.00
  0.364300D+00  0.100000D+01
   p     5 1.00
  0.187100D+02  0.140310D-01
  0.413300D+01  0.868660D-01
  0.120000D+01  0.290216D+00
  0.382700D+00  0.501008D+00
  0.120900D+00  0.343406D+00
   p     1 1.00
  0.382700D+00  0.100000D+01
   p     1 1.00
  0.120900D+00  0.100000D+01
   d     1 1.00
  0.109700D+01  0.100000D+01
   d     1 1.00
  0.318000D+00  0.100000D+01
   f     1 1.00
  0.761000D+00  0.100000D+01
  
  4  0
   s    10 1.00
  0.823600D+04  0.531000D-03
  0.123500D+04  0.410800D-02
  0.280800D+03  0.210870D-01
  0.792700D+02  0.818530D-01
  0.255900D+02  0.234817D+00
  0.899700D+01  0.434401D+00
  0.331900D+01  0.346129D+00
  0.905900D+00  0.393780D-01
  0.364300D+00 -0.898300D-02
  0.128500D+00  0.238500D-02
   s    10 1.00
  0.823600D+04 -0.113000D-03
  0.123500D+04 -0.878000D-03
  0.280800D+03 -0.454000D-02
  0.792700D+02 -0.181330D-01
  0.255900D+02 -0.557600D-01
  0.899700D+01 -0.126895D+00
  0.331900D+01 -0.170352D+00
  0.905900D+00  0.140382D+00
  0.364300D+00  0.598684D+00
  0.128500D+00  0.395389D+00
   s     1 1.00
  0.905900D+00  0.100000D+01
   s     1 1.00
  0.364300D+00  0.100000D+01
   p     5 1.00
  0.187100D+02  0.140310D-01
  0.413300D+01  0.868660D-01
  0.120000D+01  0.290216D+00
  0.382700D+00  0.501008D+00
  0.120900D+00  0.343406D+00
   p     1 1.00
  0.382700D+00  0.100000D+01
   p     1 1.00
  0.120900D+00  0.100000D+01
   d     1 1.00
  0.109700D+01  0.100000D+01
   d     1 1.00
  0.318000D+00  0.100000D+01
   f     1 1.00
  0.761000D+00  0.100000D+01
  
  5  0
   s    10 1.00
  0.823600D+04  0.531000D-03
  0.123500D+04  0.410800D-02
  0.280800D+03  0.210870D-01
  0.792700D+02  0.818530D-01
  0.255900D+02  0.234817D+00
  0.899700D+01  0.434401D+00
  0.331900D+01  0.346129D+00
  0.905900D+00  0.393780D-01
  0.364300D+00 -0.898300D-02
  0.128500D+00  0.238500D-02
   s    10 1.00
  0.823600D+04 -0.113000D-03
  0.123500D+04 -0.878000D-03
  0.280800D+03 -0.454000D-02
  0.792700D+02 -0.181330D-01
  0.255900D+02 -0.557600D-01
  0.899700D+01 -0.126895D+00
  0.331900D+01 -0.170352D+00
  0.905900D+00  0.140382D+00
  0.364300D+00  0.598684D+00
  0.128500D+00  0.395389D+00
   s     1 1.00
  0.905900D+00  0.100000D+01
   s     1 1.00
  0.364300D+00  0.100000D+01
   p     5 1.00
  0.187100D+02  0.140310D-01
  0.413300D+01  0.868660D-01
  0.120000D+01  0.290216D+00
  0.382700D+00  0.501008D+00
  0.120900D+00  0.343406D+00
   p     1 1.00
  0.382700D+00  0.100000D+01
   p     1 1.00
  0.120900D+00  0.100000D+01
   d     1 1.00
  0.109700D+01  0.100000D+01
   d     1 1.00
  0.318000D+00  0.100000D+01
   f     1 1.00
  0.761000D+00  0.100000D+01
  
  6  0
   s    10 1.00
  0.823600D+04  0.531000D-03
  0.123500D+04  0.410800D-02
  0.280800D+03  0.210870D-01
  0.792700D+02  0.818530D-01
  0.255900D+02  0.234817D+00
  0.899700D+01  0.434401D+00
  0.331900D+01  0.346129D+00
  0.905900D+00  0.393780D-01
  0.364300D+00 -0.898300D-02
  0.128500D+00  0.238500D-02
   s    10 1.00
  0.823600D+04 -0.113000D-03
  0.123500D+04 -0.878000D-03
  0.280800D+03 -0.454000D-02
  0.792700D+02 -0.181330D-01
  0.255900D+02 -0.557600D-01
  0.899700D+01 -0.126895D+00
  0.331900D+01 -0.170352D+00
  0.905900D+00  0.140382D+00
  0.364300D+00  0.598684D+00
  0.128500D+00  0.395389D+00
   s     1 1.00
  0.905900D+00  0.100000D+01
   s     1 1.00
  0.364300D+00  0.100000D+01
   p     5 1.00
  0.187100D+02  0.140310D-01
  0.413300D+01  0.868660D-01
  0.120000D+01  0.290216D+00
  0.382700D+00  0.501008D+00
  0.120900D+00  0.343406D+00
   p     1 1.00
  0.382700D+00  0.100000D+01
   p     1 1.00
  0.120900D+00  0.100000D+01
   d     1 1.00
  0.109700D+01  0.100000D+01
   d     1 1.00
  0.318000D+00  0.100000D+01
   f     1 1.00
  0.761000D+00  0.100000D+01
  
  7  0
   s    10 1.00
  0.823600D+04  0.531000D-03
  0.123500D+04  0.410800D-02
  0.280800D+03  0.210870D-01
  0.792700D+02  0.818530D-01
  0.255900D+02  0.234817D+00
  0.899700D+01  0.434401D+00
  0.331900D+01  0.346129D+00
  0.905900D+00  0.393780D-01
  0.364300D+00 -0.898300D-02
  0.128500D+00  0.238500D-02
   s    10 1.00
  0.823600D+04 -0.113000D-03
  0.123500D+04 -0.878000D-03
  0.280800D+03 -0.454000D-02
  0.792700D+02 -0.181330D-01
  0.255900D+02 -0.557600D-01
  0.899700D+01 -0.126895D+00
  0.331900D+01 -0.170352D+00
  0.905900D+00  0.140382D+00
  0.364300D+00  0.598684D+00
  0.128500D+00  0.395389D+00
   s     1 1.00
  0.905900D+00  0.100000D+01
   s     1 1.00
  0.364300D+00  0.100000D+01
   p     5 1.00
  0.187100D+02  0.140310D-01
  0.413300D+01  0.868660D-01
  0.120000D+01  0.290216D+00
  0.382700D+00  0.501008D+00
  0.120900D+00  0.343406D+00
   p     1 1.00
  0.382700D+00  0.100000D+01
   p     1 1.00
  0.120900D+00  0.100000D+01
   d     1 1.00
  0.109700D+01  0.100000D+01
   d     1 1.00
  0.318000D+00  0.100000D+01
   f     1 1.00
  0.761000D+00  0.100000D+01
  
  8  0
   s     4 1.00
  0.130100D+02  0.196850D-01
  0.196200D+01  0.137977D+00
  0.444600D+00  0.478148D+00
  0.122000D+00  0.501240D+00
   s     1 1.00
  0.122000D+00  0.100000D+01
   p     1 1.00
  0.727000D+00  0.100000D+01
  
  9  0
   s     4 1.00
  0.130100D+02  0.196850D-01
  0.196200D+01  0.137977D+00
  0.444600D+00  0.478148D+00
  0.122000D+00  0.501240D+00
   s     1 1.00
  0.122000D+00  0.100000D+01
   p     1 1.00
  0.727000D+00  0.100000D+01
  
 10  0
   s     4 1.00
  0.130100D+02  0.196850D-01
  0.196200D+01  0.137977D+00
  0.444600D+00  0.478148D+00
  0.122000D+00  0.501240D+00
   s     1 1.00
  0.122000D+00  0.100000D+01
   p     1 1.00
  0.727000D+00  0.100000D+01
  
 11  0
   s     4 1.00
  0.130100D+02  0.196850D-01
  0.196200D+01  0.137977D+00
  0.444600D+00  0.478148D+00
  0.122000D+00  0.501240D+00
   s     1 1.00
  0.122000D+00  0.100000D+01
   p     1 1.00
  0.727000D+00  0.100000D+01
  
 12  0
   s     4 1.00
  0.130100D+02  0.196850D-01
  0.196200D+01  0.137977D+00
  0.444600D+00  0.478148D+00
  0.122000D+00  0.501240D+00
   s     1 1.00
  0.122000D+00  0.100000D+01
   p     1 1.00
  0.727000D+00  0.100000D+01
  
 13  0
   s     4 1.00
  0.130100D+02  0.196850D-01
  0.196200D+01  0.137977D+00
  0.444600D+00  0.478148D+00
  0.122000D+00  0.501240D+00
   s     1 1.00
  0.122000D+00  0.100000D+01
   p     1 1.00
  0.727000D+00  0.100000D+01
  
 14  0
   s     4 1.00
  0.130100D+02  0.196850D-01
  0.196200D+01  0.137977D+00
  0.444600D+00  0.478148D+00
  0.122000D+00  0.501240D+00
   s     1 1.00
  0.122000D+00  0.100000D+01
   p     1 1.00
  0.727000D+00  0.100000D+01
  
[MO]
 Sym= __1_A'_
 Ene=  0.000000000000000E+000
 Spin= Alpha
 Occup=    2.00000000000000     
                     1  7.685211423999332E-005
                     2  0.998338321570066     
                     3  2.844337015432409E-003
                     4  1.707720535333513E-003
                     5  5.228998251425736E-003
                     6  3.458854168431964E-003
                     7  6.265406402282307E-003
                     8  0.000000000000000E+000
                     9 -6.028483912497896E-004
                    10 -5.829124737044579E-004
                    11  0.000000000000000E+000
                    12 -2.398520384908226E-003
                    13 -1.595982101087992E-003
                    14  0.000000000000000E+000
                    15 -1.146883790856081E-004
                    16  0.000000000000000E+000
                    17  0.000000000000000E+000
                    18 -1.839885438497947E-004
                    19 -8.155158475947609E-005
                    20  9.401070847167919E-005
                    21  0.000000000000000E+000
                    22  0.000000000000000E+000
                    23 -3.258728494053320E-004
                    24  5.651313843786017E-004
                    25  0.000000000000000E+000
                    26 -1.365326350130475E-005
                    27 -6.346709713955106E-005
                    28  0.000000000000000E+000
                    29  0.000000000000000E+000
                    30  3.599416890407907E-005
                    31 -1.540929560472376E-004
                    32 -3.932410465723072E-004
                    33  1.293299403862642E-003
                    34  3.262444068392697E-004
                    35 -4.019657224763044E-004
                    36 -3.202448363300154E-004
                    37 -5.073388755448278E-003
                    38  0.000000000000000E+000
                    39  4.600639272853933E-004
                    40  5.208701486854703E-004
                    41  0.000000000000000E+000
                    42 -2.136553488777990E-003
                    43  5.500414890625002E-003
                    44  0.000000000000000E+000
                    45 -1.668107573078567E-005
                    46  0.000000000000000E+000
                    47  0.000000000000000E+000
                    48 -2.306353811259674E-004
                    49 -8.896451625644655E-006
                    50 -2.555045064153321E-004
                    51  0.000000000000000E+000
                    52  0.000000000000000E+000
                    53  4.498202244989354E-005
                    54  8.440495494762211E-004
                    55  0.000000000000000E+000
                    56 -1.077882358482119E-005
                    57 -5.676826500005401E-005
                    58  0.000000000000000E+000
                    59  0.000000000000000E+000
                    60  3.218633171951807E-005
                    61 -1.214997801934561E-004
                    62 -4.869932937879568E-004
                    63 -2.312688906350879E-003
                    64 -8.833375647402744E-005
                    65  2.107857027645312E-003
                    66 -6.973640860402772E-004
                    67  5.562417574508447E-004
                    68  0.000000000000000E+000
                    69  4.253082106123673E-004
                    70  8.422692995072235E-004
                    71  0.000000000000000E+000
                    72 -1.919069578895357E-003
                    73  8.797102247430651E-004
                    74  0.000000000000000E+000
                    75 -4.067778796062731E-005
                    76  0.000000000000000E+000
                    77  0.000000000000000E+000
                    78 -8.377822921015391E-005
                    79 -2.694617862199852E-005
                    80 -1.235379796438675E-004
                    81  0.000000000000000E+000
                    82  0.000000000000000E+000
                    83  4.236145282734688E-005
                    84  8.716044361713894E-005
                    85  0.000000000000000E+000
                    86  1.385553860891235E-005
                    87 -5.059477525272969E-005
                    88  0.000000000000000E+000
                    89  0.000000000000000E+000
                    90 -1.993875204686201E-005
                    91 -1.509113332939740E-004
                    92 -1.781838663902904E-004
                    93 -1.255969387840728E-003
                    94  2.089741627861432E-004
                    95 -1.987557178357663E-004
                    96  6.116833140961530E-004
                    97  7.786779074888065E-004
                    98  0.000000000000000E+000
                    99  4.235223119128443E-004
                   100  3.644311154413583E-004
                   101  0.000000000000000E+000
                   102  4.595600472570482E-004
                   103 -1.769253065591908E-003
                   104  0.000000000000000E+000
                   105  1.961738003269036E-006
                   106  0.000000000000000E+000
                   107  0.000000000000000E+000
                   108 -8.186095076664349E-005
                   109 -2.273268425520435E-005
                   110  9.842396793792437E-005
                   111  0.000000000000000E+000
                   112  0.000000000000000E+000
                   113 -1.801266894043600E-004
                   114 -2.465464206823377E-005
                   115  0.000000000000000E+000
                   116 -2.675341198243335E-005
                   117 -2.625965428036102E-005
                   118  0.000000000000000E+000
                   119  0.000000000000000E+000
                   120 -1.789725359185046E-005
                   121 -2.502416570870443E-005
                   122 -2.543516401462164E-004
                   123 -4.729015845092400E-004
                   124  1.732543332516587E-004
                   125  3.197098185402441E-004
                   126 -1.513049989620178E-005
                   127 -6.052602340189573E-004
                   128  0.000000000000000E+000
                   129  1.878037882173808E-004
                   130  6.430658166627043E-004
                   131  0.000000000000000E+000
                   132  5.832990525960299E-004
                   133  2.122454382069667E-003
                   134  0.000000000000000E+000
                   135  1.373407735978031E-005
                   136  0.000000000000000E+000
                   137  0.000000000000000E+000
                   138  3.891098220873104E-005
                   139  2.214654609804027E-006
                   140  1.893154507114990E-004
                   141  0.000000000000000E+000
                   142  0.000000000000000E+000
                   143  3.860429954163938E-004
                   144  2.439305089448100E-004
                   145  0.000000000000000E+000
                   146 -9.340902226766610E-006
                   147 -6.152524168317135E-005
                   148  0.000000000000000E+000
                   149  0.000000000000000E+000
                   150 -1.878386167085941E-005
                   151 -4.670035078551502E-005
                   152 -1.551804602162987E-004
                   153 -1.557358479956415E-004
                   154  5.483090317067434E-005
                   155  2.383477651813143E-004
                   156 -3.076338305816770E-005
                   157 -5.409984142686615E-004
                   158  0.000000000000000E+000
                   159  4.195381362305161E-005
                   160  6.056606311806887E-005
                   161  0.000000000000000E+000
                   162  8.056441414189155E-004
                   163 -3.832740962122374E-004
                   164  0.000000000000000E+000
                   165 -1.990246072658377E-006
                   166  0.000000000000000E+000
                   167  0.000000000000000E+000
                   168 -8.855819936512909E-006
                   169  1.197482780737521E-006
                   170  8.848742950978071E-005
                   171  0.000000000000000E+000
                   172  0.000000000000000E+000
                   173  2.251331396009438E-005
                   174 -9.049373093650293E-006
                   175  0.000000000000000E+000
                   176  1.139832174570667E-006
                   177 -9.293667525316963E-006
                   178  0.000000000000000E+000
                   179  0.000000000000000E+000
                   180 -1.554166536950616E-005
                   181 -1.838263932125054E-005
                   182 -1.619421208626562E-004
                   183 -4.757588116208146E-004
                   184  3.845754564011424E-005
                   185  2.328680126399850E-004
                   186 -4.589071533134716E-005
                   187 -4.464411846299035E-005
                   188  0.000000000000000E+000
                   189  2.524609847692030E-004
                   190  8.579673307309580E-005
                   191  0.000000000000000E+000
                   192  1.439337023832845E-003
                   193 -2.396237282228247E-004
                   194  0.000000000000000E+000
                   195  1.143706456410267E-006
                   196  0.000000000000000E+000
                   197  0.000000000000000E+000
                   198 -1.198877879656037E-005
                   199  3.778221860226640E-006
                   200 -1.021422427587628E-005
                   201  0.000000000000000E+000
                   202  0.000000000000000E+000
                   203 -8.236711373977372E-005
                   204 -2.007374067970427E-004
                   205  0.000000000000000E+000
                   206 -8.745512855669984E-006
                   207 -4.340254396319011E-006
                   208  0.000000000000000E+000
                   209  0.000000000000000E+000
                   210  8.939336516928181E-006
                   211 -8.000048880703140E-006
                   212 -2.242179188231156E-005
                   213  9.075241799819972E-005
                   214  7.623042700909118E-005
                   215  8.913240241633758E-005
                   216  0.000000000000000E+000
                   217  1.722467905293897E-003
                   218 -1.759793923160434E-003
                   219 -4.510028968303420E-004
                   220  1.766797410166240E-004
                   221  0.000000000000000E+000
                   222 -4.858306902133796E-004
                   223 -6.618510747817014E-004
                   224  2.777898992678060E-007
                   225 -6.807095992101363E-005
                   226  0.000000000000000E+000
                   227 -3.046819297857093E-004
                   228 -4.625234620083771E-004
                   229 -1.581139973607831E-005
                   230 -1.772346985033330E-005
                   231  0.000000000000000E+000
                   232 -1.011347055712522E-004
                   233 -4.694788431144766E-004
                   234  1.159453159865564E-006
                   235 -6.220160296360911E-007
                   236  0.000000000000000E+000
                   237 -1.777209719323143E-004
                   238 -3.949117448189438E-004
                   239  4.132641384607372E-006
                   240 -5.266420142649155E-007
                   241  0.000000000000000E+000
                   242  9.237693268743470E-006
                   243  3.249150219030277E-005
                   244 -5.469420012228403E-007
                   245  2.789875773794672E-005
                   246  0.000000000000000E+000
 Sym= __2_A'_
 Ene=  0.000000000000000E+000
 Spin= Alpha
 Occup=    2.00000000000000     
                     1 -5.020242636073775E-005
                     2 -2.911808337269262E-004
                     3  2.665485815582837E-003
                     4  1.352222819554139E-004
                     5  1.380177742533727E-003
                     6 -3.640021866209400E-004
                     7  3.013309091378372E-003
                     8  0.000000000000000E+000
                     9 -3.967900504173860E-005
                    10 -1.159581419022246E-004
                    11  0.000000000000000E+000
                    12 -2.701557369805525E-005
                    13 -3.852287767175429E-004
                    14  0.000000000000000E+000
                    15  3.346069687836280E-005
                    16  0.000000000000000E+000
                    17  0.000000000000000E+000
                    18 -4.459113957263326E-005
                    19  2.203607059067718E-005
                    20 -1.146113678843144E-004
                    21  0.000000000000000E+000
                    22  0.000000000000000E+000
                    23  1.355958227683294E-004
                    24 -1.391779528529141E-004
                    25  0.000000000000000E+000
                    26 -1.769768670497409E-005
                    27  9.275740850312364E-005
                    28  0.000000000000000E+000
                    29  0.000000000000000E+000
                    30 -6.378395772576344E-005
                    31  1.404651432604693E-004
                    32   1.00101251677520     
                    33  9.297883974632768E-003
                    34  2.695296798324655E-003
                    35 -8.046505981680137E-003
                    36 -1.340013605767596E-005
                    37 -3.301630356182845E-003
                    38  0.000000000000000E+000
                    39 -1.979071838493852E-004
                    40  1.767023200397777E-004
                    41  0.000000000000000E+000
                    42 -1.427937910122140E-004
                    43  4.140895012892492E-003
                    44  0.000000000000000E+000
                    45 -5.589133303983886E-004
                    46  0.000000000000000E+000
                    47  0.000000000000000E+000
                    48 -2.217022114812538E-004
                    49  4.341587961277555E-005
                    50  5.252650979928528E-004
                    51  0.000000000000000E+000
                    52  0.000000000000000E+000
                    53 -6.727712423335020E-004
                    54 -3.779835946199756E-004
                    55  0.000000000000000E+000
                    56  1.235539385658254E-005
                    57  1.012360064288303E-004
                    58  0.000000000000000E+000
                    59  0.000000000000000E+000
                    60 -3.433790072163913E-005
                    61  3.963750630466384E-004
                    62  8.907223270972833E-003
                    63 -2.078394896497207E-003
                    64 -2.404974215969247E-004
                    65  2.703618458155167E-003
                    66  3.561486181790685E-006
                    67  7.553700679673172E-005
                    68  0.000000000000000E+000
                    69  5.384725644837730E-004
                    70  1.447873134931910E-004
                    71  0.000000000000000E+000
                    72 -2.133147382709932E-003
                    73  2.948175924131651E-004
                    74  0.000000000000000E+000
                    75  3.563752439072553E-005
                    76  0.000000000000000E+000
                    77  0.000000000000000E+000
                    78 -4.061975688777644E-006
                    79  2.705031590547670E-006
                    80 -4.177868334279217E-004
                    81  0.000000000000000E+000
                    82  0.000000000000000E+000
                    83 -6.369900804388178E-004
                    84 -2.406272104944730E-004
                    85  0.000000000000000E+000
                    86  2.711248327844048E-005
                    87 -5.842406749389134E-005
                    88  0.000000000000000E+000
                    89  0.000000000000000E+000
                    90  4.024088700140135E-005
                    91  1.515584651792013E-004
                    92  1.066664680156898E-002
                    93 -2.072839994557214E-003
                    94 -3.146750421787387E-004
                    95  3.207566198959731E-003
                    96  6.036995093761892E-005
                    97  3.218154646042729E-005
                    98  0.000000000000000E+000
                    99 -9.404879177254847E-004
                   100  2.068239808502315E-005
                   101  0.000000000000000E+000
                   102  1.775243925757026E-003
                   103  2.353007491095859E-005
                   104  0.000000000000000E+000
                   105  2.262348988715072E-005
                   106  0.000000000000000E+000
                   107  0.000000000000000E+000
                   108 -2.190515633206828E-006
                   109  1.124855440523513E-005
                   110 -4.242113358101561E-004
                   111  0.000000000000000E+000
                   112  0.000000000000000E+000
                   113 -3.792442295657258E-004
                   114  2.650347045876532E-004
                   115  0.000000000000000E+000
                   116 -2.704220030037036E-005
                   117 -6.956507167321192E-005
                   118  0.000000000000000E+000
                   119  0.000000000000000E+000
                   120 -9.320590701602929E-006
                   121  1.340919748787724E-004
                   122 -1.801510837671844E-004
                   123 -6.999820133921940E-004
                   124  2.269245819632949E-004
                   125 -9.828634816727202E-005
                   126  5.862225569199894E-006
                   127 -3.498290937448958E-004
                   128  0.000000000000000E+000
                   129 -8.346031508391593E-005
                   130  6.004882206910719E-004
                   131  0.000000000000000E+000
                   132  3.729204134395241E-004
                   133  9.176998687586283E-004
                   134  0.000000000000000E+000
                   135  1.745118870203566E-005
                   136  0.000000000000000E+000
                   137  0.000000000000000E+000
                   138  4.160421480768994E-006
                   139  4.345543050137740E-005
                   140  1.313942501167638E-004
                   141  0.000000000000000E+000
                   142  0.000000000000000E+000
                   143  2.475296988499300E-004
                   144 -1.032213586880875E-004
                   145  0.000000000000000E+000
                   146  9.700588497401123E-006
                   147 -3.745942685763086E-005
                   148  0.000000000000000E+000
                   149  0.000000000000000E+000
                   150 -4.590502441915358E-005
                   151  3.746784931218953E-005
                   152 -1.100163023176318E-004
                   153 -6.904914183609841E-004
                   154  2.314235095774473E-004
                   155 -3.497001433298292E-005
                   156 -2.956959457116036E-005
                   157 -3.393833056693581E-004
                   158  0.000000000000000E+000
                   159  1.370392342512873E-004
                   160  5.348487744845893E-004