[Molden Format]
[Atoms] AU
  N     1    7     0.0364027500   -4.2533596700    0.0000000000        
  C     2    6     0.1375995500   -1.7109742600   -0.0000000100        
  C     3    6    -2.2056350300   -0.3594812200    0.0000000100        
  C     4    6     2.4220648200   -0.2490576500   -0.0000000300        
  C     5    6    -2.2317425700    2.2213030700   -0.0000000100        
  C     6    6     2.3473557600    2.3263014000    0.0000000000        
  C     7    6     0.0325945800    3.5930318400    0.0000000000        
  H     8    1    -4.2893100900   -7.6180088200    0.0000000200        
  H     9    1     1.8496456200   -4.9751596300    0.0000000000        
  H    10    1    -3.9246478800   -1.4298107700    0.0000000100        
  H    11    1     4.2002260100   -1.2284005400   -0.0000000200        
  H    12    1    -3.9993430400    3.2180974500   -0.0000000300        
  H    13    1     4.0707249800    3.3981636300    0.0000000300        
  H    14    1    -0.0131676700    5.6206795600    0.0000000000        
[5D]
[7F]
[GTO]
  1  0
   s    12 1.00
  0.114200D+05  0.172695D-04
  0.171200D+04  0.134411D-03
  0.389300D+03  0.694561D-03
  0.110000D+03  0.278531D-02
  0.355700D+02  0.863457D-02
  0.125400D+02  0.199805D-01
  0.464400D+01  0.262908D-01
  0.129300D+01 -0.243845D-01
  0.511800D+00 -0.924934D-01
  0.178700D+00 -0.339683D+00
  0.246240D-01  0.345111D+00
  0.112530D-01  0.752750D+00
   s    10 1.00
  0.114200D+05  0.523000D-03
  0.171200D+04  0.404500D-02
  0.389300D+03  0.207750D-01
  0.110000D+03  0.807269D-01
  0.355700D+02  0.233074D+00
  0.125400D+02  0.433501D+00
  0.464400D+01  0.347472D+00
  0.129300D+01  0.412620D-01
  0.511800D+00 -0.850799D-02
  0.178700D+00  0.238400D-02
   s    10 1.00
  0.114200D+05 -0.115000D-03
  0.171200D+04 -0.895000D-03
  0.389300D+03 -0.462400D-02
  0.110000D+03 -0.185280D-01
  0.355700D+02 -0.573390D-01
  0.125400D+02 -0.132076D+00
  0.464400D+01 -0.172510D+00
  0.129300D+01  0.151814D+00
  0.511800D+00  0.599944D+00
  0.178700D+00  0.387462D+00
   s     1 1.00
  0.129300D+01  0.100000D+01
   s     1 1.00
  0.178700D+00  0.100000D+01
   p     5 1.00
  0.266300D+02  0.146700D-01
  0.594800D+01  0.917640D-01
  0.174200D+01  0.298683D+00
  0.555000D+00  0.498487D+00
  0.172500D+00  0.337023D+00
   p     1 1.00
  0.174200D+01  0.100000D+01
   p     1 1.00
  0.555000D+00  0.100000D+01
   d     1 1.00
  0.165400D+01  0.100000D+01
   d     1 1.00
  0.469000D+00  0.100000D+01
   f     1 1.00
  0.109300D+01  0.100000D+01
  
  2  0
   s    10 1.00
  0.823600D+04  0.531000D-03
  0.123500D+04  0.410800D-02
  0.280800D+03  0.210870D-01
  0.792700D+02  0.818530D-01
  0.255900D+02  0.234817D+00
  0.899700D+01  0.434401D+00
  0.331900D+01  0.346129D+00
  0.905900D+00  0.393780D-01
  0.364300D+00 -0.898300D-02
  0.128500D+00  0.238500D-02
   s    10 1.00
  0.823600D+04 -0.113000D-03
  0.123500D+04 -0.878000D-03
  0.280800D+03 -0.454000D-02
  0.792700D+02 -0.181330D-01
  0.255900D+02 -0.557600D-01
  0.899700D+01 -0.126895D+00
  0.331900D+01 -0.170352D+00
  0.905900D+00  0.140382D+00
  0.364300D+00  0.598684D+00
  0.128500D+00  0.395389D+00
   s     1 1.00
  0.905900D+00  0.100000D+01
   s     1 1.00
  0.364300D+00  0.100000D+01
   p     5 1.00
  0.187100D+02  0.140310D-01
  0.413300D+01  0.868660D-01
  0.120000D+01  0.290216D+00
  0.382700D+00  0.501008D+00
  0.120900D+00  0.343406D+00
   p     1 1.00
  0.382700D+00  0.100000D+01
   p     1 1.00
  0.120900D+00  0.100000D+01
   d     1 1.00
  0.109700D+01  0.100000D+01
   d     1 1.00
  0.318000D+00  0.100000D+01
   f     1 1.00
  0.761000D+00  0.100000D+01
  
  3  0
   s    10 1.00
  0.823600D+04  0.531000D-03
  0.123500D+04  0.410800D-02
  0.280800D+03  0.210870D-01
  0.792700D+02  0.818530D-01
  0.255900D+02  0.234817D+00
  0.899700D+01  0.434401D+00
  0.331900D+01  0.346129D+00
  0.905900D+00  0.393780D-01
  0.364300D+00 -0.898300D-02
  0.128500D+00  0.238500D-02
   s    10 1.00
  0.823600D+04 -0.113000D-03
  0.123500D+04 -0.878000D-03
  0.280800D+03 -0.454000D-02
  0.792700D+02 -0.181330D-01
  0.255900D+02 -0.557600D-01
  0.899700D+01 -0.126895D+00
  0.331900D+01 -0.170352D+00
  0.905900D+00  0.140382D+00
  0.364300D+00  0.598684D+00
  0.128500D+00  0.395389D+00
   s     1 1.00
  0.905900D+00  0.100000D+01
   s     1 1.00
  0.364300D+00  0.100000D+01
   p     5 1.00
  0.187100D+02  0.140310D-01
  0.413300D+01  0.868660D-01
  0.120000D+01  0.290216D+00
  0.382700D+00  0.501008D+00
  0.120900D+00  0.343406D+00
   p     1 1.00
  0.382700D+00  0.100000D+01
   p     1 1.00
  0.120900D+00  0.100000D+01
   d     1 1.00
  0.109700D+01  0.100000D+01
   d     1 1.00
  0.318000D+00  0.100000D+01
   f     1 1.00
  0.761000D+00  0.100000D+01
  
  4  0
   s    10 1.00
  0.823600D+04  0.531000D-03
  0.123500D+04  0.410800D-02
  0.280800D+03  0.210870D-01
  0.792700D+02  0.818530D-01
  0.255900D+02  0.234817D+00
  0.899700D+01  0.434401D+00
  0.331900D+01  0.346129D+00
  0.905900D+00  0.393780D-01
  0.364300D+00 -0.898300D-02
  0.128500D+00  0.238500D-02
   s    10 1.00
  0.823600D+04 -0.113000D-03
  0.123500D+04 -0.878000D-03
  0.280800D+03 -0.454000D-02
  0.792700D+02 -0.181330D-01
  0.255900D+02 -0.557600D-01
  0.899700D+01 -0.126895D+00
  0.331900D+01 -0.170352D+00
  0.905900D+00  0.140382D+00
  0.364300D+00  0.598684D+00
  0.128500D+00  0.395389D+00
   s     1 1.00
  0.905900D+00  0.100000D+01
   s     1 1.00
  0.364300D+00  0.100000D+01
   p     5 1.00
  0.187100D+02  0.140310D-01
  0.413300D+01  0.868660D-01
  0.120000D+01  0.290216D+00
  0.382700D+00  0.501008D+00
  0.120900D+00  0.343406D+00
   p     1 1.00
  0.382700D+00  0.100000D+01
   p     1 1.00
  0.120900D+00  0.100000D+01
   d     1 1.00
  0.109700D+01  0.100000D+01
   d     1 1.00
  0.318000D+00  0.100000D+01
   f     1 1.00
  0.761000D+00  0.100000D+01
  
  5  0
   s    10 1.00
  0.823600D+04  0.531000D-03
  0.123500D+04  0.410800D-02
  0.280800D+03  0.210870D-01
  0.792700D+02  0.818530D-01
  0.255900D+02  0.234817D+00
  0.899700D+01  0.434401D+00
  0.331900D+01  0.346129D+00
  0.905900D+00  0.393780D-01
  0.364300D+00 -0.898300D-02
  0.128500D+00  0.238500D-02
   s    10 1.00
  0.823600D+04 -0.113000D-03
  0.123500D+04 -0.878000D-03
  0.280800D+03 -0.454000D-02
  0.792700D+02 -0.181330D-01
  0.255900D+02 -0.557600D-01
  0.899700D+01 -0.126895D+00
  0.331900D+01 -0.170352D+00
  0.905900D+00  0.140382D+00
  0.364300D+00  0.598684D+00
  0.128500D+00  0.395389D+00
   s     1 1.00
  0.905900D+00  0.100000D+01
   s     1 1.00
  0.364300D+00  0.100000D+01
   p     5 1.00
  0.187100D+02  0.140310D-01
  0.413300D+01  0.868660D-01
  0.120000D+01  0.290216D+00
  0.382700D+00  0.501008D+00
  0.120900D+00  0.343406D+00
   p     1 1.00
  0.382700D+00  0.100000D+01
   p     1 1.00
  0.120900D+00  0.100000D+01
   d     1 1.00
  0.109700D+01  0.100000D+01
   d     1 1.00
  0.318000D+00  0.100000D+01
   f     1 1.00
  0.761000D+00  0.100000D+01
  
  6  0
   s    10 1.00
  0.823600D+04  0.531000D-03
  0.123500D+04  0.410800D-02
  0.280800D+03  0.210870D-01
  0.792700D+02  0.818530D-01
  0.255900D+02  0.234817D+00
  0.899700D+01  0.434401D+00
  0.331900D+01  0.346129D+00
  0.905900D+00  0.393780D-01
  0.364300D+00 -0.898300D-02
  0.128500D+00  0.238500D-02
   s    10 1.00
  0.823600D+04 -0.113000D-03
  0.123500D+04 -0.878000D-03
  0.280800D+03 -0.454000D-02
  0.792700D+02 -0.181330D-01
  0.255900D+02 -0.557600D-01
  0.899700D+01 -0.126895D+00
  0.331900D+01 -0.170352D+00
  0.905900D+00  0.140382D+00
  0.364300D+00  0.598684D+00
  0.128500D+00  0.395389D+00
   s     1 1.00
  0.905900D+00  0.100000D+01
   s     1 1.00
  0.364300D+00  0.100000D+01
   p     5 1.00
  0.187100D+02  0.140310D-01
  0.413300D+01  0.868660D-01
  0.120000D+01  0.290216D+00
  0.382700D+00  0.501008D+00
  0.120900D+00  0.343406D+00
   p     1 1.00
  0.382700D+00  0.100000D+01
   p     1 1.00
  0.120900D+00  0.100000D+01
   d     1 1.00
  0.109700D+01  0.100000D+01
   d     1 1.00
  0.318000D+00  0.100000D+01
   f     1 1.00
  0.761000D+00  0.100000D+01
  
  7  0
   s    10 1.00
  0.823600D+04  0.531000D-03
  0.123500D+04  0.410800D-02
  0.280800D+03  0.210870D-01
  0.792700D+02  0.818530D-01
  0.255900D+02  0.234817D+00
  0.899700D+01  0.434401D+00
  0.331900D+01  0.346129D+00
  0.905900D+00  0.393780D-01
  0.364300D+00 -0.898300D-02
  0.128500D+00  0.238500D-02
   s    10 1.00
  0.823600D+04 -0.113000D-03
  0.123500D+04 -0.878000D-03
  0.280800D+03 -0.454000D-02
  0.792700D+02 -0.181330D-01
  0.255900D+02 -0.557600D-01
  0.899700D+01 -0.126895D+00
  0.331900D+01 -0.170352D+00
  0.905900D+00  0.140382D+00
  0.364300D+00  0.598684D+00
  0.128500D+00  0.395389D+00
   s     1 1.00
  0.905900D+00  0.100000D+01
   s     1 1.00
  0.364300D+00  0.100000D+01
   p     5 1.00
  0.187100D+02  0.140310D-01
  0.413300D+01  0.868660D-01
  0.120000D+01  0.290216D+00
  0.382700D+00  0.501008D+00
  0.120900D+00  0.343406D+00
   p     1 1.00
  0.382700D+00  0.100000D+01
   p     1 1.00
  0.120900D+00  0.100000D+01
   d     1 1.00
  0.109700D+01  0.100000D+01
   d     1 1.00
  0.318000D+00  0.100000D+01
   f     1 1.00
  0.761000D+00  0.100000D+01
  
  8  0
   s     4 1.00
  0.130100D+02  0.196850D-01
  0.196200D+01  0.137977D+00
  0.444600D+00  0.478148D+00
  0.122000D+00  0.501240D+00
   s     1 1.00
  0.122000D+00  0.100000D+01
   p     1 1.00
  0.727000D+00  0.100000D+01
  
  9  0
   s     4 1.00
  0.130100D+02  0.196850D-01
  0.196200D+01  0.137977D+00
  0.444600D+00  0.478148D+00
  0.122000D+00  0.501240D+00
   s     1 1.00
  0.122000D+00  0.100000D+01
   p     1 1.00
  0.727000D+00  0.100000D+01
  
 10  0
   s     4 1.00
  0.130100D+02  0.196850D-01
  0.196200D+01  0.137977D+00
  0.444600D+00  0.478148D+00
  0.122000D+00  0.501240D+00
   s     1 1.00
  0.122000D+00  0.100000D+01
   p     1 1.00
  0.727000D+00  0.100000D+01
  
 11  0
   s     4 1.00
  0.130100D+02  0.196850D-01
  0.196200D+01  0.137977D+00
  0.444600D+00  0.478148D+00
  0.122000D+00  0.501240D+00
   s     1 1.00
  0.122000D+00  0.100000D+01
   p     1 1.00
  0.727000D+00  0.100000D+01
  
 12  0
   s     4 1.00
  0.130100D+02  0.196850D-01
  0.196200D+01  0.137977D+00
  0.444600D+00  0.478148D+00
  0.122000D+00  0.501240D+00
   s     1 1.00
  0.122000D+00  0.100000D+01
   p     1 1.00
  0.727000D+00  0.100000D+01
  
 13  0
   s     4 1.00
  0.130100D+02  0.196850D-01
  0.196200D+01  0.137977D+00
  0.444600D+00  0.478148D+00
  0.122000D+00  0.501240D+00
   s     1 1.00
  0.122000D+00  0.100000D+01
   p     1 1.00
  0.727000D+00  0.100000D+01
  
 14  0
   s     4 1.00
  0.130100D+02  0.196850D-01
  0.196200D+01  0.137977D+00
  0.444600D+00  0.478148D+00
  0.122000D+00  0.501240D+00
   s     1 1.00
  0.122000D+00  0.100000D+01
   p     1 1.00
  0.727000D+00  0.100000D+01
  
[MO]
 Sym= __1_A'_
 Ene=  0.000000000000000E+000
 Spin= Alpha
 Occup=    2.00000000000000     
                     1  1.100159365053038E-004
                     2  0.998346097323443     
                     3 -2.659819648916263E-003
                     4  1.838065634757139E-003
                     5  6.559738783761658E-003
                     6  2.767748991008441E-003
                     7  6.001512300039543E-003
                     8  0.000000000000000E+000
                     9 -7.017945316262651E-004
                    10 -7.430235190678742E-004
                    11  0.000000000000000E+000
                    12 -2.472904795974008E-003
                    13 -1.952230376719748E-003
                    14  0.000000000000000E+000
                    15 -3.084695992966338E-005
                    16  0.000000000000000E+000
                    17  0.000000000000000E+000
                    18 -1.549398840792128E-004
                    19 -6.391805695543238E-005
                    20  8.910415111503039E-005
                    21  0.000000000000000E+000
                    22  0.000000000000000E+000
                    23 -2.277828334748116E-004
                    24  5.020677259072243E-004
                    25  0.000000000000000E+000
                    26 -4.754662582437642E-006
                    27 -5.035344927542514E-005
                    28  0.000000000000000E+000
                    29  0.000000000000000E+000
                    30  3.337055435018077E-005
                    31 -1.110011700129529E-004
                    32 -3.790561223371029E-004
                    33  1.796276085240426E-004
                    34  3.278474394361850E-004
                    35 -1.226375059776722E-004
                    36 -3.553501233008479E-005
                    37 -2.701289859122484E-003
                    38  0.000000000000000E+000
                    39  3.713441672012735E-004
                    40  2.263333988650332E-004
                    41  0.000000000000000E+000
                    42 -2.185101306568029E-003
                    43  5.072076998017533E-003
                    44  0.000000000000000E+000
                    45  5.065916131090153E-006
                    46  0.000000000000000E+000
                    47  0.000000000000000E+000
                    48 -1.316721266738305E-004
                    49  1.399252865033642E-005
                    50 -1.969252928664776E-004
                    51  0.000000000000000E+000
                    52  0.000000000000000E+000
                    53  2.226382802388420E-005
                    54  7.828151547628606E-004
                    55  0.000000000000000E+000
                    56 -2.247658146360668E-006
                    57 -7.364955672494765E-005
                    58  0.000000000000000E+000
                    59  0.000000000000000E+000
                    60  1.695051940761294E-005
                    61 -1.280497350354138E-004
                    62 -5.554555262315785E-004
                    63 -2.216005813298714E-003
                    64 -8.794639779110159E-005
                    65  2.262948595894564E-003
                    66 -5.029368451712456E-004
                    67  1.396619611364772E-004
                    68  0.000000000000000E+000
                    69  3.824348302535783E-004
                    70  9.053441975130049E-004
                    71  0.000000000000000E+000
                    72 -1.794313709750008E-003
                    73  6.857805859870475E-004
                    74  0.000000000000000E+000
                    75 -4.456537455459828E-005
                    76  0.000000000000000E+000
                    77  0.000000000000000E+000
                    78 -6.311378508552468E-005
                    79 -2.324196166163984E-005
                    80 -1.340051350019989E-004
                    81  0.000000000000000E+000
                    82  0.000000000000000E+000
                    83  3.159459032941600E-005
                    84  1.234016480935084E-005
                    85  0.000000000000000E+000
                    86  9.714248155290810E-006
                    87 -4.665896660942662E-005
                    88  0.000000000000000E+000
                    89  0.000000000000000E+000
                    90 -3.013926961368820E-005
                    91 -1.548064156636666E-004
                    92 -1.782861268236788E-004
                    93 -6.569923795864527E-004
                    94  1.614579322288821E-004
                    95 -7.876799481382195E-005
                    96  2.206110774915382E-004
                    97  2.804767000938899E-005
                    98  0.000000000000000E+000
                    99  3.388193714615256E-004
                   100  3.852290852849324E-004
                   101  0.000000000000000E+000
                   102  6.354564673467806E-004
                   103 -1.773888312640879E-003
                   104  0.000000000000000E+000
                   105 -1.149268612709489E-005
                   106  0.000000000000000E+000
                   107  0.000000000000000E+000
                   108 -4.498750348763602E-005
                   109 -1.512999560773559E-005
                   110  8.580368510079176E-005
                   111  0.000000000000000E+000
                   112  0.000000000000000E+000
                   113 -1.657332036892268E-004
                   114  8.063498095694445E-005
                   115  0.000000000000000E+000
                   116 -1.931693364279827E-005
                   117 -2.258094131512846E-005
                   118  0.000000000000000E+000
                   119  0.000000000000000E+000
                   120 -1.302019874123944E-005
                   121 -3.635419571186656E-005
                   122 -2.459386669327070E-004
                   123 -6.005074998840769E-004
                   124  1.718786521368113E-004
                   125  3.088944554975221E-004
                   126 -2.816270558244808E-005
                   127 -3.355885896929242E-004
                   128  0.000000000000000E+000
                   129  2.310935506841988E-004
                   130  6.630971652236522E-004
                   131  0.000000000000000E+000
                   132  4.185568720300918E-004
                   133  2.043260861644589E-003
                   134  0.000000000000000E+000
                   135  1.418780980905196E-005
                   136  0.000000000000000E+000
                   137  0.000000000000000E+000
                   138  4.664369108913562E-005
                   139 -3.745739128548274E-007
                   140  2.068968896714801E-004
                   141  0.000000000000000E+000
                   142  0.000000000000000E+000
                   143  4.018303079583050E-004
                   144  2.414168282055922E-004
                   145  0.000000000000000E+000
                   146 -1.142741249902545E-005
                   147 -6.515706607606331E-005
                   148  0.000000000000000E+000
                   149  0.000000000000000E+000
                   150 -1.621211162132256E-005
                   151 -5.377279909977418E-005
                   152 -1.331335431789551E-004
                   153 -3.611946250403259E-004
                   154  5.491631884480094E-005
                   155  1.946045877017350E-004
                   156  8.129417557090034E-006
                   157 -9.279612999780805E-005
                   158  0.000000000000000E+000
                   159  1.191684925928554E-005
                   160  5.052186199397421E-005
                   161  0.000000000000000E+000
                   162  7.552565419546446E-004
                   163 -3.846875366024780E-004
                   164  0.000000000000000E+000
                   165  1.689685127188928E-006
                   166  0.000000000000000E+000
                   167  0.000000000000000E+000
                   168  2.126594844036092E-006
                   169  9.995389350060835E-006
                   170  1.047393788429018E-004
                   171  0.000000000000000E+000
                   172  0.000000000000000E+000
                   173  4.598146298013994E-005
                   174  3.065153436691592E-005
                   175  0.000000000000000E+000
                   176  3.437761514142448E-006
                   177 -1.361683495858014E-005
                   178  0.000000000000000E+000
                   179  0.000000000000000E+000
                   180 -2.315244826416822E-005
                   181 -2.836438814746730E-005
                   182 -1.382192632289756E-004
                   183 -4.034721785548211E-004
                   184  3.258816282906746E-005
                   185  2.020279834863500E-004
                   186 -4.861894250945301E-005
                   187 -6.418130543574259E-005
                   188  0.000000000000000E+000
                   189  2.684812256214499E-004
                   190  1.238221558952544E-004
                   191  0.000000000000000E+000
                   192  1.378801012261024E-003
                   193 -3.134559418266946E-004
                   194  0.000000000000000E+000
                   195  1.350835831962170E-006
                   196  0.000000000000000E+000
                   197  0.000000000000000E+000
                   198 -3.826667291955186E-006
                   199  4.359739311685460E-006
                   200 -9.113473801078640E-006
                   201  0.000000000000000E+000
                   202  0.000000000000000E+000
                   203 -7.126738902932675E-005
                   204 -2.081164387367433E-004
                   205  0.000000000000000E+000
                   206 -1.005917194484464E-005
                   207 -4.223547425273981E-006
                   208  0.000000000000000E+000
                   209  0.000000000000000E+000
                   210  8.063428465207972E-006
                   211 -4.389847427638286E-006
                   212 -5.202704359442159E-005
                   213  9.822891984805079E-005
                   214  1.986826485336000E-005
                   215  2.314642973208463E-005
                   216  0.000000000000000E+000
                   217 -8.675724580184459E-004
                   218 -6.352311959628647E-004
                   219 -2.442411773650561E-004
                   220  5.918787871575163E-005
                   221  0.000000000000000E+000
                   222 -2.129549085147481E-004
                   223 -6.080903925850301E-004
                   224  2.455042472263393E-005
                   225 -5.953829202358851E-005
                   226  0.000000000000000E+000
                   227  6.409913133599088E-005
                   228 -6.731645572950454E-004
                   229 -4.469101839325237E-005
                   230 -1.348382937925476E-005
                   231  0.000000000000000E+000
                   232  5.680435202672889E-006
                   233 -5.034267577493004E-004
                   234  1.235584924289847E-005
                   235 -4.011059780770945E-006
                   236  0.000000000000000E+000
                   237  3.228373138215648E-006
                   238 -3.659464929810123E-004
                   239 -6.495868304302433E-006
                   240 -2.081799370821562E-006
                   241  0.000000000000000E+000
                   242 -6.261297324817549E-005
                   243  9.329209332479258E-005
                   244 -1.962013992666744E-007
                   245  3.091372292350517E-005
                   246  0.000000000000000E+000
 Sym= __2_A'_
 Ene=  0.000000000000000E+000
 Spin= Alpha
 Occup=    2.00000000000000     
                     1  4.243205191800514E-005
                     2  2.974232611898848E-004
                     3 -3.588533688428235E-003
                     4 -1.025491000088895E-004
                     5 -1.433865103928115E-003
                     6  8.645925262767839E-004
                     7 -3.728274183976210E-003
                     8  0.000000000000000E+000
                     9  7.848159687713394E-006
                    10  9.906362398486487E-005
                    11  0.000000000000000E+000
                    12 -5.843572246563168E-007
                    13  2.689887628042855E-004
                    14  0.000000000000000E+000
                    15 -1.925966172895407E-005
                    16  0.000000000000000E+000
                    17  0.000000000000000E+000
                    18  7.358163650584628E-005
                    19 -2.771689990406806E-005
                    20  1.399534550432094E-004
                    21  0.000000000000000E+000
                    22  0.000000000000000E+000
                    23 -4.637885369750000E-005
                    24  1.469956147015480E-004
                    25  0.000000000000000E+000
                    26  1.548279410843746E-005
                    27 -8.247124049452885E-005
                    28  0.000000000000000E+000
                    29  0.000000000000000E+000
                    30  6.486149775682388E-005
                    31 -1.376909438135014E-004
                    32  -1.00078609425256     
                    33 -9.330942611535237E-003
                    34 -2.830246952790166E-003
                    35  8.151502129737550E-003
                    36  2.748920951109319E-004
                    37  4.297835082100919E-003
                    38  0.000000000000000E+000
                    39  2.313202659704948E-004
                    40 -3.253701321016862E-004
                    41  0.000000000000000E+000
                    42  1.176268677821487E-004
                    43 -4.416766887558040E-003
                    44  0.000000000000000E+000
                    45  5.188834468757836E-004
                    46  0.000000000000000E+000
                    47  0.000000000000000E+000
                    48  2.222536117608058E-004
                    49 -3.645828114966528E-005
                    50 -5.544824048023797E-004
                    51  0.000000000000000E+000
                    52  0.000000000000000E+000
                    53  6.602967451604684E-004
                    54  4.864210508909198E-004
                    55  0.000000000000000E+000
                    56 -1.991193857731488E-005
                    57 -1.041064603980532E-004
                    58  0.000000000000000E+000
                    59  0.000000000000000E+000
                    60  2.412387425871764E-005
                    61 -3.791107799734055E-004
                    62 -1.396752237160222E-002
                    63  2.234838333240379E-003
                    64  2.122264511340287E-004
                    65 -2.659860044722319E-003
                    66  1.179287467740477E-004
                    67 -3.201142032380838E-004
                    68  0.000000000000000E+000
                    69 -4.675523980228702E-004
                    70 -1.781771726876705E-004
                    71  0.000000000000000E+000
                    72  2.130354463863505E-003
                    73 -2.438383128402076E-004
                    74  0.000000000000000E+000
                    75 -3.762489945626797E-005
                    76  0.000000000000000E+000
                    77  0.000000000000000E+000
                    78  2.650042642096362E-005
                    79 -3.998791668375527E-006
                    80  4.223317985241361E-004
                    81  0.000000000000000E+000
                    82  0.000000000000000E+000
                    83  6.966212227934498E-004
                    84  2.488539161139898E-004
                    85  0.000000000000000E+000
                    86 -3.150128430256882E-005
                    87  5.812055546357831E-005
                    88  0.000000000000000E+000
                    89  0.000000000000000E+000
                    90 -5.713997295637776E-005
                    91 -1.493702370623519E-004
                    92 -1.773239540570410E-002
                    93  2.314846518576791E-003
                    94  2.951171499423092E-004
                    95 -3.224258510808989E-003
                    96 -5.057508269736206E-004
                    97 -5.077997109289520E-004
                    98  0.000000000000000E+000
                    99  9.913936868019588E-004
                   100  3.162667194250546E-005
                   101  0.000000000000000E+000
                   102 -1.749109231851465E-003
                   103  4.221991130034943E-005
                   104  0.000000000000000E+000
                   105 -2.211684300988655E-005
                   106  0.000000000000000E+000
                   107  0.000000000000000E+000
                   108  2.240538254900052E-005
                   109 -4.990485702994541E-008
                   110  4.147576728401996E-004
                   111  0.000000000000000E+000
                   112  0.000000000000000E+000
                   113  3.891632972395964E-004
                   114 -2.299913661123185E-004
                   115  0.000000000000000E+000
                   116  3.296729527965666E-005
                   117  7.516326368379943E-005
                   118  0.000000000000000E+000
                   119  0.000000000000000E+000
                   120  3.695744520532861E-006
                   121 -1.375182109869163E-004
                   122 -1.200223901221705E-004
                   123  5.824714530554470E-004
                   124 -2.293834284486529E-004
                   125  1.219244054654211E-004
                   126 -9.953181628203868E-007
                   127  5.517325145536602E-004
                   128  0.000000000000000E+000
                   129  8.152096554510553E-005
                   130 -6.370243249518347E-004
                   131  0.000000000000000E+000
                   132 -3.526775165690964E-004
                   133 -9.780313089493438E-004
                   134  0.000000000000000E+000
                   135 -1.783193832884889E-005
                   136  0.000000000000000E+000
                   137  0.000000000000000E+000
                   138  9.339449363225564E-007
                   139 -4.834143702973768E-005
                   140 -1.265961338878981E-004
                   141  0.000000000000000E+000
                   142  0.000000000000000E+000
                   143 -2.640130132726490E-004
                   144  8.967241016901443E-005
                   145  0.000000000000000E+000
                   146 -9.792633507063614E-006
                   147  3.566226361365222E-005
                   148  0.000000000000000E+000
                   149  0.000000000000000E+000
                   150  4.512119230071268E-005
                   151 -4.069114640094612E-005
                   152 -4.884607624866061E-004
                   153  5.280455374514966E-004
                   154 -2.281326804970024E-004
                   155  2.588797394459167E-005
                   156  5.979397609485873E-005
                   157  6.291042132225633E-004
                   158  0.000000000000000E+000
                   159 -1.431395194034562E-004
                   160 -5.529065709152648E-004