[Molden Format]
[Atoms] AU
  N     1    7     0.0364027500   -4.2533596700    0.0000000000        
  C     2    6     0.1375995500   -1.7109742600   -0.0000000100        
  C     3    6    -2.2056350300   -0.3594812200    0.0000000100        
  C     4    6     2.4220648200   -0.2490576500   -0.0000000300        
  C     5    6    -2.2317425700    2.2213030700   -0.0000000100        
  C     6    6     2.3473557600    2.3263014000    0.0000000000        
  C     7    6     0.0325945800    3.5930318400    0.0000000000        
  H     8    1    -4.2893100900   -7.6180088200    0.0000000200        
  H     9    1     1.8496456200   -4.9751596300    0.0000000000        
  H    10    1    -3.9246478800   -1.4298107700    0.0000000100        
  H    11    1     4.2002260100   -1.2284005400   -0.0000000200        
  H    12    1    -3.9993430400    3.2180974500   -0.0000000300        
  H    13    1     4.0707249800    3.3981636300    0.0000000300        
  H    14    1    -0.0131676700    5.6206795600    0.0000000000        
[5D]
[7F]
[GTO]
  1  0
   s    12 1.00
  0.114200D+05  0.172695D-04
  0.171200D+04  0.134411D-03
  0.389300D+03  0.694561D-03
  0.110000D+03  0.278531D-02
  0.355700D+02  0.863457D-02
  0.125400D+02  0.199805D-01
  0.464400D+01  0.262908D-01
  0.129300D+01 -0.243845D-01
  0.511800D+00 -0.924934D-01
  0.178700D+00 -0.339683D+00
  0.246240D-01  0.345111D+00
  0.112530D-01  0.752750D+00
   s    10 1.00
  0.114200D+05  0.523000D-03
  0.171200D+04  0.404500D-02
  0.389300D+03  0.207750D-01
  0.110000D+03  0.807269D-01
  0.355700D+02  0.233074D+00
  0.125400D+02  0.433501D+00
  0.464400D+01  0.347472D+00
  0.129300D+01  0.412620D-01
  0.511800D+00 -0.850799D-02
  0.178700D+00  0.238400D-02
   s    10 1.00
  0.114200D+05 -0.115000D-03
  0.171200D+04 -0.895000D-03
  0.389300D+03 -0.462400D-02
  0.110000D+03 -0.185280D-01
  0.355700D+02 -0.573390D-01
  0.125400D+02 -0.132076D+00
  0.464400D+01 -0.172510D+00
  0.129300D+01  0.151814D+00
  0.511800D+00  0.599944D+00
  0.178700D+00  0.387462D+00
   s     1 1.00
  0.129300D+01  0.100000D+01
   s     1 1.00
  0.178700D+00  0.100000D+01
   p     5 1.00
  0.266300D+02  0.146700D-01
  0.594800D+01  0.917640D-01
  0.174200D+01  0.298683D+00
  0.555000D+00  0.498487D+00
  0.172500D+00  0.337023D+00
   p     1 1.00
  0.174200D+01  0.100000D+01
   p     1 1.00
  0.555000D+00  0.100000D+01
   d     1 1.00
  0.165400D+01  0.100000D+01
   d     1 1.00
  0.469000D+00  0.100000D+01
   f     1 1.00
  0.109300D+01  0.100000D+01
  
  2  0
   s    10 1.00
  0.823600D+04  0.531000D-03
  0.123500D+04  0.410800D-02
  0.280800D+03  0.210870D-01
  0.792700D+02  0.818530D-01
  0.255900D+02  0.234817D+00
  0.899700D+01  0.434401D+00
  0.331900D+01  0.346129D+00
  0.905900D+00  0.393780D-01
  0.364300D+00 -0.898300D-02
  0.128500D+00  0.238500D-02
   s    10 1.00
  0.823600D+04 -0.113000D-03
  0.123500D+04 -0.878000D-03
  0.280800D+03 -0.454000D-02
  0.792700D+02 -0.181330D-01
  0.255900D+02 -0.557600D-01
  0.899700D+01 -0.126895D+00
  0.331900D+01 -0.170352D+00
  0.905900D+00  0.140382D+00
  0.364300D+00  0.598684D+00
  0.128500D+00  0.395389D+00
   s     1 1.00
  0.905900D+00  0.100000D+01
   s     1 1.00
  0.364300D+00  0.100000D+01
   p     5 1.00
  0.187100D+02  0.140310D-01
  0.413300D+01  0.868660D-01
  0.120000D+01  0.290216D+00
  0.382700D+00  0.501008D+00
  0.120900D+00  0.343406D+00
   p     1 1.00
  0.382700D+00  0.100000D+01
   p     1 1.00
  0.120900D+00  0.100000D+01
   d     1 1.00
  0.109700D+01  0.100000D+01
   d     1 1.00
  0.318000D+00  0.100000D+01
   f     1 1.00
  0.761000D+00  0.100000D+01
  
  3  0
   s    10 1.00
  0.823600D+04  0.531000D-03
  0.123500D+04  0.410800D-02
  0.280800D+03  0.210870D-01
  0.792700D+02  0.818530D-01
  0.255900D+02  0.234817D+00
  0.899700D+01  0.434401D+00
  0.331900D+01  0.346129D+00
  0.905900D+00  0.393780D-01
  0.364300D+00 -0.898300D-02
  0.128500D+00  0.238500D-02
   s    10 1.00
  0.823600D+04 -0.113000D-03
  0.123500D+04 -0.878000D-03
  0.280800D+03 -0.454000D-02
  0.792700D+02 -0.181330D-01
  0.255900D+02 -0.557600D-01
  0.899700D+01 -0.126895D+00
  0.331900D+01 -0.170352D+00
  0.905900D+00  0.140382D+00
  0.364300D+00  0.598684D+00
  0.128500D+00  0.395389D+00
   s     1 1.00
  0.905900D+00  0.100000D+01
   s     1 1.00
  0.364300D+00  0.100000D+01
   p     5 1.00
  0.187100D+02  0.140310D-01
  0.413300D+01  0.868660D-01
  0.120000D+01  0.290216D+00
  0.382700D+00  0.501008D+00
  0.120900D+00  0.343406D+00
   p     1 1.00
  0.382700D+00  0.100000D+01
   p     1 1.00
  0.120900D+00  0.100000D+01
   d     1 1.00
  0.109700D+01  0.100000D+01
   d     1 1.00
  0.318000D+00  0.100000D+01
   f     1 1.00
  0.761000D+00  0.100000D+01
  
  4  0
   s    10 1.00
  0.823600D+04  0.531000D-03
  0.123500D+04  0.410800D-02
  0.280800D+03  0.210870D-01
  0.792700D+02  0.818530D-01
  0.255900D+02  0.234817D+00
  0.899700D+01  0.434401D+00
  0.331900D+01  0.346129D+00
  0.905900D+00  0.393780D-01
  0.364300D+00 -0.898300D-02
  0.128500D+00  0.238500D-02
   s    10 1.00
  0.823600D+04 -0.113000D-03
  0.123500D+04 -0.878000D-03
  0.280800D+03 -0.454000D-02
  0.792700D+02 -0.181330D-01
  0.255900D+02 -0.557600D-01
  0.899700D+01 -0.126895D+00
  0.331900D+01 -0.170352D+00
  0.905900D+00  0.140382D+00
  0.364300D+00  0.598684D+00
  0.128500D+00  0.395389D+00
   s     1 1.00
  0.905900D+00  0.100000D+01
   s     1 1.00
  0.364300D+00  0.100000D+01
   p     5 1.00
  0.187100D+02  0.140310D-01
  0.413300D+01  0.868660D-01
  0.120000D+01  0.290216D+00
  0.382700D+00  0.501008D+00
  0.120900D+00  0.343406D+00
   p     1 1.00
  0.382700D+00  0.100000D+01
   p     1 1.00
  0.120900D+00  0.100000D+01
   d     1 1.00
  0.109700D+01  0.100000D+01
   d     1 1.00
  0.318000D+00  0.100000D+01
   f     1 1.00
  0.761000D+00  0.100000D+01
  
  5  0
   s    10 1.00
  0.823600D+04  0.531000D-03
  0.123500D+04  0.410800D-02
  0.280800D+03  0.210870D-01
  0.792700D+02  0.818530D-01
  0.255900D+02  0.234817D+00
  0.899700D+01  0.434401D+00
  0.331900D+01  0.346129D+00
  0.905900D+00  0.393780D-01
  0.364300D+00 -0.898300D-02
  0.128500D+00  0.238500D-02
   s    10 1.00
  0.823600D+04 -0.113000D-03
  0.123500D+04 -0.878000D-03
  0.280800D+03 -0.454000D-02
  0.792700D+02 -0.181330D-01
  0.255900D+02 -0.557600D-01
  0.899700D+01 -0.126895D+00
  0.331900D+01 -0.170352D+00
  0.905900D+00  0.140382D+00
  0.364300D+00  0.598684D+00
  0.128500D+00  0.395389D+00
   s     1 1.00
  0.905900D+00  0.100000D+01
   s     1 1.00
  0.364300D+00  0.100000D+01
   p     5 1.00
  0.187100D+02  0.140310D-01
  0.413300D+01  0.868660D-01
  0.120000D+01  0.290216D+00
  0.382700D+00  0.501008D+00
  0.120900D+00  0.343406D+00
   p     1 1.00
  0.382700D+00  0.100000D+01
   p     1 1.00
  0.120900D+00  0.100000D+01
   d     1 1.00
  0.109700D+01  0.100000D+01
   d     1 1.00
  0.318000D+00  0.100000D+01
   f     1 1.00
  0.761000D+00  0.100000D+01
  
  6  0
   s    10 1.00
  0.823600D+04  0.531000D-03
  0.123500D+04  0.410800D-02
  0.280800D+03  0.210870D-01
  0.792700D+02  0.818530D-01
  0.255900D+02  0.234817D+00
  0.899700D+01  0.434401D+00
  0.331900D+01  0.346129D+00
  0.905900D+00  0.393780D-01
  0.364300D+00 -0.898300D-02
  0.128500D+00  0.238500D-02
   s    10 1.00
  0.823600D+04 -0.113000D-03
  0.123500D+04 -0.878000D-03
  0.280800D+03 -0.454000D-02
  0.792700D+02 -0.181330D-01
  0.255900D+02 -0.557600D-01
  0.899700D+01 -0.126895D+00
  0.331900D+01 -0.170352D+00
  0.905900D+00  0.140382D+00
  0.364300D+00  0.598684D+00
  0.128500D+00  0.395389D+00
   s     1 1.00
  0.905900D+00  0.100000D+01
   s     1 1.00
  0.364300D+00  0.100000D+01
   p     5 1.00
  0.187100D+02  0.140310D-01
  0.413300D+01  0.868660D-01
  0.120000D+01  0.290216D+00
  0.382700D+00  0.501008D+00
  0.120900D+00  0.343406D+00
   p     1 1.00
  0.382700D+00  0.100000D+01
   p     1 1.00
  0.120900D+00  0.100000D+01
   d     1 1.00
  0.109700D+01  0.100000D+01
   d     1 1.00
  0.318000D+00  0.100000D+01
   f     1 1.00
  0.761000D+00  0.100000D+01
  
  7  0
   s    10 1.00
  0.823600D+04  0.531000D-03
  0.123500D+04  0.410800D-02
  0.280800D+03  0.210870D-01
  0.792700D+02  0.818530D-01
  0.255900D+02  0.234817D+00
  0.899700D+01  0.434401D+00
  0.331900D+01  0.346129D+00
  0.905900D+00  0.393780D-01
  0.364300D+00 -0.898300D-02
  0.128500D+00  0.238500D-02
   s    10 1.00
  0.823600D+04 -0.113000D-03
  0.123500D+04 -0.878000D-03
  0.280800D+03 -0.454000D-02
  0.792700D+02 -0.181330D-01
  0.255900D+02 -0.557600D-01
  0.899700D+01 -0.126895D+00
  0.331900D+01 -0.170352D+00
  0.905900D+00  0.140382D+00
  0.364300D+00  0.598684D+00
  0.128500D+00  0.395389D+00
   s     1 1.00
  0.905900D+00  0.100000D+01
   s     1 1.00
  0.364300D+00  0.100000D+01
   p     5 1.00
  0.187100D+02  0.140310D-01
  0.413300D+01  0.868660D-01
  0.120000D+01  0.290216D+00
  0.382700D+00  0.501008D+00
  0.120900D+00  0.343406D+00
   p     1 1.00
  0.382700D+00  0.100000D+01
   p     1 1.00
  0.120900D+00  0.100000D+01
   d     1 1.00
  0.109700D+01  0.100000D+01
   d     1 1.00
  0.318000D+00  0.100000D+01
   f     1 1.00
  0.761000D+00  0.100000D+01
  
  8  0
   s     4 1.00
  0.130100D+02  0.196850D-01
  0.196200D+01  0.137977D+00
  0.444600D+00  0.478148D+00
  0.122000D+00  0.501240D+00
   s     1 1.00
  0.122000D+00  0.100000D+01
   p     1 1.00
  0.727000D+00  0.100000D+01
  
  9  0
   s     4 1.00
  0.130100D+02  0.196850D-01
  0.196200D+01  0.137977D+00
  0.444600D+00  0.478148D+00
  0.122000D+00  0.501240D+00
   s     1 1.00
  0.122000D+00  0.100000D+01
   p     1 1.00
  0.727000D+00  0.100000D+01
  
 10  0
   s     4 1.00
  0.130100D+02  0.196850D-01
  0.196200D+01  0.137977D+00
  0.444600D+00  0.478148D+00
  0.122000D+00  0.501240D+00
   s     1 1.00
  0.122000D+00  0.100000D+01
   p     1 1.00
  0.727000D+00  0.100000D+01
  
 11  0
   s     4 1.00
  0.130100D+02  0.196850D-01
  0.196200D+01  0.137977D+00
  0.444600D+00  0.478148D+00
  0.122000D+00  0.501240D+00
   s     1 1.00
  0.122000D+00  0.100000D+01
   p     1 1.00
  0.727000D+00  0.100000D+01
  
 12  0
   s     4 1.00
  0.130100D+02  0.196850D-01
  0.196200D+01  0.137977D+00
  0.444600D+00  0.478148D+00
  0.122000D+00  0.501240D+00
   s     1 1.00
  0.122000D+00  0.100000D+01
   p     1 1.00
  0.727000D+00  0.100000D+01
  
 13  0
   s     4 1.00
  0.130100D+02  0.196850D-01
  0.196200D+01  0.137977D+00
  0.444600D+00  0.478148D+00
  0.122000D+00  0.501240D+00
   s     1 1.00
  0.122000D+00  0.100000D+01
   p     1 1.00
  0.727000D+00  0.100000D+01
  
 14  0
   s     4 1.00
  0.130100D+02  0.196850D-01
  0.196200D+01  0.137977D+00
  0.444600D+00  0.478148D+00
  0.122000D+00  0.501240D+00
   s     1 1.00
  0.122000D+00  0.100000D+01
   p     1 1.00
  0.727000D+00  0.100000D+01
  
[MO]
 Sym= __1_A'_
 Ene=   1.00000000000000     
 Spin= Alpha
 Occup=    1.00000000000000     
                     1  1.100159902644736E-004
                     2  0.998346097155473     
                     3 -2.659816535776548E-003
                     4  1.838065583225595E-003
                     5  6.559738413762248E-003
                     6  2.767750903903515E-003
                     7  6.001512785651379E-003
                     8  0.000000000000000E+000
                     9 -7.017944414657864E-004
                    10 -7.430235097824817E-004
                    11  0.000000000000000E+000
                    12 -2.472904844587007E-003
                    13 -1.952230216980487E-003
                    14  0.000000000000000E+000
                    15 -3.084700757541059E-005
                    16  0.000000000000000E+000
                    17  0.000000000000000E+000
                    18 -1.549398840904856E-004
                    19 -6.391803673373294E-005
                    20  8.910403882423875E-005
                    21  0.000000000000000E+000
                    22  0.000000000000000E+000
                    23 -2.277829913678958E-004
                    24  5.020679640830104E-004
                    25  0.000000000000000E+000
                    26 -4.754686876442097E-006
                    27 -5.035348309260971E-005
                    28  0.000000000000000E+000
                    29  0.000000000000000E+000
                    30  3.337058803906482E-005
                    31 -1.110012065153710E-004
                    32 -3.790613611256216E-004
                    33  1.796343546428136E-004
                    34  3.278474052807103E-004
                    35 -1.226381980679202E-004
                    36 -3.552856708891493E-005
                    37 -2.701289665327721E-003
                    38  0.000000000000000E+000
                    39  3.713439796831067E-004
                    40  2.263337907549260E-004
                    41  0.000000000000000E+000
                    42 -2.185103581035186E-003
                    43  5.072077842629209E-003
                    44  0.000000000000000E+000
                    45  5.065825339266799E-006
                    46  0.000000000000000E+000
                    47  0.000000000000000E+000
                    48 -1.316719877324644E-004
                    49  1.399268585843383E-005
                    50 -1.969255452498728E-004
                    51  0.000000000000000E+000
                    52  0.000000000000000E+000
                    53  2.226401103843894E-005
                    54  7.828155044615991E-004
                    55  0.000000000000000E+000
                    56 -2.247719699778279E-006
                    57 -7.364957220480686E-005
                    58  0.000000000000000E+000
                    59  0.000000000000000E+000
                    60  1.695054200259552E-005
                    61 -1.280496390002524E-004
                    62 -5.554554188009240E-004
                    63 -2.216006020165927E-003
                    64 -8.794634943228785E-005
                    65  2.262948734798790E-003
                    66 -5.029410469959563E-004
                    67  1.396581290893709E-004
                    68  0.000000000000000E+000
                    69  3.824353013224507E-004
                    70  9.053448816509724E-004
                    71  0.000000000000000E+000
                    72 -1.794314226476411E-003
                    73  6.857820533291157E-004
                    74  0.000000000000000E+000
                    75 -4.456536977580110E-005
                    76  0.000000000000000E+000
                    77  0.000000000000000E+000
                    78 -6.311365522014958E-005
                    79 -2.324182699017502E-005
                    80 -1.340050676080234E-004
                    81  0.000000000000000E+000
                    82  0.000000000000000E+000
                    83  3.159457533305386E-005
                    84  1.234001744343299E-005
                    85  0.000000000000000E+000
                    86  9.714268170410512E-006
                    87 -4.665895250418138E-005
                    88  0.000000000000000E+000
                    89  0.000000000000000E+000
                    90 -3.013928301869014E-005
                    91 -1.548064005998097E-004
                    92 -1.782862517223671E-004
                    93 -6.569885607247984E-004
                    94  1.614579255162033E-004
                    95 -7.876839539918101E-005
                    96  2.206085765364059E-004
                    97  2.803877094174241E-005
                    98  0.000000000000000E+000
                    99  3.388194860397557E-004
                   100  3.852300207762846E-004
                   101  0.000000000000000E+000
                   102  6.354570607214778E-004
                   103 -1.773886681353789E-003
                   104  0.000000000000000E+000
                   105 -1.149274091220664E-005
                   106  0.000000000000000E+000
                   107  0.000000000000000E+000
                   108 -4.498729903295522E-005
                   109 -1.512983193360496E-005
                   110  8.580362243322861E-005
                   111  0.000000000000000E+000
                   112  0.000000000000000E+000
                   113 -1.657333473632439E-004
                   114  8.063533169941142E-005
                   115  0.000000000000000E+000
                   116 -1.931690287248423E-005
                   117 -2.258087206544305E-005
                   118  0.000000000000000E+000
                   119  0.000000000000000E+000
                   120 -1.302023065453557E-005
                   121 -3.635423137503152E-005
                   122 -2.459385863628248E-004
                   123 -6.005093669877850E-004
                   124  1.718787162621327E-004
                   125  3.088945116467636E-004
                   126 -2.816282261878151E-005
                   127 -3.355854258587736E-004
                   128  0.000000000000000E+000
                   129  2.310936506967786E-004
                   130  6.630971303212922E-004
                   131  0.000000000000000E+000
                   132  4.185576040961655E-004
                   133  2.043261289838465E-003
                   134  0.000000000000000E+000
                   135  1.418784989798008E-005
                   136  0.000000000000000E+000
                   137  0.000000000000000E+000
                   138  4.664376907837768E-005
                   139 -3.745038839379921E-007
                   140  2.068969387548067E-004
                   141  0.000000000000000E+000
                   142  0.000000000000000E+000
                   143  4.018305504809720E-004
                   144  2.414169061942277E-004
                   145  0.000000000000000E+000
                   146 -1.142740719103663E-005
                   147 -6.515709885294749E-005
                   148  0.000000000000000E+000
                   149  0.000000000000000E+000
                   150 -1.621213001598536E-005
                   151 -5.377283517567657E-005
                   152 -1.331335025506411E-004
                   153 -3.611976461780553E-004
                   154  5.491642589843754E-005
                   155  1.946045114303022E-004
                   156  8.131390215553360E-006
                   157 -9.279075681757679E-005
                   158  0.000000000000000E+000
                   159  1.191659724990061E-005
                   160  5.052159935795483E-005
                   161  0.000000000000000E+000
                   162  7.552564769497045E-004
                   163 -3.846883772328046E-004
                   164  0.000000000000000E+000
                   165  1.689748342891976E-006
                   166  0.000000000000000E+000
                   167  0.000000000000000E+000
                   168  2.126751768563720E-006
                   169  9.995492197172686E-006
                   170  1.047394792790984E-004
                   171  0.000000000000000E+000
                   172  0.000000000000000E+000
                   173  4.598160940770194E-005
                   174  3.065157958595636E-005
                   175  0.000000000000000E+000
                   176  3.437749464020061E-006
                   177 -1.361687305965566E-005
                   178  0.000000000000000E+000
                   179  0.000000000000000E+000
                   180 -2.315246858983643E-005
                   181 -2.836445630353283E-005
                   182 -1.382191992365598E-004
                   183 -4.034722922935939E-004
                   184  3.258817468056163E-005
                   185  2.020279743871626E-004
                   186 -4.861985271955129E-005
                   187 -6.418118364315392E-005
                   188  0.000000000000000E+000
                   189  2.684812987741705E-004
                   190  1.238222723261801E-004
                   191  0.000000000000000E+000
                   192  1.378801674541261E-003
                   193 -3.134566044446737E-004
                   194  0.000000000000000E+000
                   195  1.350850711029483E-006
                   196  0.000000000000000E+000
                   197  0.000000000000000E+000
                   198 -3.826569613123252E-006
                   199  4.359783917089050E-006
                   200 -9.113521237917215E-006
                   201  0.000000000000000E+000
                   202  0.000000000000000E+000
                   203 -7.126730832323492E-005
                   204 -2.081164357024997E-004
                   205  0.000000000000000E+000
                   206 -1.005917053063094E-005
                   207 -4.223555763018877E-006
                   208  0.000000000000000E+000
                   209  0.000000000000000E+000
                   210  8.063426079837041E-006
                   211 -4.389859767351101E-006
                   212 -5.202703210304628E-005
                   213  9.822901275262914E-005
                   214  1.986827017255855E-005
                   215  2.314643666099166E-005
                   216  0.000000000000000E+000
                   217 -8.675698213316678E-004
                   218 -6.352324368820889E-004
                   219 -2.442413696206354E-004
                   220  5.918801876160664E-005
                   221  0.000000000000000E+000
                   222 -2.129490607774444E-004
                   223 -6.080923868262227E-004
                   224  2.455071056264308E-005
                   225 -5.953813248233173E-005
                   226  0.000000000000000E+000
                   227  6.410240767377537E-005
                   228 -6.731661319769366E-004
                   229 -4.469129176462343E-005
                   230 -1.348382027456082E-005
                   231  0.000000000000000E+000
                   232  5.680802249541692E-006
                   233 -5.034269590823693E-004
                   234  1.235588179937859E-005
                   235 -4.011043603601663E-006
                   236  0.000000000000000E+000
                   237  3.231834347196357E-006
                   238 -3.659473306115344E-004
                   239 -6.496034568719432E-006
                   240 -2.081834799532821E-006
                   241  0.000000000000000E+000
                   242 -6.261361106939874E-005
                   243  9.329216505166111E-005
                   244 -1.962104023881649E-007
                   245  3.091375270956262E-005
                   246  0.000000000000000E+000
 Sym= __2_A'_
 Ene=   2.00000000000000     
 Spin= Alpha
 Occup=    1.00000000000000     
                     1  4.243217624619054E-005
                     2  2.974179360372846E-004
                     3 -3.588530562239558E-003
                     4 -1.025491265310736E-004
                     5 -1.433864856311670E-003
                     6  8.645960899709988E-004
                     7 -3.728273624237572E-003
                     8  0.000000000000000E+000
                     9  7.848147532785296E-006
                    10  9.906359605960743E-005
                    11  0.000000000000000E+000
                    12 -5.842396676092602E-007
                    13  2.689889287867378E-004
                    14  0.000000000000000E+000
                    15 -1.925969335616472E-005
                    16  0.000000000000000E+000
                    17  0.000000000000000E+000
                    18  7.358165075649548E-005
                    19 -2.771682951515353E-005
                    20  1.399532646843223E-004
                    21  0.000000000000000E+000
                    22  0.000000000000000E+000
                    23 -4.637885891471754E-005
                    24  1.469962907287132E-004
                    25  0.000000000000000E+000
                    26  1.548273563780782E-005
                    27 -8.247129275220757E-005
                    28  0.000000000000000E+000
                    29  0.000000000000000E+000
                    30  6.486161801174425E-005
                    31 -1.376909334171392E-004
                    32  -1.00078607861936     
                    33 -9.330938212975225E-003
                    34 -2.830246564800272E-003
                    35  8.151499342392760E-003
                    36  2.749070190024138E-004
                    37  4.297833884127392E-003
                    38  0.000000000000000E+000
                    39  2.313186615348806E-004
                    40 -3.253702329170476E-004
                    41  0.000000000000000E+000
                    42  1.176231660506238E-004
                    43 -4.416766067877774E-003
                    44  0.000000000000000E+000
                    45  5.188833754587545E-004
                    46  0.000000000000000E+000
                    47  0.000000000000000E+000
                    48  2.222536007771122E-004
                    49 -3.645801442476871E-005
                    50 -5.544821644817037E-004
                    51  0.000000000000000E+000
                    52  0.000000000000000E+000
                    53  6.602962062407568E-004
                    54  4.864220929645423E-004
                    55  0.000000000000000E+000
                    56 -1.991215443958707E-005
                    57 -1.041064816500395E-004
                    58  0.000000000000000E+000
                    59  0.000000000000000E+000
                    60  2.412387468346151E-005
                    61 -3.791106286500632E-004
                    62 -1.396738889382305E-002
                    63  2.234835826367024E-003
                    64  2.122267545569106E-004
                    65 -2.659860506390901E-003
                    66  1.179219870238051E-004
                    67 -3.201068726771616E-004
                    68  0.000000000000000E+000
                    69 -4.675516247012886E-004
                    70 -1.781777142400036E-004
                    71  0.000000000000000E+000
                    72  2.130354930915593E-003
                    73 -2.438395493973363E-004
                    74  0.000000000000000E+000
                    75 -3.762491485833205E-005
                    76  0.000000000000000E+000
                    77  0.000000000000000E+000
                    78  2.650027269487604E-005
                    79 -3.998536092473046E-006
                    80  4.223318710666238E-004
                    81  0.000000000000000E+000
                    82  0.000000000000000E+000
                    83  6.966211874007080E-004
                    84  2.488541892821309E-004
                    85  0.000000000000000E+000
                    86 -3.150122330649458E-005
                    87  5.812049439448602E-005
                    88  0.000000000000000E+000
                    89  0.000000000000000E+000
                    90 -5.714002432257850E-005
                    91 -1.493701934435241E-004
                    92 -1.773333365462051E-002
                    93  2.314843557872057E-003
                    94  2.951142463734274E-004
                    95 -3.224251068735407E-003
                    96 -5.057568240391433E-004
                    97 -5.078101765285941E-004
                    98  0.000000000000000E+000
                    99  9.913934141219556E-004
                   100  3.162725578141365E-005
                   101  0.000000000000000E+000
                   102 -1.749107832980726E-003
                   103  4.222115327338604E-005
                   104  0.000000000000000E+000
                   105 -2.211652773411043E-005
                   106  0.000000000000000E+000
                   107  0.000000000000000E+000
                   108  2.240570971058098E-005
                   109 -4.966273781134947E-008
                   110  4.147570719146999E-004
                   111  0.000000000000000E+000
                   112  0.000000000000000E+000
                   113  3.891626923451582E-004
                   114 -2.299900079943032E-004
                   115  0.000000000000000E+000
                   116  3.296745351394238E-005
                   117  7.516335099135090E-005
                   118  0.000000000000000E+000
                   119  0.000000000000000E+000
                   120  3.695683362773940E-006
                   121 -1.375180225220196E-004
                   122 -1.200332343081641E-004
                   123  5.824748582824793E-004
                   124 -2.293835408261531E-004
                   125  1.219241279345432E-004
                   126 -9.937602217438698E-007
                   127  5.517285152788210E-004
                   128  0.000000000000000E+000
                   129  8.152094426681087E-005
                   130 -6.370240060610651E-004
                   131  0.000000000000000E+000
                   132 -3.526767351746445E-004
                   133 -9.780297920955370E-004
                   134  0.000000000000000E+000
                   135 -1.783197666836413E-005
                   136  0.000000000000000E+000
                   137  0.000000000000000E+000
                   138  9.338283141838904E-007
                   139 -4.834131460965111E-005
                   140 -1.265962418322208E-004
                   141  0.000000000000000E+000
                   142  0.000000000000000E+000
                   143 -2.640129139577790E-004
                   144  8.967269212017540E-005
                   145  0.000000000000000E+000
                   146 -9.792656868159204E-006
                   147  3.566227156876762E-005
                   148  0.000000000000000E+000
                   149  0.000000000000000E+000
                   150  4.512115754344437E-005
                   151 -4.069111365910404E-005
                   152 -4.885265478547613E-004
                   153  5.280429550573298E-004
                   154 -2.281324113496782E-004
                   155  2.588561728650773E-005
                   156  5.979453234692248E-005
                   157  6.291109171701001E-004
                   158  0.000000000000000E+000
                   159 -1.431394033517409E-004
                   160 -5.529065704866839E-004