[Molden Format]
[Atoms] AU
  N     1    7    -0.0726898800   -4.3076849000    0.0000000000        
  C     2    6     0.0137393500   -1.8185223500    0.0000000000        
  C     3    6    -2.2948994300   -0.4298698800    0.0000000000        
  C     4    6     2.3178103900   -0.4158979900    0.0000000000        
  C     5    6    -2.2775651700    2.1628272600    0.0000000000        
  C     6    6     2.2903478500    2.1773617100    0.0000000000        
  C     7    6     0.0023572400    3.4942210300    0.0000000000        
  H     8    1    -2.9192179600   -6.2238481800    0.0000000000        
  H     9    1     1.6187798800   -5.1705776300    0.0000000000        
  H    10    1    -4.0352240500   -1.4722400500    0.0000000000        
  H    11    1     4.0811782200   -1.4275437600    0.0000000000        
  H    12    1    -4.0356752900    3.1817051800    0.0000000000        
  H    13    1     4.0433219600    3.2054635100    0.0000000000        
  H    14    1    -0.0026911800    5.5245188200    0.0000000000        
[5D]
[7F]
[GTO]
  1  0
   s    12 1.00
  0.114200D+05  0.172695D-04
  0.171200D+04  0.134411D-03
  0.389300D+03  0.694561D-03
  0.110000D+03  0.278531D-02
  0.355700D+02  0.863457D-02
  0.125400D+02  0.199805D-01
  0.464400D+01  0.262908D-01
  0.129300D+01 -0.243845D-01
  0.511800D+00 -0.924934D-01
  0.178700D+00 -0.339683D+00
  0.246240D-01  0.345111D+00
  0.112530D-01  0.752750D+00
   s    10 1.00
  0.114200D+05  0.523000D-03
  0.171200D+04  0.404500D-02
  0.389300D+03  0.207750D-01
  0.110000D+03  0.807269D-01
  0.355700D+02  0.233074D+00
  0.125400D+02  0.433501D+00
  0.464400D+01  0.347472D+00
  0.129300D+01  0.412620D-01
  0.511800D+00 -0.850799D-02
  0.178700D+00  0.238400D-02
   s    10 1.00
  0.114200D+05 -0.115000D-03
  0.171200D+04 -0.895000D-03
  0.389300D+03 -0.462400D-02
  0.110000D+03 -0.185280D-01
  0.355700D+02 -0.573390D-01
  0.125400D+02 -0.132076D+00
  0.464400D+01 -0.172510D+00
  0.129300D+01  0.151814D+00
  0.511800D+00  0.599944D+00
  0.178700D+00  0.387462D+00
   s     1 1.00
  0.129300D+01  0.100000D+01
   s     1 1.00
  0.178700D+00  0.100000D+01
   p     5 1.00
  0.266300D+02  0.146700D-01
  0.594800D+01  0.917640D-01
  0.174200D+01  0.298683D+00
  0.555000D+00  0.498487D+00
  0.172500D+00  0.337023D+00
   p     1 1.00
  0.174200D+01  0.100000D+01
   p     1 1.00
  0.555000D+00  0.100000D+01
   d     1 1.00
  0.165400D+01  0.100000D+01
   d     1 1.00
  0.469000D+00  0.100000D+01
   f     1 1.00
  0.109300D+01  0.100000D+01
  
  2  0
   s    10 1.00
  0.823600D+04  0.531000D-03
  0.123500D+04  0.410800D-02
  0.280800D+03  0.210870D-01
  0.792700D+02  0.818530D-01
  0.255900D+02  0.234817D+00
  0.899700D+01  0.434401D+00
  0.331900D+01  0.346129D+00
  0.905900D+00  0.393780D-01
  0.364300D+00 -0.898300D-02
  0.128500D+00  0.238500D-02
   s    10 1.00
  0.823600D+04 -0.113000D-03
  0.123500D+04 -0.878000D-03
  0.280800D+03 -0.454000D-02
  0.792700D+02 -0.181330D-01
  0.255900D+02 -0.557600D-01
  0.899700D+01 -0.126895D+00
  0.331900D+01 -0.170352D+00
  0.905900D+00  0.140382D+00
  0.364300D+00  0.598684D+00
  0.128500D+00  0.395389D+00
   s     1 1.00
  0.905900D+00  0.100000D+01
   s     1 1.00
  0.364300D+00  0.100000D+01
   p     5 1.00
  0.187100D+02  0.140310D-01
  0.413300D+01  0.868660D-01
  0.120000D+01  0.290216D+00
  0.382700D+00  0.501008D+00
  0.120900D+00  0.343406D+00
   p     1 1.00
  0.382700D+00  0.100000D+01
   p     1 1.00
  0.120900D+00  0.100000D+01
   d     1 1.00
  0.109700D+01  0.100000D+01
   d     1 1.00
  0.318000D+00  0.100000D+01
   f     1 1.00
  0.761000D+00  0.100000D+01
  
  3  0
   s    10 1.00
  0.823600D+04  0.531000D-03
  0.123500D+04  0.410800D-02
  0.280800D+03  0.210870D-01
  0.792700D+02  0.818530D-01
  0.255900D+02  0.234817D+00
  0.899700D+01  0.434401D+00
  0.331900D+01  0.346129D+00
  0.905900D+00  0.393780D-01
  0.364300D+00 -0.898300D-02
  0.128500D+00  0.238500D-02
   s    10 1.00
  0.823600D+04 -0.113000D-03
  0.123500D+04 -0.878000D-03
  0.280800D+03 -0.454000D-02
  0.792700D+02 -0.181330D-01
  0.255900D+02 -0.557600D-01
  0.899700D+01 -0.126895D+00
  0.331900D+01 -0.170352D+00
  0.905900D+00  0.140382D+00
  0.364300D+00  0.598684D+00
  0.128500D+00  0.395389D+00
   s     1 1.00
  0.905900D+00  0.100000D+01
   s     1 1.00
  0.364300D+00  0.100000D+01
   p     5 1.00
  0.187100D+02  0.140310D-01
  0.413300D+01  0.868660D-01
  0.120000D+01  0.290216D+00
  0.382700D+00  0.501008D+00
  0.120900D+00  0.343406D+00
   p     1 1.00
  0.382700D+00  0.100000D+01
   p     1 1.00
  0.120900D+00  0.100000D+01
   d     1 1.00
  0.109700D+01  0.100000D+01
   d     1 1.00
  0.318000D+00  0.100000D+01
   f     1 1.00
  0.761000D+00  0.100000D+01
  
  4  0
   s    10 1.00
  0.823600D+04  0.531000D-03
  0.123500D+04  0.410800D-02
  0.280800D+03  0.210870D-01
  0.792700D+02  0.818530D-01
  0.255900D+02  0.234817D+00
  0.899700D+01  0.434401D+00
  0.331900D+01  0.346129D+00
  0.905900D+00  0.393780D-01
  0.364300D+00 -0.898300D-02
  0.128500D+00  0.238500D-02
   s    10 1.00
  0.823600D+04 -0.113000D-03
  0.123500D+04 -0.878000D-03
  0.280800D+03 -0.454000D-02
  0.792700D+02 -0.181330D-01
  0.255900D+02 -0.557600D-01
  0.899700D+01 -0.126895D+00
  0.331900D+01 -0.170352D+00
  0.905900D+00  0.140382D+00
  0.364300D+00  0.598684D+00
  0.128500D+00  0.395389D+00
   s     1 1.00
  0.905900D+00  0.100000D+01
   s     1 1.00
  0.364300D+00  0.100000D+01
   p     5 1.00
  0.187100D+02  0.140310D-01
  0.413300D+01  0.868660D-01
  0.120000D+01  0.290216D+00
  0.382700D+00  0.501008D+00
  0.120900D+00  0.343406D+00
   p     1 1.00
  0.382700D+00  0.100000D+01
   p     1 1.00
  0.120900D+00  0.100000D+01
   d     1 1.00
  0.109700D+01  0.100000D+01
   d     1 1.00
  0.318000D+00  0.100000D+01
   f     1 1.00
  0.761000D+00  0.100000D+01
  
  5  0
   s    10 1.00
  0.823600D+04  0.531000D-03
  0.123500D+04  0.410800D-02
  0.280800D+03  0.210870D-01
  0.792700D+02  0.818530D-01
  0.255900D+02  0.234817D+00
  0.899700D+01  0.434401D+00
  0.331900D+01  0.346129D+00
  0.905900D+00  0.393780D-01
  0.364300D+00 -0.898300D-02
  0.128500D+00  0.238500D-02
   s    10 1.00
  0.823600D+04 -0.113000D-03
  0.123500D+04 -0.878000D-03
  0.280800D+03 -0.454000D-02
  0.792700D+02 -0.181330D-01
  0.255900D+02 -0.557600D-01
  0.899700D+01 -0.126895D+00
  0.331900D+01 -0.170352D+00
  0.905900D+00  0.140382D+00
  0.364300D+00  0.598684D+00
  0.128500D+00  0.395389D+00
   s     1 1.00
  0.905900D+00  0.100000D+01
   s     1 1.00
  0.364300D+00  0.100000D+01
   p     5 1.00
  0.187100D+02  0.140310D-01
  0.413300D+01  0.868660D-01
  0.120000D+01  0.290216D+00
  0.382700D+00  0.501008D+00
  0.120900D+00  0.343406D+00
   p     1 1.00
  0.382700D+00  0.100000D+01
   p     1 1.00
  0.120900D+00  0.100000D+01
   d     1 1.00
  0.109700D+01  0.100000D+01
   d     1 1.00
  0.318000D+00  0.100000D+01
   f     1 1.00
  0.761000D+00  0.100000D+01
  
  6  0
   s    10 1.00
  0.823600D+04  0.531000D-03
  0.123500D+04  0.410800D-02
  0.280800D+03  0.210870D-01
  0.792700D+02  0.818530D-01
  0.255900D+02  0.234817D+00
  0.899700D+01  0.434401D+00
  0.331900D+01  0.346129D+00
  0.905900D+00  0.393780D-01
  0.364300D+00 -0.898300D-02
  0.128500D+00  0.238500D-02
   s    10 1.00
  0.823600D+04 -0.113000D-03
  0.123500D+04 -0.878000D-03
  0.280800D+03 -0.454000D-02
  0.792700D+02 -0.181330D-01
  0.255900D+02 -0.557600D-01
  0.899700D+01 -0.126895D+00
  0.331900D+01 -0.170352D+00
  0.905900D+00  0.140382D+00
  0.364300D+00  0.598684D+00
  0.128500D+00  0.395389D+00
   s     1 1.00
  0.905900D+00  0.100000D+01
   s     1 1.00
  0.364300D+00  0.100000D+01
   p     5 1.00
  0.187100D+02  0.140310D-01
  0.413300D+01  0.868660D-01
  0.120000D+01  0.290216D+00
  0.382700D+00  0.501008D+00
  0.120900D+00  0.343406D+00
   p     1 1.00
  0.382700D+00  0.100000D+01
   p     1 1.00
  0.120900D+00  0.100000D+01
   d     1 1.00
  0.109700D+01  0.100000D+01
   d     1 1.00
  0.318000D+00  0.100000D+01
   f     1 1.00
  0.761000D+00  0.100000D+01
  
  7  0
   s    10 1.00
  0.823600D+04  0.531000D-03
  0.123500D+04  0.410800D-02
  0.280800D+03  0.210870D-01
  0.792700D+02  0.818530D-01
  0.255900D+02  0.234817D+00
  0.899700D+01  0.434401D+00
  0.331900D+01  0.346129D+00
  0.905900D+00  0.393780D-01
  0.364300D+00 -0.898300D-02
  0.128500D+00  0.238500D-02
   s    10 1.00
  0.823600D+04 -0.113000D-03
  0.123500D+04 -0.878000D-03
  0.280800D+03 -0.454000D-02
  0.792700D+02 -0.181330D-01
  0.255900D+02 -0.557600D-01
  0.899700D+01 -0.126895D+00
  0.331900D+01 -0.170352D+00
  0.905900D+00  0.140382D+00
  0.364300D+00  0.598684D+00
  0.128500D+00  0.395389D+00
   s     1 1.00
  0.905900D+00  0.100000D+01
   s     1 1.00
  0.364300D+00  0.100000D+01
   p     5 1.00
  0.187100D+02  0.140310D-01
  0.413300D+01  0.868660D-01
  0.120000D+01  0.290216D+00
  0.382700D+00  0.501008D+00
  0.120900D+00  0.343406D+00
   p     1 1.00
  0.382700D+00  0.100000D+01
   p     1 1.00
  0.120900D+00  0.100000D+01
   d     1 1.00
  0.109700D+01  0.100000D+01
   d     1 1.00
  0.318000D+00  0.100000D+01
   f     1 1.00
  0.761000D+00  0.100000D+01
  
  8  0
   s     4 1.00
  0.130100D+02  0.196850D-01
  0.196200D+01  0.137977D+00
  0.444600D+00  0.478148D+00
  0.122000D+00  0.501240D+00
   s     1 1.00
  0.122000D+00  0.100000D+01
   p     1 1.00
  0.727000D+00  0.100000D+01
  
  9  0
   s     4 1.00
  0.130100D+02  0.196850D-01
  0.196200D+01  0.137977D+00
  0.444600D+00  0.478148D+00
  0.122000D+00  0.501240D+00
   s     1 1.00
  0.122000D+00  0.100000D+01
   p     1 1.00
  0.727000D+00  0.100000D+01
  
 10  0
   s     4 1.00
  0.130100D+02  0.196850D-01
  0.196200D+01  0.137977D+00
  0.444600D+00  0.478148D+00
  0.122000D+00  0.501240D+00
   s     1 1.00
  0.122000D+00  0.100000D+01
   p     1 1.00
  0.727000D+00  0.100000D+01
  
 11  0
   s     4 1.00
  0.130100D+02  0.196850D-01
  0.196200D+01  0.137977D+00
  0.444600D+00  0.478148D+00
  0.122000D+00  0.501240D+00
   s     1 1.00
  0.122000D+00  0.100000D+01
   p     1 1.00
  0.727000D+00  0.100000D+01
  
 12  0
   s     4 1.00
  0.130100D+02  0.196850D-01
  0.196200D+01  0.137977D+00
  0.444600D+00  0.478148D+00
  0.122000D+00  0.501240D+00
   s     1 1.00
  0.122000D+00  0.100000D+01
   p     1 1.00
  0.727000D+00  0.100000D+01
  
 13  0
   s     4 1.00
  0.130100D+02  0.196850D-01
  0.196200D+01  0.137977D+00
  0.444600D+00  0.478148D+00
  0.122000D+00  0.501240D+00
   s     1 1.00
  0.122000D+00  0.100000D+01
   p     1 1.00
  0.727000D+00  0.100000D+01
  
 14  0
   s     4 1.00
  0.130100D+02  0.196850D-01
  0.196200D+01  0.137977D+00
  0.444600D+00  0.478148D+00
  0.122000D+00  0.501240D+00
   s     1 1.00
  0.122000D+00  0.100000D+01
   p     1 1.00
  0.727000D+00  0.100000D+01
  
[MO]
 Sym= __1_A'_
 Ene=  0.000000000000000E+000
 Spin= Alpha
 Occup=    2.00000000000000     
                     1  5.542941767116678E-005
                     2  0.998439054204231     
                     3 -2.092606604238953E-003
                     4  1.845620542658120E-003
                     5  4.583596427338222E-003
                     6  1.619386589754682E-003
                     7  4.019889677407525E-003
                     8  0.000000000000000E+000
                     9 -3.254335435322616E-004
                    10 -1.629621565197119E-004
                    11  0.000000000000000E+000
                    12 -1.408345379329006E-003
                    13 -1.068451890796033E-003
                    14  0.000000000000000E+000
                    15 -8.065851088160823E-005
                    16  0.000000000000000E+000
                    17  0.000000000000000E+000
                    18 -1.868080579152203E-004
                    19 -9.517604838307805E-005
                    20  2.163305655867270E-004
                    21  0.000000000000000E+000
                    22  0.000000000000000E+000
                    23 -3.675165556550924E-005
                    24  3.928039067472032E-004
                    25  0.000000000000000E+000
                    26 -3.207806989229364E-006
                    27 -2.919930605779079E-005
                    28  0.000000000000000E+000
                    29  0.000000000000000E+000
                    30  2.214315899362281E-005
                    31 -1.083615471994222E-004
                    32 -1.955173694055777E-004
                    33  5.940764386123670E-004
                    34  1.950682672486926E-004
                    35  1.568407563577680E-005
                    36 -1.598798256261444E-004
                    37 -2.592020718248326E-003
                    38  0.000000000000000E+000
                    39  1.615249617763569E-004
                    40 -2.273108893363139E-004
                    41  0.000000000000000E+000
                    42 -8.582714845824833E-004
                    43  4.004790108617627E-003
                    44  0.000000000000000E+000
                    45 -3.381399670246512E-006
                    46  0.000000000000000E+000
                    47  0.000000000000000E+000
                    48 -1.445305767216940E-004
                    49 -2.641124832642530E-006
                    50 -2.445474077737213E-004
                    51  0.000000000000000E+000
                    52  0.000000000000000E+000
                    53 -1.441792767520316E-004
                    54  5.567073980755606E-004
                    55  0.000000000000000E+000
                    56 -2.708244657592662E-006
                    57 -5.736341279791451E-005
                    58  0.000000000000000E+000
                    59  0.000000000000000E+000
                    60  7.862027404064153E-006
                    61 -1.413399206800595E-004
                    62 -3.271258039590605E-004
                    63 -1.348306156484729E-003
                    64 -7.558818028330407E-005
                    65  1.491091809348609E-003
                    66 -2.999623217389245E-004
                    67  1.098047604554456E-004
                    68  0.000000000000000E+000
                    69  2.697455739200278E-004
                    70  6.077979510099493E-004
                    71  0.000000000000000E+000
                    72 -1.191877922708182E-003
                    73  2.128671192312604E-004
                    74  0.000000000000000E+000
                    75 -3.765583074841626E-005
                    76  0.000000000000000E+000
                    77  0.000000000000000E+000
                    78 -3.940802597789796E-005
                    79 -2.024245139795961E-005
                    80 -8.070263964085432E-005
                    81  0.000000000000000E+000
                    82  0.000000000000000E+000
                    83  2.074228293045628E-005
                    84 -3.381951149157469E-005
                    85  0.000000000000000E+000
                    86  1.636182787438172E-005
                    87 -4.279326366821569E-005
                    88  0.000000000000000E+000
                    89  0.000000000000000E+000
                    90 -3.223119003210825E-005
                    91 -1.315989578674394E-004
                    92 -1.837968181160711E-004
                    93 -8.251217064053699E-004
                    94  8.797198092244878E-005
                    95  2.336925697107287E-004
                    96  2.704410305887960E-004
                    97  1.979376747975707E-004
                    98  0.000000000000000E+000
                    99  2.191190521548519E-004
                   100  3.463416355968179E-004
                   101  0.000000000000000E+000
                   102  5.369826034044680E-004
                   103 -9.396166896016656E-004
                   104  0.000000000000000E+000
                   105 -1.464686231465584E-005
                   106  0.000000000000000E+000
                   107  0.000000000000000E+000
                   108 -4.366405705535038E-005
                   109 -6.812390033089104E-006
                   110  1.723997012024790E-005
                   111  0.000000000000000E+000
                   112  0.000000000000000E+000
                   113 -1.052529740816507E-004
                   114  9.035719926389631E-005
                   115  0.000000000000000E+000
                   116 -1.563109001811338E-005
                   117 -2.410384249245530E-005
                   118  0.000000000000000E+000
                   119  0.000000000000000E+000
                   120  5.670673255140008E-006
                   121 -6.668457227208680E-005
                   122 -1.773491886492113E-004
                   123 -4.302749438325908E-004
                   124  1.358730879492828E-004
                   125  1.783939756900857E-004
                   126 -2.329802851572759E-005
                   127 -2.624679175008083E-004
                   128  0.000000000000000E+000
                   129  1.617150005861609E-004
                   130  4.604824631159616E-004
                   131  0.000000000000000E+000
                   132  1.820000971044937E-004
                   133  1.142617569821013E-003
                   134  0.000000000000000E+000
                   135  1.387247656150995E-005
                   136  0.000000000000000E+000
                   137  0.000000000000000E+000
                   138  3.736253797477492E-005
                   139 -6.780405851429789E-006
                   140  1.483089399055209E-004
                   141  0.000000000000000E+000
                   142  0.000000000000000E+000
                   143  2.618905970090196E-004
                   144  1.287355582281448E-004
                   145  0.000000000000000E+000
                   146 -1.000677933235636E-005
                   147 -4.585531170628407E-005
                   148  0.000000000000000E+000
                   149  0.000000000000000E+000
                   150  2.488209382686634E-006
                   151 -4.388676406756315E-005
                   152 -1.273895987493713E-004
                   153 -2.873120112589378E-004
                   154  6.700940548986774E-005
                   155  1.777517801545331E-004
                   156 -7.008841742354819E-007
                   157 -2.042953028745387E-004
                   158  0.000000000000000E+000
                   159 -7.553636128845758E-005
                   160  1.444993166932299E-004
                   161  0.000000000000000E+000
                   162  4.614775962393486E-004
                   163  1.230174224437975E-004
                   164  0.000000000000000E+000
                   165  2.173843256573021E-006
                   166  0.000000000000000E+000
                   167  0.000000000000000E+000
                   168  1.074040991979510E-005
                   169  8.909909582420783E-006
                   170  1.087777572706216E-004
                   171  0.000000000000000E+000
                   172  0.000000000000000E+000
                   173  8.381212356879294E-005
                   174 -1.273248536383278E-005
                   175  0.000000000000000E+000
                   176  5.360531245686370E-006
                   177 -1.960618797624566E-005
                   178  0.000000000000000E+000
                   179  0.000000000000000E+000
                   180 -1.796284766952054E-005
                   181 -2.842289193633542E-005
                   182 -1.081495806148306E-004
                   183 -3.166264205676301E-004
                   184  2.922401271308361E-005
                   185  1.646127596666307E-004
                   186 -1.723803913750555E-005
                   187 -4.196853177510002E-005
                   188  0.000000000000000E+000
                   189  1.252834287434618E-004
                   190  7.149029396779217E-005
                   191  0.000000000000000E+000
                   192  5.903363794414084E-004
                   193 -1.650650353052795E-004
                   194  0.000000000000000E+000
                   195 -9.110779781821690E-007
                   196  0.000000000000000E+000
                   197  0.000000000000000E+000
                   198 -8.202757075312193E-006
                   199  1.692668962631249E-006
                   200  8.473730024211355E-006
                   201  0.000000000000000E+000
                   202  0.000000000000000E+000
                   203 -5.830937455077990E-005
                   204 -8.915260816260832E-005
                   205  0.000000000000000E+000
                   206 -4.047342233147301E-006
                   207 -4.420960094334249E-006
                   208  0.000000000000000E+000
                   209  0.000000000000000E+000
                   210  2.914237421227702E-006
                   211 -2.625620686330682E-006
                   212 -4.592135841985366E-004
                   213  9.910242164973836E-006
                   214  6.132155658245970E-006
                   215  3.889356732233905E-005
                   216  0.000000000000000E+000
                   217 -8.399162773121287E-005
                   218 -7.875646446726487E-004
                   219 -2.110212112792563E-004
                   220  7.950195947454151E-005
                   221  0.000000000000000E+000
                   222 -2.072083926867348E-004
                   223 -4.929218028306177E-004
                   224  3.965412885579939E-006
                   225 -4.737114521087335E-005
                   226  0.000000000000000E+000
                   227 -7.460530660281774E-005
                   228 -3.864350926405306E-004
                   229 -1.661872135789848E-005
                   230 -2.366383976312329E-005
                   231  0.000000000000000E+000
                   232  2.381516501369822E-006
                   233 -3.489332093939619E-004
                   234  9.955138831648586E-006
                   235 -2.335114380866279E-006
                   236  0.000000000000000E+000
                   237 -2.882387941943800E-005
                   238 -3.615628719558279E-004
                   239 -8.462532058183877E-006
                   240 -6.242540194822436E-006
                   241  0.000000000000000E+000
                   242 -1.752053515835590E-005
                   243  5.912420415463910E-006
                   244 -1.647344889336323E-007
                   245  1.917964349212547E-005
                   246  0.000000000000000E+000
 Sym= __2_A'_
 Ene=  0.000000000000000E+000
 Spin= Alpha
 Occup=    2.00000000000000     
                     1 -4.832986712118088E-005
                     2 -3.037252656849983E-004
                     3  2.525192082502402E-003
                     4  1.338842878173454E-004
                     5  1.383845130223847E-003
                     6 -1.807559724913389E-004
                     7  2.612205000449926E-003
                     8  0.000000000000000E+000
                     9 -6.936577859902264E-005
                    10 -1.275150006869480E-004
                    11  0.000000000000000E+000
                    12 -9.907703154258369E-006
                    13 -3.639242403133293E-004
                    14  0.000000000000000E+000
                    15  3.227135974724050E-005
                    16  0.000000000000000E+000
                    17  0.000000000000000E+000
                    18 -3.407425697438546E-005
                    19  1.039533308131118E-005
                    20 -8.965716058286646E-005
                    21  0.000000000000000E+000
                    22  0.000000000000000E+000
                    23  2.183102721230938E-004
                    24 -1.139519693645521E-004
                    25  0.000000000000000E+000
                    26 -2.138108708649520E-005
                    27  1.131405782913368E-004
                    28  0.000000000000000E+000
                    29  0.000000000000000E+000
                    30 -6.029364969068352E-005
                    31  1.766383707579883E-004
                    32   1.00099072320878     
                    33  9.043781776167773E-003
                    34  2.771278467095576E-003
                    35 -7.829444809660290E-003
                    36 -1.435397817853923E-005
                    37 -4.003888320389975E-003
                    38  0.000000000000000E+000
                    39 -1.831301818799300E-004
                    40  1.220942399755925E-003
                    41  0.000000000000000E+000
                    42 -1.166937168497853E-004
                    43  4.357503296318612E-003
                    44  0.000000000000000E+000
                    45 -5.993618741154058E-004
                    46  0.000000000000000E+000
                    47  0.000000000000000E+000
                    48 -2.377596257457690E-004
                    49  1.782811134562503E-005
                    50  5.360991316257801E-004
                    51  0.000000000000000E+000
                    52  0.000000000000000E+000
                    53 -5.689756951699986E-004
                    54 -2.882919033006295E-004
                    55  0.000000000000000E+000
                    56  1.142556627470339E-005
                    57  7.688920053337298E-005
                    58  0.000000000000000E+000
                    59  0.000000000000000E+000
                    60 -2.720441767574884E-005
                    61  4.356406587719479E-004
                    62  8.009117980267358E-003
                    63 -2.048710372318031E-003
                    64 -2.232283450681889E-004
                    65  2.705355986143916E-003
                    66  1.119840515753664E-004
                    67 -7.777265013513366E-006
                    68  0.000000000000000E+000
                    69  4.149936738539983E-004
                    70  2.241657247556119E-004
                    71  0.000000000000000E+000
                    72 -2.087609377622635E-003
                    73  3.171981225187951E-004
                    74  0.000000000000000E+000
                    75  4.885526887101649E-005
                    76  0.000000000000000E+000
                    77  0.000000000000000E+000
                    78 -5.364611504721332E-006
                    79  2.350990299848061E-005
                    80 -4.089183530712693E-004
                    81  0.000000000000000E+000
                    82  0.000000000000000E+000
                    83 -6.984922176116426E-004
                    84 -2.405795037247952E-004
                    85  0.000000000000000E+000
                    86  3.393265583851060E-005
                    87 -5.866653924440821E-005
                    88  0.000000000000000E+000
                    89  0.000000000000000E+000
                    90  4.134079646126447E-005
                    91  1.482223713734533E-004
                    92  9.250854125349805E-003
                    93 -2.095377384369595E-003
                    94 -2.806716518175504E-004
                    95  3.108368426736064E-003
                    96 -1.605613893372803E-005
                    97 -9.216204411519030E-006
                    98  0.000000000000000E+000
                    99 -7.411633021420560E-004
                   100  1.236889812973412E-004
                   101  0.000000000000000E+000
                   102  1.799559632783754E-003
                   103  9.127503719451815E-005
                   104  0.000000000000000E+000
                   105  3.814946889970843E-005
                   106  0.000000000000000E+000
                   107  0.000000000000000E+000
                   108 -4.410390614445292E-006
                   109 -1.346430253194990E-005
                   110 -4.126982745916915E-004
                   111  0.000000000000000E+000
                   112  0.000000000000000E+000
                   113 -4.904578067395110E-004
                   114  2.753139003111752E-004
                   115  0.000000000000000E+000
                   116 -3.237748857472750E-005
                   117 -6.598489580565063E-005
                   118  0.000000000000000E+000
                   119  0.000000000000000E+000
                   120 -2.244958704337971E-005
                   121  1.346357243504821E-004
                   122 -2.517162625016074E-004
                   123 -7.699986896002068E-004
                   124  2.356215379358919E-004
                   125 -1.471771983472959E-004
                   126 -1.291959905955310E-005
                   127 -2.965653865773709E-004
                   128  0.000000000000000E+000
                   129 -4.780411536259730E-005
                   130  6.206290104743921E-004
                   131  0.000000000000000E+000
                   132  3.785942564410841E-004
                   133  8.509643475890664E-004
                   134  0.000000000000000E+000
                   135  2.175053566691697E-005
                   136  0.000000000000000E+000
                   137  0.000000000000000E+000
                   138  6.365088476736232E-006
                   139  4.422839801345432E-005
                   140  1.227032892802468E-004
                   141  0.000000000000000E+000
                   142  0.000000000000000E+000
                   143  2.815661481419528E-004
                   144 -1.506809252194011E-004
                   145  0.000000000000000E+000
                   146  6.137378447527244E-006
                   147 -3.280310751238793E-005
                   148  0.000000000000000E+000
                   149  0.000000000000000E+000
                   150 -3.955078493407018E-005
                   151  2.978582528184245E-005
                   152 -2.139364580758788E-004
                   153 -7.529945878083736E-004
                   154  2.400208556865376E-004
                   155 -9.938775953855960E-005
                   156 -1.197396555784121E-005
                   157 -2.961882547189500E-004
                   158  0.000000000000000E+000
                   159  9.425350534514150E-005
                   160  5.572294357731911E-004