===========================================================
===                   runc                              ===
===           version 7.0.2 , April 2021              ===
===          requires COLUMBUS version Col_7.0.2        ===
===                                                     ===
===   written by: Thomas Mueller                        ===
===   gradient ext. by: Michal Dallos                   ===
===               University of Vienna                  ===
===   maintained by: Felix Plasser                      ===
===               Loughborough University               ===
===========================================================


coremem. (seq.): 200000 MB,  coremem. (par.): 19000 MB
Vdisk size: 0 DP
Reading job control file control.run ... 
 ****** This is an 2c-QDPT MRCISD calculation ****** 
 model space size=4:0:4
SMOLCAS=/home-4/yshen57@jhu.edu/Software/Chemistry/Columbus-7.0.2_OpenMolcas-18.09-col/OpenMolcas/build
Found serial Molcas Installation at /home-4/yshen57@jhu.edu/Software/Chemistry/Columbus-7.0.2_OpenMolcas-18.09-col/OpenMolcas/build
  done 
INFO: keywords nadcoupl and seward are supported for DCI mode only!
seward specified, using also alaska
Creating various directories ... 
 done 
SMOLCAS=/home-4/yshen57@jhu.edu/Software/Chemistry/Columbus-7.0.2_OpenMolcas-18.09-col/OpenMolcas/build
PMOLCAS=
Checking for illegal keywords and keyword combinations ... done 

 Nonadiabatic coupling term calculation type: DCI+DCSF
  States involved in calcualtion:
   DRT1,state1;  DRT1,state2
   DRT1,state1;  DRT1,state3
   DRT1,state1;  DRT1,state4
   DRT1,state2;  DRT1,state3
   DRT1,state2;  DRT1,state4
   DRT1,state3;  DRT1,state4
   DRT2,state1;  DRT2,state2
   DRT2,state1;  DRT2,state3
   DRT2,state1;  DRT2,state4
   DRT2,state2;  DRT2,state3
   DRT2,state2;  DRT2,state4
   DRT2,state3;  DRT2,state4

Additional gradients computed:
   DRT1,state1
   DRT1,state2
   DRT1,state3
   DRT1,state4
   DRT2,state1
   DRT2,state2
   DRT2,state3
   DRT2,state4

Checking for complete set of input files ... 
mcscf calculation without preceeding scf calculation 
will use 
 /scratch/users/yshen57@jhu.edu/Molcas/slow/1.5/mrci/mocoef as starting MOs 
Performing coupled non-rel. SO-CI calculation, nrroots: 4 0 4
starting cidrt.x   -m 200000 < cidrtin > temp at Tue May 24 17:42:43 EDT 2022

 -------------------- cidrt.x ------------------------
 spatial symmetry:  
 total number of configurations          0
 number of reference configurations     0
 --------------------------------------------------- 
 Preparing SO cidrtin files for 1 symmetries
cat ../cidrtin | sed -e 's/^.*input the molecular spatial symmetry/1 \/ molsym/' > cidrtin.so_A 
calling cidrt.x -m 200000 < cidrtin.so_A > cidrtls.soci_A ...
Checking the DRTs for consistency ...
calling reindex.x -i 1 -m 200000  ...
done

 ++++++++++++++++++ input file generation +++++++++++++ 
 runc start: Tue May 24 17:43:04 EDT 2022
 
  runc start: Tue May 24 17:43:04 EDT 2022
 
 starting unik.gets.x > unikls at Tue May 24 17:43:04 EDT 2022

 -------------------- unik.gets.x ------------------------
 --------------------------------------------------- 
 ++++++++++++++++++++ ao integral calculation ++++++++++++++++
starting pymolcas molcas.input.seward > molcas.output.seward  at Tue May 24 17:43:05 EDT 2022

Generating link ln -s ./molcas.OrdInt ORDINT 
 -------------------- seward ------------------------
      Basis set label: N.ANILINE.........
      Basis set label: C.ANILINE.........
      Basis set label: H.ANILINE.........
  Nuclear Coordinates in                   atomic units                                   Angstrom 
     Center  Label                x              y              z                     x              y              z
        1      N1              -4.461284       0.222193      -0.010274             -2.360810       0.117580      -0.005437
        2      C2              -1.745549       0.004610      -0.022059             -0.923705       0.002440      -0.011673
        3      C3              -0.411189       0.028156      -2.283833             -0.217592       0.014899      -1.208552
        4      C4              -0.438251      -0.029936       2.247332             -0.231912      -0.015841       1.189237
        5      C5               2.195422       0.006840      -2.253809              1.161767       0.003619      -1.192664
        6      C6               2.173588      -0.014626       2.249015              1.150213      -0.007740       1.190128
        7      C7               3.499415      -0.006324       0.004519              1.851811      -0.003347       0.002391
        8      H8              -5.394266      -1.629251      -1.943301             -2.854523      -0.862163      -1.028350
        9      H9              -5.148115      -0.744075       1.556346             -2.724265      -0.393747       0.823583
       10      H10             -1.415208       0.069488      -4.043516             -0.748896       0.036771      -2.139737
       11      H11             -1.453244      -0.058810       4.003632             -0.769023      -0.031121       2.118631
       12      H12              3.213174       0.015243      -4.010028              1.700338       0.008066      -2.122015
       13      H13              3.171261      -0.025626       4.016652              1.678159      -0.013561       2.125521
       14      H14              5.528351      -0.014340       0.014797              2.925477      -0.007588       0.007830
 
            Nuclear Potential Energy            270.87972208 au
 --------------------------------------------------- 
  >>>>>>>>>>>>> info: preparing drt no 1 out of 1 <<<<<<
starting mcdrt.x -m 200000 < mcdrtin > mcdrtls at Tue May 24 17:48:57 EDT 2022

 -------------------- mcdrt.x ------------------------
  Spin multiplicity: singlet 
  Spatial symmetry (#): 1
  Number of Configurations:       1275 
  --------------------------------------------------- 
 starting mcuft.x at Tue May 24 17:48:58 EDT 2022

 -------------------- mcuft.x ------------------------
 --------------------------------------------------- 
 ++++++++++++++++++++ MCSCF calculation +++++++++++++++
info: taking mocoef file from /scratch/users/yshen57@jhu.edu/Molcas/slow/1.5/mrci/mocoef
adding flag 30 to mcscfin
Writing mcdenin files for mcscf.x for 1 DRTs
adding flag 26 to mcscfin
starting mcscf.x -m 200000 at Tue May 24 17:48:58 EDT 2022

 -------------------- mcscf.x ------------------------
 Individual total energies for all states: 
    DRT #1 state # 1 wt 0.250 total energy=     -285.839802966, rel. (eV)=   0.000000
    DRT #1 state # 2 wt 0.250 total energy=     -285.629778546, rel. (eV)=   5.715058
    DRT #1 state # 3 wt 0.250 total energy=     -285.590639067, rel. (eV)=   6.780098
    DRT #1 state # 4 wt 0.250 total energy=     -285.556077350, rel. (eV)=   7.720570
  --------------------------------------------------- 
 starting mcpc.x -m 200000 < mcpcin > mcpcls at Tue May 24 17:52:14 EDT 2022

 -------------------- mcpc.x ------------------------
 --------------------------------------------------- 
 starting mcpc.x -m 200000 < mcpcin > mcpcls at Tue May 24 17:52:15 EDT 2022

 -------------------- mcpc.x ------------------------
 --------------------------------------------------- 
 starting mcpc.x -m 200000 < mcpcin > mcpcls at Tue May 24 17:52:15 EDT 2022

 -------------------- mcpc.x ------------------------
 --------------------------------------------------- 
 starting mcpc.x -m 200000 < mcpcin > mcpcls at Tue May 24 17:52:16 EDT 2022

 -------------------- mcpc.x ------------------------
 --------------------------------------------------- 
 
========= state properties for state-averaged MCSCF =========
mcscf.drt1.st01.sp
starting exptvl.x -m 200000   at Tue May 24 17:52:16 EDT 2022

 -------------------- exptvl.x ------------------------
  === dipole moment === 
                     X               Y               Z   
   orign x       0.00000000      0.00000000      0.00000000
   orign y       0.00000000      0.00000000      0.00000000
   orign z       0.00000000      0.00000000      0.00000000
   nuclear      -1.08641853     -0.89970326     -0.83034259
   electronic    0.90169389      0.19011867      0.89146831
   total        -0.18472464     -0.70958459      0.06112572
   total Dipole moment =   1.87016399    Debye
 --------------------------------------------------- 
 mcscf.drt1.st02.sp
starting exptvl.x -m 200000   at Tue May 24 17:52:16 EDT 2022

 -------------------- exptvl.x ------------------------
  === dipole moment === 
                     X               Y               Z   
   orign x       0.00000000      0.00000000      0.00000000
   orign y       0.00000000      0.00000000      0.00000000
   orign z       0.00000000      0.00000000      0.00000000
   nuclear      -1.08641853     -0.89970326     -0.83034259
   electronic    3.34393419      1.07646564      1.59853656
   total         2.25751566      0.17676238      0.76819397
   total Dipole moment =   6.07778049    Debye
 --------------------------------------------------- 
 mcscf.drt1.st03.sp
starting exptvl.x -m 200000   at Tue May 24 17:52:17 EDT 2022

 -------------------- exptvl.x ------------------------
  === dipole moment === 
                     X               Y               Z   
   orign x       0.00000000      0.00000000      0.00000000
   orign y       0.00000000      0.00000000      0.00000000
   orign z       0.00000000      0.00000000      0.00000000
   nuclear      -1.08641853     -0.89970326     -0.83034259
   electronic    1.75337243      0.49547966      1.05465718
   total         0.66695390     -0.40422360      0.22431459
   total Dipole moment =   2.06264343    Debye
 --------------------------------------------------- 
 mcscf.drt1.st04.sp
starting exptvl.x -m 200000   at Tue May 24 17:52:17 EDT 2022

 -------------------- exptvl.x ------------------------
  === dipole moment === 
                     X               Y               Z   
   orign x       0.00000000      0.00000000      0.00000000
   orign y       0.00000000      0.00000000      0.00000000
   orign z       0.00000000      0.00000000      0.00000000
   nuclear      -1.08641853     -0.89970326     -0.83034259
   electronic    4.00389195      0.89336824      1.49910075
   total         2.91747342     -0.00633502      0.66875816
   total Dipole moment =   7.60782831    Debye
 --------------------------------------------------- 
  using the MCSCF MOs ... 
starting cidrt.x  -m 200000 < cidrtin.1 > cidrtls at Tue May 24 17:52:18 EDT 2022

 -------------------- cidrt.x ------------------------
 total number of orbitals            :   246
 number of frozen core orbitals      :    18
 number of frozen virtual orbitals   :     0
 number of internal orbitals         :    14
 number of external orbitals         :   214
 spatial symmetry:   a  
 
 total number of configurations  158587185
 number of reference configurations  1275
 --------------------------------------------------- 
 starting cidrt.x  -m 200000 < cidrtin.2 > cidrtls at Tue May 24 17:52:21 EDT 2022

 -------------------- cidrt.x ------------------------
 total number of orbitals            :   246
 number of frozen core orbitals      :    18
 number of frozen virtual orbitals   :     0
 number of internal orbitals         :    14
 number of external orbitals         :   214
 spatial symmetry:   a  
 
 total number of configurations  282461366
 number of reference configurations  1666
 --------------------------------------------------- 
 starting tran.x -m 200000  at Tue May 24 17:52:26 EDT 2022

 -------------------- tran.x ------------------------
 --------------------------------------------------- 
  Starting ciudgav with DRT # 1 out of 2 

 *** starting pciudg section *** 
nproc: 48 machinefile:  
assuming machinefile syntax: one host name per line optionally repeated
 section2, MPI_STARTUP:
 /software/apps/mpi/openmpi/3.1/intel/18.0/bin/mpirun -np 48  /home-4/yshen57@jhu.edu/Software/Chemistry/Columbus-7.0.2_OpenMolcas-18.09-col/Columbus/pciudg.x -m 19000 
 -------------------- pciudg.x ------------------------
 type of calculation:          mr-sdci
 number of configurations:     158587185
 total mr-sdci energy             -286.0379278463 
 last mr-sdci energy change           0.0000000000 
 residual                             0.0000076220 
  type of calculation:          mr-sdci
 number of configurations:     158587185
 total mr-sdci energy             -285.8796013138 
 last mr-sdci energy change           0.0000000000 
 residual                             0.0000066319 
  type of calculation:          mr-sdci
 number of configurations:     158587185
 total mr-sdci energy             -285.8472368439 
 last mr-sdci energy change           0.0000000000 
 residual                             0.0000089847 
  type of calculation:          mr-sdci
 number of configurations:     158587185
 total mr-sdci energy             -285.8106611584 
 last mr-sdci energy change           0.0000000000 
 residual                             0.0000065532 
  --------------------------------------------------- 
 keyinfile returned docipci=0:
starting cipc.x -m 200000 < cipcin > cipcls at Wed May 25 11:02:47 EDT 2022

 -------------------- cipc.x ------------------------
 --------------------------------------------------- 
  Starting ciudgav with DRT # 2 out of 2 

 *** starting pciudg section *** 
nproc: 48 machinefile:  
assuming machinefile syntax: one host name per line optionally repeated
 section2, MPI_STARTUP:
 /software/apps/mpi/openmpi/3.1/intel/18.0/bin/mpirun -np 48  /home-4/yshen57@jhu.edu/Software/Chemistry/Columbus-7.0.2_OpenMolcas-18.09-col/Columbus/pciudg.x -m 19000 
 -------------------- pciudg.x ------------------------
 type of calculation:          mr-sdci
 number of configurations:     282461366
 total mr-sdci energy             -285.9121431605 
 last mr-sdci energy change           0.0000000000 
 residual                             0.0000076823 
  type of calculation:          mr-sdci
 number of configurations:     282461366
 total mr-sdci energy             -285.8697488577 
 last mr-sdci energy change           0.0000000000 
 residual                             0.0000061167 
  type of calculation:          mr-sdci
 number of configurations:     282461366
 total mr-sdci energy             -285.8551806071 
 last mr-sdci energy change           0.0000000000 
 residual                             0.0000085178 
  type of calculation:          mr-sdci
 number of configurations:     282461366
 total mr-sdci energy             -285.8462031850 
 last mr-sdci energy change           0.0000000001 
 residual                             0.0000064886 
  --------------------------------------------------- 
 keyinfile returned docipci=0:
starting cipc.x -m 200000 < cipcin > cipcls at Fri May 27 06:44:00 EDT 2022

 -------------------- cipc.x ------------------------
 --------------------------------------------------- 
 Reindex call
run_socinr: imult=1 irrep=1 
opening file =ciudgls.drt1.sp
opening file =ciudgls.drt1.sp
opening file =ciudgls.drt1.sp
opening file =ciudgls.drt1.sp
run_socinr: imult=3 irrep=1 
opening file =ciudgls.drt2.sp
opening file =ciudgls.drt2.sp
opening file =ciudgls.drt2.sp
opening file =ciudgls.drt2.sp
 copying /scratch/users/yshen57@jhu.edu/Molcas/slow/1.5/mrci/cidrtfl.so__A --> cidrtfl.so__A 
 copying /scratch/users/yshen57@jhu.edu/Molcas/slow/1.5/mrci/cidrtfl.so__A --> cidrtfl.so__A 
starting reindex.x -m 200000 > reindexls at Fri May 27 06:44:22 EDT 2022

 -------------------- reindex.x ------------------------
 --------------------------------------------------- 
 1      1        1           civfl_1_A             1      1    0+       1             1         civfl.so__A
1      1        2           civfl_1_A             1      1    0+       2    1005971284         civfl.so__A
1      1        3           civfl_1_A             1      1    0+       3    2011942567         civfl.so__A
1      1        4           civfl_1_A             1      1    0+       4    3017913850         civfl.so__A
3      1        1           civfl_3_A             1      3    0+       5    4023885133         civfl.so__A
3      1        1           civfl_3_A             1      3    1+       6    5029856416         civfl.so__A
3      1        1           civfl_3_A             1      3    1-       7    6035827699         civfl.so__A
3      1        2           civfl_3_A             1      3    0+       8    7041798982         civfl.so__A
3      1        2           civfl_3_A             1      3    1+       9    8047770265         civfl.so__A
3      1        2           civfl_3_A             1      3    1-      10    9053741548         civfl.so__A
3      1        3           civfl_3_A             1      3    0+      11   10059712831         civfl.so__A
3      1        3           civfl_3_A             1      3    1+      12   11065684114         civfl.so__A
3      1        3           civfl_3_A             1      3    1-      13   12071655397         civfl.so__A
3      1        4           civfl_3_A             1      3    0+      14   13077626680         civfl.so__A
3      1        4           civfl_3_A             1      3    1+      15   14083597963         civfl.so__A
3      1        4           civfl_3_A             1      3    1-      16   15089569246         civfl.so__A
 Executing ciudg.x  for gamma =A ...

 *** starting pciudg section *** 
nproc: 48 machinefile:  
assuming machinefile syntax: one host name per line optionally repeated
 section2, MPI_STARTUP:
 /software/apps/mpi/openmpi/3.1/intel/18.0/bin/mpirun -np 48  /home-4/yshen57@jhu.edu/Software/Chemistry/Columbus-7.0.2_OpenMolcas-18.09-col/Columbus/pciudg.x -m 19000 
 -------------------- pciudg.x ------------------------
 type of calculation:          mr-sdci
 number of configurations:     1005971283
 total mr-sdci energy             -286.0379278923 
 last mr-sdci energy change           0.0000000460 
 residual                            34.9360000000 
  type of calculation:          mr-sdci
 number of configurations:     1005971283
 total mr-sdci energy             -285.9121431781 
 last mr-sdci energy change           0.0325420000 
 residual                            34.8100000000 
  type of calculation:          mr-sdci
 number of configurations:     1005971283
 total mr-sdci energy             -285.9121431733 
 last mr-sdci energy change           0.0649060000 
 residual                            34.8100000000 
  type of calculation:          mr-sdci
 number of configurations:     1005971283
 total mr-sdci energy             -285.9121431694 
 last mr-sdci energy change           0.1014800000 
 residual                            34.8100000000 
  type of calculation:          mr-sdci
 number of configurations:     1005971283
 total mr-sdci energy             -285.8796012731 
 last mr-sdci energy change          -0.0325420000 
 residual                            34.7780000000 
  type of calculation:          mr-sdci
 number of configurations:     1005971283
 total mr-sdci energy             -285.8697488534 
 last mr-sdci energy change          -0.0423940000 
 residual                            34.7680000000 
  type of calculation:          mr-sdci
 number of configurations:     1005971283
 total mr-sdci energy             -285.8697488506 
 last mr-sdci energy change          -0.0423940000 
 residual                            34.7680000000 
  type of calculation:          mr-sdci
 number of configurations:     1005971283
 total mr-sdci energy             -285.8697488444 
 last mr-sdci energy change          -0.0000000133 
 residual                            34.7680000000 
  type of calculation:          mr-sdci
 number of configurations:     1005971283
 total mr-sdci energy             -285.8551806164 
 last mr-sdci energy change          -0.0145680000 
 residual                            34.7530000000 
  type of calculation:          mr-sdci
 number of configurations:     1005971283
 total mr-sdci energy             -285.8551806077 
 last mr-sdci energy change          -0.0145680000 
 residual                            34.7530000000 
  type of calculation:          mr-sdci
 number of configurations:     1005971283
 total mr-sdci energy             -285.8551806070 
 last mr-sdci energy change          -0.0000000001 
 residual                            34.7530000000 
  type of calculation:          mr-sdci
 number of configurations:     1005971283
 total mr-sdci energy             -285.8472368606 
 last mr-sdci energy change          -0.0079437000 
 residual                            34.7450000000 
  type of calculation:          mr-sdci
 number of configurations:     1005971283
 total mr-sdci energy             -285.8462031815 
 last mr-sdci energy change          -0.0089774000 
 residual                            34.7440000000 
  type of calculation:          mr-sdci
 number of configurations:     1005971283
 total mr-sdci energy             -285.8462031784 
 last mr-sdci energy change          -0.0000000066 
 residual                            34.7440000000 
  type of calculation:          mr-sdci
 number of configurations:     1005971283
 total mr-sdci energy             -285.8462031621 
 last mr-sdci energy change          -0.0000000229 
 residual                            34.7440000000 
  type of calculation:          mr-sdci
 number of configurations:     1005971283
 total mr-sdci energy             -285.8106611450 
 last mr-sdci energy change          -0.0355420000 
 residual                            34.7090000000 
  --------------------------------------------------- 
 ************* Results for Spin-Orbit CI gamma=A **************** 
Final spin-orbit CI state energies: 


-------------- HT matrix in AU ----------------  
-34.936077    
 0.000000    -34.777751    
 0.000000     0.000000    -34.745386    
 0.000000     0.000000     0.000000    -34.708811    
-0.000040    -0.000021    -0.000000     0.000002    -34.810293    
 0.000015     0.000008    -0.000002     0.000002     0.000000    -34.810293    
 0.000052     0.000033     0.000005    -0.000007    -0.000000     0.000000    -34.810293    
 0.000021    -0.000007     0.000000    -0.000000     0.000000     0.000015    -0.000004    -34.767898    
-0.000009     0.000000    -0.000001    -0.000000    -0.000015     0.000000    -0.000012     0.000000    -34.767898    
-0.000028     0.000002    -0.000004     0.000011     0.000004     0.000012     0.000000    -0.000000     0.000000    -34.767898    
 0.000001    -0.000005     0.000001     0.000014     0.000000     0.000002    -0.000003     0.000000    -0.000001     0.000002    -34.753330    
-0.000003     0.000002    -0.000000    -0.000003    -0.000002     0.000000    -0.000006     0.000001     0.000000     0.000004    -0.000000    -34.753330    
-0.000005    -0.000002    -0.000002    -0.000015     0.000003     0.000006     0.000000    -0.000002    -0.000004     0.000000     0.000000     0.000000    -34.753330    
 0.000013    -0.000005    -0.000004    -0.000005     0.000000     0.000012    -0.000002     0.000000    -0.000003     0.000000     0.000000    -0.000004     0.000001    -34.744353    
-0.000005    -0.000001     0.000001     0.000002    -0.000012     0.000000    -0.000007     0.000003     0.000000     0.000001     0.000004     0.000000     0.000002    -0.000000    -34.744353    
-0.000015     0.000001     0.000001     0.000004     0.000002     0.000007     0.000000    -0.000000    -0.000001     0.000000    -0.000001    -0.000002     0.000000     0.000000     0.000000    -34.744353    
-------------- HT matrix in eV ---------------- 
 -950.659   
    0.000    -946.351   
    0.000       0.000    -945.470   
    0.000       0.000       0.000    -944.475   
   -0.001      -0.001      -0.000       0.000    -947.236   
    0.000       0.000      -0.000       0.000       0.000    -947.236   
    0.001       0.001       0.000      -0.000      -0.000       0.000    -947.236   
    0.001      -0.000       0.000      -0.000       0.000       0.000      -0.000    -946.083   
   -0.000       0.000      -0.000      -0.000      -0.000       0.000      -0.000       0.000    -946.083   
   -0.001       0.000      -0.000       0.000       0.000       0.000       0.000      -0.000       0.000    -946.083   
    0.000      -0.000       0.000       0.000       0.000       0.000      -0.000       0.000      -0.000       0.000    -945.686   
   -0.000       0.000      -0.000      -0.000      -0.000       0.000      -0.000       0.000       0.000       0.000      -0.000    -945.686   
   -0.000      -0.000      -0.000      -0.000       0.000       0.000       0.000      -0.000      -0.000       0.000       0.000       0.000    -945.686   
    0.000      -0.000      -0.000      -0.000       0.000       0.000      -0.000       0.000      -0.000       0.000       0.000      -0.000       0.000    -945.442   
   -0.000      -0.000       0.000       0.000      -0.000       0.000      -0.000       0.000       0.000       0.000       0.000       0.000       0.000      -0.000    -945.442   
   -0.000       0.000       0.000       0.000       0.000       0.000       0.000      -0.000      -0.000       0.000      -0.000      -0.000       0.000       0.000       0.000    -945.442   
-------------- HT matrix in cm-1 ------------------- 
Eref = -34.93607747
     0.00   
     0.00    34748.72   
     0.00        0.00    41851.91   
     0.00        0.00        0.00    49879.36   
    -8.86       -4.70       -0.01        0.33    27606.59   
     3.24        1.73       -0.42        0.44        0.00    27606.59   
    11.37        7.19        1.01       -1.43        0.00        0.00    27606.59   
     4.61       -1.64        0.09       -0.03        0.00        3.28       -0.83    36911.08   
    -1.89        0.07       -0.14       -0.03       -3.28        0.00       -2.55        0.00    36911.08   
    -6.07        0.38       -0.78        2.36        0.83        2.55        0.00        0.00        0.00    36911.08   
     0.24       -1.19        0.14        3.11        0.00        0.47       -0.74        0.00       -0.18        0.39    40108.45   
    -0.57        0.54       -0.05       -0.69       -0.47        0.00       -1.22        0.18        0.00        0.92        0.00    40108.45   
    -1.10       -0.33       -0.53       -3.23        0.74        1.22        0.00       -0.39       -0.92        0.00        0.00        0.00    40108.45   
     2.90       -1.04       -0.86       -1.19        0.00        2.65       -0.51        0.00       -0.71        0.10        0.00       -0.96        0.31    42078.77   
    -1.10       -0.15        0.32        0.45       -2.65        0.00       -1.63        0.71        0.00        0.24        0.96        0.00        0.47        0.00    42078.77   
    -3.27        0.32        0.27        0.85        0.51        1.63        0.00       -0.10       -0.24        0.00       -0.31       -0.47        0.00        0.00        0.00    42078.77   


Spin-Orbit CI: perturbational estimate of Spin-Orbit CI energies and wavefunctions 
                SO   1         SO   2         SO   3         SO   4         SO   5         SO   6         SO   7         SO   8

   energy  -286.03792789  -285.91214318  -285.91214317  -285.91214317  -285.87960127  -285.86974885  -285.86974885  -285.86974884
 
   NR   1    -0.99999983    -0.00038339    -0.00001075    -0.00037313     0.00000067    -0.00014787     0.00003964     0.00014760
   NR   2    -0.00000012     0.00094733     0.00002611     0.00077896     0.99999890     0.00009479     0.00006231    -0.00076944
   NR   3    -0.00000001     0.00007177    -0.00002708    -0.00000332    -0.00000014     0.00015304    -0.00003027    -0.00003950
   NR   4     0.00000002    -0.00006392     0.00002246    -0.00001269     0.00000011    -0.00018104     0.00000353     0.00002172
   NR   5    -0.00032092    -0.06896216    -0.33267842     0.94051506    -0.00065861     0.00010654     0.00034566     0.00003605
   NR   6     0.00011716     0.04240517    -0.94288519    -0.33040730     0.00024207     0.00030919    -0.00005688     0.00031706
   NR   7     0.00041184    -0.99671703    -0.01709709    -0.07912996     0.00100623     0.00000421     0.00028392    -0.00005324
   NR   8     0.00012478    -0.00010392     0.00033067     0.00010962     0.00075679     0.10393364    -0.13389561     0.98552981
   NR   9    -0.00005106    -0.00029794    -0.00012187     0.00030955    -0.00003315    -0.04931290    -0.99037152    -0.12935292
   NR  10    -0.00016445    -0.00000571     0.00028859     0.00000610    -0.00017626     0.99336083    -0.03515526    -0.10953571
   NR  11     0.00000594    -0.00006017     0.00003422     0.00000776     0.00022161    -0.00012283    -0.00005249     0.00000550
   NR  12    -0.00001421    -0.00009996    -0.00001411     0.00002737    -0.00010143    -0.00029008     0.00001784    -0.00002508
   NR  13    -0.00002739    -0.00000012     0.00011166    -0.00002313     0.00006143    -0.00000186    -0.00029942     0.00008213
   NR  14     0.00006901    -0.00004280     0.00017205     0.00005786     0.00014119    -0.00002575    -0.00013589    -0.00001618
   NR  15    -0.00002615    -0.00012496    -0.00006288     0.00016329     0.00002044    -0.00006015     0.00002041    -0.00013089
   NR  16    -0.00007781    -0.00000246     0.00011798     0.00000396    -0.00004395    -0.00000053    -0.00004826     0.00001274

                SO   9         SO  10         SO  11         SO  12         SO  13         SO  14         SO  15         SO  16

   energy  -285.85518062  -285.85518061  -285.85518061  -285.84723686  -285.84620318  -285.84620318  -285.84620316  -285.81066114
 
   NR   1    -0.00002424    -0.00000892    -0.00001795     0.00000045    -0.00006602     0.00000264     0.00008447    -0.00000005
   NR   2     0.00013927     0.00010552    -0.00018055    -0.00000053     0.00002000    -0.00006741    -0.00013179    -0.00000004
   NR   3     0.00026089    -0.00003066     0.00017136     0.99999101     0.00057863     0.00006751    -0.00418500     0.00000002
   NR   4     0.00046252     0.00000210     0.00004039     0.00000068    -0.00008412     0.00000103     0.00017818     0.99999985
   NR   5     0.00003318    -0.00004743     0.00003918    -0.00000074     0.00003138    -0.00017564     0.00005417     0.00001499
   NR   6     0.00003575    -0.00001655     0.00009676    -0.00002918     0.00014092     0.00005016     0.00015457     0.00001971
   NR   7     0.00003044    -0.00009740    -0.00005086     0.00007084    -0.00000783    -0.00011780     0.00000331    -0.00006434
   NR   8    -0.00007095     0.00007827    -0.00008219     0.00001885    -0.00001605     0.00013186    -0.00004179    -0.00000209
   NR   9    -0.00014363     0.00005041    -0.00024879    -0.00002791    -0.00006800    -0.00004036    -0.00012204    -0.00000254
   NR  10    -0.00005027     0.00028408     0.00011474    -0.00015740     0.00000392     0.00004967     0.00000334     0.00018236
   NR  11    -0.74567444     0.02408590     0.66587466     0.00008068    -0.00014345     0.00047191    -0.00013492     0.00031793
   NR  12     0.13833052     0.98316884     0.11934528    -0.00002792    -0.00031226    -0.00013764    -0.00042043    -0.00007087
   NR  13     0.65179284    -0.18110350     0.73645585    -0.00030155     0.00002981     0.00027240     0.00006901    -0.00033085
   NR  14    -0.00003303     0.00050716    -0.00005601     0.00379499     0.16268691     0.31689606     0.93439557    -0.00015313
   NR  15     0.00020934     0.00003084    -0.00049846    -0.00143109     0.01900216     0.94583778    -0.32407931     0.00005828
   NR  16    -0.00008306     0.00023597     0.00013106    -0.00118482     0.98649450    -0.07047969    -0.14785026     0.00010943
rescaling new expansion vector ... old norm=   4727.4012768429

 model space basis from reindexls .. 
 --SO-CI-------         -----NR-CI-------             ---model space---- 
 Gamma  root             S   irrep   root                S   ms* 
A          1             1   A         1                 1   0+
A          2             1   A         2                 1   0+
A          3             1   A         3                 1   0+
A          4             1   A         4                 1   0+
A          5             3   A         1                 3   0+
A          6             3   A         1                 3   1+
A          7             3   A         1                 3   1-
A          8             3   A         2                 3   0+
A          9             3   A         2                 3   1+
A         10             3   A         2                 3   1-
A         11             3   A         3                 3   0+
A         12             3   A         3                 3   1+
A         13             3   A         3                 3   1-
A         14             3   A         4                 3   0+
A         15             3   A         4                 3   1+
A         16             3   A         4                 3   1-

************************** SUMMARY *********************************

--------------  SO matrix for irrep A in eV ---------------- 
|1,0+;1,A,1>  -950.659   
|1,0+;1,A,2>     0.000    -946.351   
|1,0+;1,A,3>     0.000       0.000    -945.470   
|1,0+;1,A,4>     0.000       0.000       0.000    -944.475   
|3,0+;3,A,1>    -0.001      -0.001      -0.000       0.000    -947.236   
|3,1+;3,A,1>     0.000       0.000      -0.000       0.000       0.000    -947.236   
|3,1-;3,A,1>     0.001       0.001       0.000      -0.000      -0.000       0.000    -947.236   
|3,0+;3,A,2>     0.001      -0.000       0.000      -0.000       0.000       0.000      -0.000    -946.083   
|3,1+;3,A,2>    -0.000       0.000      -0.000      -0.000      -0.000       0.000      -0.000       0.000    -946.083   
|3,1-;3,A,2>    -0.001       0.000      -0.000       0.000       0.000       0.000       0.000      -0.000       0.000    -946.083   
|3,0+;3,A,3>     0.000      -0.000       0.000       0.000       0.000       0.000      -0.000       0.000      -0.000       0.000    -945.686   
|3,1+;3,A,3>    -0.000       0.000      -0.000      -0.000      -0.000       0.000      -0.000       0.000       0.000       0.000      -0.000    -945.686   
|3,1-;3,A,3>    -0.000      -0.000      -0.000      -0.000       0.000       0.000       0.000      -0.000      -0.000       0.000       0.000       0.000    -945.686   
|3,0+;3,A,4>     0.000      -0.000      -0.000      -0.000       0.000       0.000      -0.000       0.000      -0.000       0.000       0.000      -0.000       0.000    -945.442   
|3,1+;3,A,4>    -0.000      -0.000       0.000       0.000      -0.000       0.000      -0.000       0.000       0.000       0.000       0.000       0.000       0.000      -0.000    -945.442   
|3,1-;3,A,4>    -0.000       0.000       0.000       0.000       0.000       0.000       0.000      -0.000      -0.000       0.000      -0.000      -0.000       0.000       0.000       0.000    -945.442   

--------------  SO matrix for irrep A in cm-1 ------------------- 
Eref = -34.93607747
|1,0+;1,A,1>      0.00   
|1,0+;1,A,2>      0.00    34748.72   
|1,0+;1,A,3>      0.00        0.00    41851.91   
|1,0+;1,A,4>      0.00        0.00        0.00    49879.36   
|3,0+;3,A,1>     -8.86       -4.70       -0.01        0.33    27606.59   
|3,1+;3,A,1>      3.24        1.73       -0.42        0.44        0.00    27606.59   
|3,1-;3,A,1>     11.37        7.19        1.01       -1.43        0.00        0.00    27606.59   
|3,0+;3,A,2>      4.61       -1.64        0.09       -0.03        0.00        3.28       -0.83    36911.08   
|3,1+;3,A,2>     -1.89        0.07       -0.14       -0.03       -3.28        0.00       -2.55        0.00    36911.08   
|3,1-;3,A,2>     -6.07        0.38       -0.78        2.36        0.83        2.55        0.00        0.00        0.00    36911.08   
|3,0+;3,A,3>      0.24       -1.19        0.14        3.11        0.00        0.47       -0.74        0.00       -0.18        0.39    40108.45   
|3,1+;3,A,3>     -0.57        0.54       -0.05       -0.69       -0.47        0.00       -1.22        0.18        0.00        0.92        0.00    40108.45   
|3,1-;3,A,3>     -1.10       -0.33       -0.53       -3.23        0.74        1.22        0.00       -0.39       -0.92        0.00        0.00        0.00    40108.45   
|3,0+;3,A,4>      2.90       -1.04       -0.86       -1.19        0.00        2.65       -0.51        0.00       -0.71        0.10        0.00       -0.96        0.31    42078.77   
|3,1+;3,A,4>     -1.10       -0.15        0.32        0.45       -2.65        0.00       -1.63        0.71        0.00        0.24        0.96        0.00        0.47        0.00    42078.77   
|3,1-;3,A,4>     -3.27        0.32        0.27        0.85        0.51        1.63        0.00       -0.10       -0.24        0.00       -0.31       -0.47        0.00        0.00        0.00    42078.77   


 ** perturbational estimate of Spin-Orbit CI energies and wavefunctions in model space basis** 

                      A  1         A  2         A  3         A  4         A  5         A  6         A  7         A  8

            energy  -286.03792789  -285.91214318  -285.91214317  -285.91214317  -285.87960127  -285.86974885  -285.86974885  -285.86974884
          
   |1,0+;1,A,1>    -0.99999983    -0.00038339    -0.00001075    -0.00037313     0.00000067    -0.00014787     0.00003964     0.00014760
   |1,0+;1,A,2>    -0.00000012     0.00094733     0.00002611     0.00077896     0.99999890     0.00009479     0.00006231    -0.00076944
   |1,0+;1,A,3>    -0.00000001     0.00007177    -0.00002708    -0.00000332    -0.00000014     0.00015304    -0.00003027    -0.00003950
   |1,0+;1,A,4>     0.00000002    -0.00006392     0.00002246    -0.00001269     0.00000011    -0.00018104     0.00000353     0.00002172
   |3,0+;3,A,1>    -0.00032092    -0.06896216    -0.33267842     0.94051506    -0.00065861     0.00010654     0.00034566     0.00003605
   |3,1+;3,A,1>     0.00011716     0.04240517    -0.94288519    -0.33040730     0.00024207     0.00030919    -0.00005688     0.00031706
   |3,1-;3,A,1>     0.00041184    -0.99671703    -0.01709709    -0.07912996     0.00100623     0.00000421     0.00028392    -0.00005324
   |3,0+;3,A,2>     0.00012478    -0.00010392     0.00033067     0.00010962     0.00075679     0.10393364    -0.13389561     0.98552981
   |3,1+;3,A,2>    -0.00005106    -0.00029794    -0.00012187     0.00030955    -0.00003315    -0.04931290    -0.99037152    -0.12935292
   |3,1-;3,A,2>    -0.00016445    -0.00000571     0.00028859     0.00000610    -0.00017626     0.99336083    -0.03515526    -0.10953571
   |3,0+;3,A,3>     0.00000594    -0.00006017     0.00003422     0.00000776     0.00022161    -0.00012283    -0.00005249     0.00000550
   |3,1+;3,A,3>    -0.00001421    -0.00009996    -0.00001411     0.00002737    -0.00010143    -0.00029008     0.00001784    -0.00002508
   |3,1-;3,A,3>    -0.00002739    -0.00000012     0.00011166    -0.00002313     0.00006143    -0.00000186    -0.00029942     0.00008213
   |3,0+;3,A,4>     0.00006901    -0.00004280     0.00017205     0.00005786     0.00014119    -0.00002575    -0.00013589    -0.00001618
   |3,1+;3,A,4>    -0.00002615    -0.00012496    -0.00006288     0.00016329     0.00002044    -0.00006015     0.00002041    -0.00013089
   |3,1-;3,A,4>    -0.00007781    -0.00000246     0.00011798     0.00000396    -0.00004395    -0.00000053    -0.00004826     0.00001274

                      A  9         A 10         A 11         A 12         A 13         A 14         A 15         A 16

            energy  -285.85518062  -285.85518061  -285.85518061  -285.84723686  -285.84620318  -285.84620318  -285.84620316  -285.81066114
          
   |1,0+;1,A,1>    -0.00002424    -0.00000892    -0.00001795     0.00000045    -0.00006602     0.00000264     0.00008447    -0.00000005
   |1,0+;1,A,2>     0.00013927     0.00010552    -0.00018055    -0.00000053     0.00002000    -0.00006741    -0.00013179    -0.00000004
   |1,0+;1,A,3>     0.00026089    -0.00003066     0.00017136     0.99999101     0.00057863     0.00006751    -0.00418500     0.00000002
   |1,0+;1,A,4>     0.00046252     0.00000210     0.00004039     0.00000068    -0.00008412     0.00000103     0.00017818     0.99999985
   |3,0+;3,A,1>     0.00003318    -0.00004743     0.00003918    -0.00000074     0.00003138    -0.00017564     0.00005417     0.00001499
   |3,1+;3,A,1>     0.00003575    -0.00001655     0.00009676    -0.00002918     0.00014092     0.00005016     0.00015457     0.00001971
   |3,1-;3,A,1>     0.00003044    -0.00009740    -0.00005086     0.00007084    -0.00000783    -0.00011780     0.00000331    -0.00006434
   |3,0+;3,A,2>    -0.00007095     0.00007827    -0.00008219     0.00001885    -0.00001605     0.00013186    -0.00004179    -0.00000209
   |3,1+;3,A,2>    -0.00014363     0.00005041    -0.00024879    -0.00002791    -0.00006800    -0.00004036    -0.00012204    -0.00000254
   |3,1-;3,A,2>    -0.00005027     0.00028408     0.00011474    -0.00015740     0.00000392     0.00004967     0.00000334     0.00018236
   |3,0+;3,A,3>    -0.74567444     0.02408590     0.66587466     0.00008068    -0.00014345     0.00047191    -0.00013492     0.00031793
   |3,1+;3,A,3>     0.13833052     0.98316884     0.11934528    -0.00002792    -0.00031226    -0.00013764    -0.00042043    -0.00007087
   |3,1-;3,A,3>     0.65179284    -0.18110350     0.73645585    -0.00030155     0.00002981     0.00027240     0.00006901    -0.00033085
   |3,0+;3,A,4>    -0.00003303     0.00050716    -0.00005601     0.00379499     0.16268691     0.31689606     0.93439557    -0.00015313
   |3,1+;3,A,4>     0.00020934     0.00003084    -0.00049846    -0.00143109     0.01900216     0.94583778    -0.32407931     0.00005828
   |3,1-;3,A,4>    -0.00008306     0.00023597     0.00013106    -0.00118482     0.98649450    -0.07047969    -0.14785026     0.00010943
rescaling new expansion vector ... old norm=   4727.4012768429

Sorted Energies:
1  -286.03792789 
2  -285.91214318 
3  -285.91214317 
4  -285.91214317 
5  -285.87960127 
6  -285.86974885 
7  -285.86974885 
8  -285.86974884 
9  -285.85518062 
10  -285.85518061 
11  -285.85518061 
12  -285.84723686 
13  -285.84620318 
14  -285.84620318 
15  -285.84620316 
16  -285.81066114 
Not computing transition moment with identical bra and ket.
 Calculating transition moment for (1,1) => (1,2)
 starting transci.x -m 200000 at Fri May 27 08:42:36 EDT 2022

 -------------------- transci.x ------------------------

                          State No. 1            State No. 2

   Space symmetry:           a                      a   
   No. of CSFs:          ********               ********
   State energies:      -286.03792785          -285.87960131  a.u.

   Transition energy:     0.15832653  a.u.
   Transition energy:     4.31        eV

       Transition moment components:

                 x            y            z

electron          0.707798     0.273706     0.166942  e*bohr
frozen core       0.000000     0.000000     0.000000  e*bohr
total (elec)      0.707798     0.273706     0.166942  e*bohr


   Tr.dipole length:     0.777021    e*bohr
   Oscillator strength :  0.063728
   Einstein A coef.:     0.5132E+08  1/sec
   Einstein B coef.:     0.2450E+09  sec/g

                 x            y            z

<L> electron     0.272808     0.428710    -0.653462  e*bohr


   <L> value length:     0.827785    e*bohr
 --------------------------------------------------- 
  Calculating transition moment for (1,1) => (1,3)
 starting transci.x -m 200000 at Fri May 27 08:44:50 EDT 2022

 -------------------- transci.x ------------------------

                          State No. 1            State No. 2

   Space symmetry:           a                      a   
   No. of CSFs:          ********               ********
   State energies:      -286.03792785          -285.84723684  a.u.

   Transition energy:     0.19069100  a.u.
   Transition energy:     5.19        eV

       Transition moment components:

                 x            y            z

electron          0.044540     0.018752     0.073365  e*bohr
frozen core       0.000000     0.000000     0.000000  e*bohr
total (elec)      0.044540     0.018752     0.073365  e*bohr


   Tr.dipole length:     0.087852    e*bohr
   Oscillator strength :  0.000981
   Einstein A coef.:     0.1146E+07  1/sec
   Einstein B coef.:     0.3132E+07  sec/g

                 x            y            z

<L> electron    -0.044514    -0.218535    -0.091061  e*bohr


   <L> value length:     0.240896    e*bohr
 --------------------------------------------------- 
  Calculating transition moment for (1,1) => (1,4)
 starting transci.x -m 200000 at Fri May 27 08:47:06 EDT 2022

 -------------------- transci.x ------------------------

                          State No. 1            State No. 2

   Space symmetry:           a                      a   
   No. of CSFs:          ********               ********
   State energies:      -286.03792785          -285.81066116  a.u.

   Transition energy:     0.22726669  a.u.
   Transition energy:     6.18        eV

       Transition moment components:

                 x            y            z

electron         -0.044622    -0.019177    -0.379505  e*bohr
frozen core       0.000000     0.000000     0.000000  e*bohr
total (elec)     -0.044622    -0.019177    -0.379505  e*bohr


   Tr.dipole length:     0.382600    e*bohr
   Oscillator strength :  0.022179
   Einstein A coef.:     0.3680E+08  1/sec
   Einstein B coef.:     0.5941E+08  sec/g

                 x            y            z

<L> electron    -0.260683     0.456918     0.055329  e*bohr


   <L> value length:     0.528953    e*bohr
 --------------------------------------------------- 
 Not computing transition moment with identical bra and ket.
 Calculating transition moment for (1,2) => (1,3)
 starting transci.x -m 200000 at Fri May 27 08:49:19 EDT 2022

 -------------------- transci.x ------------------------

                          State No. 1            State No. 2

   Space symmetry:           a                      a   
   No. of CSFs:          ********               ********
   State energies:      -285.87960131          -285.84723684  a.u.

   Transition energy:     0.03236447  a.u.
   Transition energy:     0.88        eV

       Transition moment components:

                 x            y            z

electron         -0.337450    -0.067279     0.130801  e*bohr
frozen core       0.000000     0.000000     0.000000  e*bohr
total (elec)     -0.337450    -0.067279     0.130801  e*bohr


   Tr.dipole length:     0.368114    e*bohr
   Oscillator strength :  0.002924
   Einstein A coef.:     0.9839E+05  1/sec
   Einstein B coef.:     0.5499E+08  sec/g

                 x            y            z

<L> electron    -0.070889    -0.412688    -0.029939  e*bohr


   <L> value length:     0.419801    e*bohr
 --------------------------------------------------- 
  Calculating transition moment for (1,2) => (1,4)
 starting transci.x -m 200000 at Fri May 27 08:51:28 EDT 2022

 -------------------- transci.x ------------------------

                          State No. 1            State No. 2

   Space symmetry:           a                      a   
   No. of CSFs:          ********               ********
   State energies:      -285.87960131          -285.81066116  a.u.

   Transition energy:     0.06894016  a.u.
   Transition energy:     1.88        eV

       Transition moment components:

                 x            y            z

electron          0.328235     0.006748     0.047342  e*bohr
frozen core       0.000000     0.000000     0.000000  e*bohr
total (elec)      0.328235     0.006748     0.047342  e*bohr


   Tr.dipole length:     0.331700    e*bohr
   Oscillator strength :  0.005057
   Einstein A coef.:     0.7721E+06  1/sec
   Einstein B coef.:     0.4465E+08  sec/g

                 x            y            z

<L> electron     0.085307    -0.351175    -0.072036  e*bohr


   <L> value length:     0.368497    e*bohr
 --------------------------------------------------- 
 Not computing transition moment with identical bra and ket.
 Calculating transition moment for (1,3) => (1,4)
 starting transci.x -m 200000 at Fri May 27 08:53:37 EDT 2022

 -------------------- transci.x ------------------------

                          State No. 1            State No. 2

   Space symmetry:           a                      a   
   No. of CSFs:          ********               ********
   State energies:      -285.84723684          -285.81066116  a.u.

   Transition energy:     0.03657569  a.u.
   Transition energy:     1.00        eV

       Transition moment components:

                 x            y            z

electron         -1.421015    -0.288854    -0.273694  e*bohr
frozen core       0.000000     0.000000     0.000000  e*bohr
total (elec)     -1.421015    -0.288854    -0.273694  e*bohr


   Tr.dipole length:     1.475680    e*bohr
   Oscillator strength :  0.053099
   Einstein A coef.:     0.2282E+07  1/sec
   Einstein B coef.:     0.8837E+09  sec/g

                 x            y            z

<L> electron    -0.079944     0.172767     0.214523  e*bohr


   <L> value length:     0.286809    e*bohr
 --------------------------------------------------- 
 Not computing transition moment with identical bra and ket.
Not computing transition moment with identical bra and ket.
 Calculating transition moment for (2,1) => (2,2)
 starting transci.x -m 200000 at Fri May 27 08:55:46 EDT 2022

 -------------------- transci.x ------------------------

                          State No. 1            State No. 2

   Space symmetry:           a                      a   
   No. of CSFs:          ********               ********
   State energies:      -285.91214316          -285.86974886  a.u.

   Transition energy:     0.04239430  a.u.
   Transition energy:     1.15        eV

       Transition moment components:

                 x            y            z

electron          0.489257     0.199977     0.219155  e*bohr
frozen core       0.000000     0.000000     0.000000  e*bohr
total (elec)      0.489257     0.199977     0.219155  e*bohr


   Tr.dipole length:     0.572182    e*bohr
   Oscillator strength :  0.009253
   Einstein A coef.:     0.5343E+06  1/sec
   Einstein B coef.:     0.1329E+09  sec/g

                 x            y            z

<L> electron     0.053461    -0.077452    -0.171745  e*bohr


   <L> value length:     0.195840    e*bohr
 --------------------------------------------------- 
  Calculating transition moment for (2,1) => (2,3)
 starting transci.x -m 200000 at Fri May 27 08:59:48 EDT 2022

 -------------------- transci.x ------------------------

                          State No. 1            State No. 2

   Space symmetry:           a                      a   
   No. of CSFs:          ********               ********
   State energies:      -285.91214316          -285.85518061  a.u.

   Transition energy:     0.05696255  a.u.
   Transition energy:     1.55        eV

       Transition moment components:

                 x            y            z

electron         -0.068755    -0.001842    -0.013253  e*bohr
frozen core       0.000000     0.000000     0.000000  e*bohr
total (elec)     -0.068755    -0.001842    -0.013253  e*bohr


   Tr.dipole length:     0.070045    e*bohr
   Oscillator strength :  0.000186
   Einstein A coef.:     0.1942E+05  1/sec
   Einstein B coef.:     0.1991E+07  sec/g

                 x            y            z

<L> electron    -0.045748    -0.135224    -0.047759  e*bohr


   <L> value length:     0.150530    e*bohr
 --------------------------------------------------- 
  Calculating transition moment for (2,1) => (2,4)
 starting transci.x -m 200000 at Fri May 27 09:03:59 EDT 2022

 -------------------- transci.x ------------------------

                          State No. 1            State No. 2

   Space symmetry:           a                      a   
   No. of CSFs:          ********               ********
   State energies:      -285.91214316          -285.84620318  a.u.

   Transition energy:     0.06593998  a.u.
   Transition energy:     1.79        eV

       Transition moment components:

                 x            y            z

electron          0.239168     0.093345     0.058645  e*bohr
frozen core       0.000000     0.000000     0.000000  e*bohr
total (elec)      0.239168     0.093345     0.058645  e*bohr


   Tr.dipole length:     0.263351    e*bohr
   Oscillator strength :  0.003049
   Einstein A coef.:     0.4259E+06  1/sec
   Einstein B coef.:     0.2815E+08  sec/g

                 x            y            z

<L> electron     0.039337     0.092526    -0.109091  e*bohr


   <L> value length:     0.148355    e*bohr
 --------------------------------------------------- 
 Not computing transition moment with identical bra and ket.
 Calculating transition moment for (2,2) => (2,3)
 starting transci.x -m 200000 at Fri May 27 09:08:01 EDT 2022

 -------------------- transci.x ------------------------

                          State No. 1            State No. 2

   Space symmetry:           a                      a   
   No. of CSFs:          ********               ********
   State energies:      -285.86974886          -285.85518061  a.u.

   Transition energy:     0.01456825  a.u.
   Transition energy:     0.40        eV

       Transition moment components:

                 x            y            z

electron          0.161114     0.031695    -0.031505  e*bohr
frozen core       0.000000     0.000000     0.000000  e*bohr
total (elec)      0.161114     0.031695    -0.031505  e*bohr


   Tr.dipole length:     0.167197    e*bohr
   Oscillator strength :  0.000272
   Einstein A coef.:     0.1851E+04  1/sec
   Einstein B coef.:     0.1134E+08  sec/g

                 x            y            z

<L> electron     0.049477    -0.387598     0.027215  e*bohr


   <L> value length:     0.391690    e*bohr
 --------------------------------------------------- 
  Calculating transition moment for (2,2) => (2,4)
 starting transci.x -m 200000 at Fri May 27 09:11:58 EDT 2022

 -------------------- transci.x ------------------------

                          State No. 1            State No. 2

   Space symmetry:           a                      a   
   No. of CSFs:          ********               ********
   State energies:      -285.86974886          -285.84620318  a.u.

   Transition energy:     0.02354567  a.u.
   Transition energy:     0.64        eV

       Transition moment components:

                 x            y            z

electron         -0.061227    -0.033405    -0.001976  e*bohr
frozen core       0.000000     0.000000     0.000000  e*bohr
total (elec)     -0.061227    -0.033405    -0.001976  e*bohr


   Tr.dipole length:     0.069775    e*bohr
   Oscillator strength :  0.000076
   Einstein A coef.:     0.1361E+04  1/sec
   Einstein B coef.:     0.1976E+07  sec/g

                 x            y            z

<L> electron    -0.013710     0.113380     0.012097  e*bohr


   <L> value length:     0.114845    e*bohr
 --------------------------------------------------- 
 Not computing transition moment with identical bra and ket.
 Calculating transition moment for (2,3) => (2,4)
 starting transci.x -m 200000 at Fri May 27 09:15:54 EDT 2022

 -------------------- transci.x ------------------------

                          State No. 1            State No. 2

   Space symmetry:           a                      a   
   No. of CSFs:          ********               ********
   State energies:      -285.85518061          -285.84620318  a.u.

   Transition energy:     0.00897742  a.u.
   Transition energy:     0.24        eV

       Transition moment components:

                 x            y            z

electron         -0.043266    -0.018747    -0.025779  e*bohr
frozen core       0.000000     0.000000     0.000000  e*bohr
total (elec)     -0.043266    -0.018747    -0.025779  e*bohr


   Tr.dipole length:     0.053740    e*bohr
   Oscillator strength :  0.000017
   Einstein A coef.:     0.4476E+02  1/sec
   Einstein B coef.:     0.1172E+07  sec/g

                 x            y            z

<L> electron    -0.001791     0.556735     0.009874  e*bohr


   <L> value length:     0.556826    e*bohr
 --------------------------------------------------- 
 Not computing transition moment with identical bra and ket.
 --- ci properties for state 1 of  DRT 1 ----
starting exptvl.x -m 200000  at Fri May 27 09:19:53 EDT 2022

 -------------------- exptvl.x ------------------------
  === dipole moment === 
                     X               Y               Z   
   orign x       0.00000000      0.00000000      0.00000000
   orign y       0.00000000      0.00000000      0.00000000
   orign z       0.00000000      0.00000000      0.00000000
   nuclear      -1.08641853     -0.89970326     -0.83034259
   electronic    1.09179104      0.38495539      0.96784510
   total         0.00537251     -0.51474787      0.13750251
   total Dipole moment =   1.35430429    Debye
 !timer: exptvl required                 cpu_time=     0.179 walltime=     0.882
 --------------------------------------------------- 
  --- ci properties for state 2 of  DRT 1 ----
starting exptvl.x -m 200000  at Fri May 27 09:19:54 EDT 2022

 -------------------- exptvl.x ------------------------
  === dipole moment === 
                     X               Y               Z   
   orign x       0.00000000      0.00000000      0.00000000
   orign y       0.00000000      0.00000000      0.00000000
   orign z       0.00000000      0.00000000      0.00000000
   nuclear      -1.08641853     -0.89970326     -0.83034259
   electronic    2.95139231      1.00080366      1.54269129
   total         1.86497378      0.10110040      0.71234870
   total Dipole moment =   5.08082158    Debye
 --------------------------------------------------- 
  --- ci properties for state 3 of  DRT 1 ----
starting exptvl.x -m 200000  at Fri May 27 09:19:55 EDT 2022

 -------------------- exptvl.x ------------------------
  === dipole moment === 
                     X               Y               Z   
   orign x       0.00000000      0.00000000      0.00000000
   orign y       0.00000000      0.00000000      0.00000000
   orign z       0.00000000      0.00000000      0.00000000
   nuclear      -1.08641853     -0.89970326     -0.83034259
   electronic    1.59980518      0.54323283      1.05235572
   total         0.51338665     -0.35647043      0.22201313
   total Dipole moment =   1.68586540    Debye
 --------------------------------------------------- 
  --- ci properties for state 4 of  DRT 1 ----
starting exptvl.x -m 200000  at Fri May 27 09:19:55 EDT 2022

 -------------------- exptvl.x ------------------------
  === dipole moment === 
                     X               Y               Z   
   orign x       0.00000000      0.00000000      0.00000000
   orign y       0.00000000      0.00000000      0.00000000
   orign z       0.00000000      0.00000000      0.00000000
   nuclear      -1.08641853     -0.89970326     -0.83034259
   electronic    4.00520708      0.77276074      1.39521709
   total         2.91878855     -0.12694252      0.56487450
   total Dipole moment =   7.56336877    Debye
 --------------------------------------------------- 
  --- ci properties for state 1 of  DRT 2 ----
starting exptvl.x -m 200000  at Fri May 27 09:19:55 EDT 2022

 -------------------- exptvl.x ------------------------
  === dipole moment === 
                     X               Y               Z   
   orign x       0.00000000      0.00000000      0.00000000
   orign y       0.00000000      0.00000000      0.00000000
   orign z       0.00000000      0.00000000      0.00000000
   nuclear      -1.08641853     -0.89970326     -0.83034259
   electronic    2.51082053      0.99982202      1.53676179
   total         1.42440200      0.10011876      0.70641920
   total Dipole moment =   4.04926457    Debye
 --------------------------------------------------- 
  --- ci properties for state 2 of  DRT 2 ----
starting exptvl.x -m 200000  at Fri May 27 09:19:55 EDT 2022

 -------------------- exptvl.x ------------------------
  === dipole moment === 
                     X               Y               Z   
   orign x       0.00000000      0.00000000      0.00000000
   orign y       0.00000000      0.00000000      0.00000000
   orign z       0.00000000      0.00000000      0.00000000
   nuclear      -1.08641853     -0.89970326     -0.83034259
   electronic    1.26354891      0.48677958      1.08951935
   total         0.17713038     -0.41292368      0.25917676
   total Dipole moment =   1.31841510    Debye
 --------------------------------------------------- 
  --- ci properties for state 3 of  DRT 2 ----
starting exptvl.x -m 200000  at Fri May 27 09:19:56 EDT 2022

 -------------------- exptvl.x ------------------------
  === dipole moment === 
                     X               Y               Z   
   orign x       0.00000000      0.00000000      0.00000000
   orign y       0.00000000      0.00000000      0.00000000
   orign z       0.00000000      0.00000000      0.00000000
   nuclear      -1.08641853     -0.89970326     -0.83034259
   electronic    1.13029463      0.46778672      1.05320586
   total         0.04387610     -0.43191654      0.22286327
   total Dipole moment =   1.24037624    Debye
 --------------------------------------------------- 
  --- ci properties for state 4 of  DRT 2 ----
starting exptvl.x -m 200000  at Fri May 27 09:19:57 EDT 2022

 -------------------- exptvl.x ------------------------
  === dipole moment === 
                     X               Y               Z   
   orign x       0.00000000      0.00000000      0.00000000
   orign y       0.00000000      0.00000000      0.00000000
   orign z       0.00000000      0.00000000      0.00000000
   nuclear      -1.08641853     -0.89970326     -0.83034259
   electronic    0.99207101      0.41112823      0.97771959
   total        -0.09434752     -0.48857503      0.14737700
   total Dipole moment =   1.31908446    Debye
 --------------------------------------------------- 
 starting mo_convert.x at Fri May 27 09:19:57 EDT 2022

 -------------------- mo_convert.x ------------------------
 --------------------------------------------------- 
 starting pymolcas molcas.input.molden > molcas.output.molden at Fri May 27 09:19:57 EDT 2022

Generating link ln -s ./molcas.OrdInt ORDINT 
 -------------------- molden ------------------------
 --------------------------------------------------- 
 starting mo_convert.x at Fri May 27 09:20:25 EDT 2022

 -------------------- mo_convert.x ------------------------
 --------------------------------------------------- 
 starting pymolcas molcas.input.molden > molcas.output.molden at Fri May 27 09:20:26 EDT 2022

Generating link ln -s ./molcas.OrdInt ORDINT 
 -------------------- molden ------------------------
 --------------------------------------------------- 
 starting mo_convert.x at Fri May 27 09:20:49 EDT 2022

 -------------------- mo_convert.x ------------------------
 --------------------------------------------------- 
 starting pymolcas molcas.input.molden > molcas.output.molden at Fri May 27 09:20:50 EDT 2022

Generating link ln -s ./molcas.OrdInt ORDINT 
 -------------------- molden ------------------------
 --------------------------------------------------- 
 starting mo_convert.x at Fri May 27 09:21:11 EDT 2022

 -------------------- mo_convert.x ------------------------
 --------------------------------------------------- 
 starting pymolcas molcas.input.molden > molcas.output.molden at Fri May 27 09:21:11 EDT 2022

Generating link ln -s ./molcas.OrdInt ORDINT 
 -------------------- molden ------------------------
 --------------------------------------------------- 
 starting mo_convert.x at Fri May 27 09:21:33 EDT 2022

 -------------------- mo_convert.x ------------------------
 --------------------------------------------------- 
 starting pymolcas molcas.input.molden > molcas.output.molden at Fri May 27 09:21:33 EDT 2022

Generating link ln -s ./molcas.OrdInt ORDINT 
 -------------------- molden ------------------------
 --------------------------------------------------- 
 starting mo_convert.x at Fri May 27 09:21:54 EDT 2022

 -------------------- mo_convert.x ------------------------
 --------------------------------------------------- 
 starting pymolcas molcas.input.molden > molcas.output.molden at Fri May 27 09:21:54 EDT 2022

Generating link ln -s ./molcas.OrdInt ORDINT 
 -------------------- molden ------------------------
 --------------------------------------------------- 
 starting mo_convert.x at Fri May 27 09:22:16 EDT 2022

 -------------------- mo_convert.x ------------------------
 --------------------------------------------------- 
 starting pymolcas molcas.input.molden > molcas.output.molden at Fri May 27 09:22:16 EDT 2022

Generating link ln -s ./molcas.OrdInt ORDINT 
 -------------------- molden ------------------------
 --------------------------------------------------- 
 starting mo_convert.x at Fri May 27 09:22:37 EDT 2022

 -------------------- mo_convert.x ------------------------
 --------------------------------------------------- 
 starting pymolcas molcas.input.molden > molcas.output.molden at Fri May 27 09:22:37 EDT 2022

Generating link ln -s ./molcas.OrdInt ORDINT 
 -------------------- molden ------------------------
 --------------------------------------------------- 
 starting mo_convert.x at Fri May 27 09:22:58 EDT 2022

 -------------------- mo_convert.x ------------------------
 --------------------------------------------------- 
 starting pymolcas molcas.input.molden > molcas.output.molden at Fri May 27 09:22:59 EDT 2022

Generating link ln -s ./molcas.OrdInt ORDINT 
 -------------------- molden ------------------------
 --------------------------------------------------- 
 starting mo_convert.x at Fri May 27 09:23:20 EDT 2022

 -------------------- mo_convert.x ------------------------
 --------------------------------------------------- 
 starting pymolcas molcas.input.molden > molcas.output.molden at Fri May 27 09:23:20 EDT 2022

Generating link ln -s ./molcas.OrdInt ORDINT 
 -------------------- molden ------------------------
 --------------------------------------------------- 
 starting mo_convert.x at Fri May 27 09:23:42 EDT 2022

 -------------------- mo_convert.x ------------------------
 --------------------------------------------------- 
 starting pymolcas molcas.input.molden > molcas.output.molden at Fri May 27 09:23:42 EDT 2022

Generating link ln -s ./molcas.OrdInt ORDINT 
 -------------------- molden ------------------------
 --------------------------------------------------- 
 starting mo_convert.x at Fri May 27 09:24:03 EDT 2022

 -------------------- mo_convert.x ------------------------
 --------------------------------------------------- 
 starting pymolcas molcas.input.molden > molcas.output.molden at Fri May 27 09:24:08 EDT 2022

Generating link ln -s ./molcas.OrdInt ORDINT 
 -------------------- molden ------------------------
 --------------------------------------------------- 
 starting mo_convert.x at Fri May 27 09:24:28 EDT 2022

 -------------------- mo_convert.x ------------------------
 --------------------------------------------------- 
 starting pymolcas molcas.input.molden > molcas.output.molden at Fri May 27 09:24:29 EDT 2022

Generating link ln -s ./molcas.OrdInt ORDINT 
 -------------------- molden ------------------------
 --------------------------------------------------- 
 starting mo_convert.x at Fri May 27 09:24:50 EDT 2022

 -------------------- mo_convert.x ------------------------
 --------------------------------------------------- 
 starting pymolcas molcas.input.molden > molcas.output.molden at Fri May 27 09:24:51 EDT 2022

Generating link ln -s ./molcas.OrdInt ORDINT 
 -------------------- molden ------------------------
 --------------------------------------------------- 
 

 +++++++++++ STARTING GRADIENTS AND NAD. COUPLINGS CALCULATION +++++++++++ 

 Using new transition density code ... 
INFO: this is a frozen core gradient calculation
starting cidrt.x  -m 200000 < cidrtin.cigrd > cidrtls.cigrd at Fri May 27 09:25:11 EDT 2022

 -------------------- cidrt.x ------------------------
 total number of orbitals            :   246
 number of frozen core orbitals      :    18
 number of frozen virtual orbitals   :     0
 number of internal orbitals         :    14
 number of external orbitals         :   214
 spatial symmetry:   a  
 
 total number of configurations  282461366
 number of reference configurations  1666
 --------------------------------------------------- 
 starting tran.x -m 200000  at Fri May 27 09:25:18 EDT 2022

 -------------------- tran.x ------------------------
 --------------------------------------------------- 
 ---- Computing 8 gradient(s)  ----

 --- Computing gradient for DRT:1, State; 1

starting cigrd.x -m 200000 at Fri May 27 09:33:42 EDT 2022

 -------------------- cigrd.x ------------------------
 Total energy (ciudg) :  -286.037927846453 
  Effective energy     :  -286.037927866071 
  Delta E              :     0.000000019618 
  --------------------------------------------------- 
 starting tran.x -m 200000  at Fri May 27 09:45:05 EDT 2022

 -------------------- tran.x ------------------------
 --------------------------------------------------- 
 starting pymolcas molcas.input.alaska > molcas.output.alaska  at Fri May 27 09:52:04 EDT 2022

Generating link ln -s ./molcas.OrdInt ORDINT 
 -------------------- alaska ------------------------
 --------------------------------------------------- 
 cartesian gradient by alaska (MOLCAS)

 === Gradient of DRT 1, state 1 === 
   0.308098D-01   0.611902D-01   0.637928D-01
  -0.643517D-05  -0.761358D-04   0.361196D-05
   0.360003D-05   0.460894D-04   0.207705D-05
   0.415261D-06   0.161174D-06   0.255359D-05
   0.260479D-05   0.165072D-06   0.271015D-06
   0.161858D-05  -0.126683D-06  -0.686238D-06
  -0.362179D-05  -0.309562D-06  -0.311722D-06
  -0.308099D-01  -0.611603D-01  -0.637993D-01
   0.294898D-06   0.161188D-06  -0.124861D-05
   0.513706D-06  -0.758070D-07   0.152059D-05
   0.789023D-06  -0.105041D-06  -0.120312D-05
  -0.379743D-06  -0.776533D-07   0.138234D-05
  -0.321918D-06  -0.438570D-07  -0.151936D-05
   0.100600D-05   0.378422D-06   0.203019D-07
===================================
 --- Computing gradient for DRT:1, State; 2

starting cigrd.x -m 200000 at Fri May 27 09:53:25 EDT 2022

 -------------------- cigrd.x ------------------------
 Total energy (ciudg) :  -285.879601314007 
  Effective energy     :  -285.879601334113 
  Delta E              :     0.000000020106 
  --------------------------------------------------- 
 starting tran.x -m 200000  at Fri May 27 10:05:56 EDT 2022

 -------------------- tran.x ------------------------
 --------------------------------------------------- 
 starting pymolcas molcas.input.alaska > molcas.output.alaska  at Fri May 27 10:13:05 EDT 2022

Generating link ln -s ./molcas.OrdInt ORDINT 
 -------------------- alaska ------------------------
 --------------------------------------------------- 
 cartesian gradient by alaska (MOLCAS)

 === Gradient of DRT 1, state 2 === 
  -0.770025D-01   0.641851D-01   0.269176D-02
   0.905156D-01  -0.312760D-01  -0.384260D-02
  -0.185769D-01   0.452066D-02   0.289713D-01
  -0.339524D-01  -0.327060D-02  -0.276166D-01
   0.122506D-01   0.213180D-02   0.760372D-02
   0.211620D-01   0.670501D-02  -0.139669D-01
  -0.527033D-02  -0.511886D-03   0.542686D-02
   0.942975D-03  -0.162313D-01   0.557089D-02
   0.905139D-02  -0.195025D-01  -0.443460D-02
   0.290435D-03  -0.303402D-02  -0.273658D-02
  -0.547107D-03  -0.276850D-02   0.238189D-02
   0.474152D-03   0.321902D-04  -0.513144D-03
   0.338635D-03   0.364711D-03   0.462790D-03
   0.323404D-03  -0.134463D-02   0.121773D-05
===================================
 --- Computing gradient for DRT:1, State; 3

starting cigrd.x -m 200000 at Fri May 27 10:14:26 EDT 2022

 -------------------- cigrd.x ------------------------
 Total energy (ciudg) :  -285.847236844183 
  Effective energy     :  -285.847236864204 
  Delta E              :     0.000000020021 
  --------------------------------------------------- 
 starting tran.x -m 200000  at Fri May 27 10:26:47 EDT 2022

 -------------------- tran.x ------------------------
 --------------------------------------------------- 
 starting pymolcas molcas.input.alaska > molcas.output.alaska  at Fri May 27 10:34:05 EDT 2022

Generating link ln -s ./molcas.OrdInt ORDINT 
 -------------------- alaska ------------------------
 --------------------------------------------------- 
 cartesian gradient by alaska (MOLCAS)

 === Gradient of DRT 1, state 3 === 
  -0.918419D-02   0.625908D-01   0.622028D-01
   0.608161D-01  -0.122081D-01  -0.110968D-02
   0.287758D-01  -0.224272D-02   0.258695D-01
   0.152200D-01   0.571740D-02  -0.318613D-01
  -0.308266D-01   0.277903D-02   0.187661D-01
  -0.196534D-01   0.108598D-02  -0.222956D-01
  -0.222148D-01  -0.886463D-03   0.392908D-02
  -0.234245D-01  -0.501554D-01  -0.511335D-01
  -0.457750D-03  -0.424604D-02  -0.468513D-02
  -0.583614D-04  -0.663530D-03  -0.147178D-02
  -0.527699D-03  -0.109666D-02   0.162905D-02
   0.389103D-03  -0.208659D-05  -0.103537D-02
   0.242453D-03  -0.110194D-03   0.102719D-02
   0.903804D-03  -0.562086D-03   0.168599D-03
===================================
 --- Computing gradient for DRT:1, State; 4

starting cigrd.x -m 200000 at Fri May 27 10:35:23 EDT 2022

 -------------------- cigrd.x ------------------------
 Total energy (ciudg) :  -285.810661158666 
  Effective energy     :  -285.810661176813 
  Delta E              :     0.000000018147 
  --------------------------------------------------- 
 starting tran.x -m 200000  at Fri May 27 10:45:49 EDT 2022

 -------------------- tran.x ------------------------
 --------------------------------------------------- 
 starting pymolcas molcas.input.alaska > molcas.output.alaska  at Fri May 27 10:53:07 EDT 2022

Generating link ln -s ./molcas.OrdInt ORDINT 
 -------------------- alaska ------------------------
 --------------------------------------------------- 
 cartesian gradient by alaska (MOLCAS)

 === Gradient of DRT 1, state 4 === 
  -0.138895D-01   0.494142D-01   0.388128D-01
   0.605895D-01   0.146172D-02   0.119165D-03
   0.301999D-01  -0.477038D-03   0.841254D-02
   0.235976D-01  -0.785858D-03  -0.734834D-02
  -0.294960D-01  -0.899236D-03  -0.609504D-04
  -0.391745D-01  -0.252824D-02   0.182556D-02
  -0.119742D-01   0.218822D-02  -0.656864D-02
  -0.215842D-01  -0.425858D-01  -0.358268D-01
   0.899234D-03  -0.452628D-02  -0.213436D-03
   0.347268D-05  -0.137202D-03  -0.311183D-02
  -0.709416D-03  -0.104731D-02   0.364816D-02
   0.633843D-04  -0.488643D-04  -0.100417D-02
   0.241019D-04  -0.646154D-04   0.136402D-02
   0.145071D-02   0.363267D-04  -0.480558D-04
===================================
 --- Computing gradient for DRT:2, State; 1

starting cigrd.x -m 200000 at Fri May 27 10:54:28 EDT 2022

 -------------------- cigrd.x ------------------------
 Total energy (ciudg) :  -285.912143160684 
  Effective energy     :  -285.912143179800 
  Delta E              :     0.000000019116 
  --------------------------------------------------- 
 starting tran.x -m 200000  at Fri May 27 11:04:59 EDT 2022

 -------------------- tran.x ------------------------
 --------------------------------------------------- 
 starting pymolcas molcas.input.alaska > molcas.output.alaska  at Fri May 27 11:12:16 EDT 2022

Generating link ln -s ./molcas.OrdInt ORDINT 
 -------------------- alaska ------------------------
 --------------------------------------------------- 
 cartesian gradient by alaska (MOLCAS)

 === Gradient of DRT 2, state 1 === 
  -0.733243D-01   0.370298D-01   0.107551D-01
   0.838699D-01  -0.309392D-01  -0.191434D-01
  -0.173933D-01  -0.128296D-02   0.301002D-01
  -0.340711D-01   0.674072D-02  -0.239542D-01
   0.109576D-01   0.294745D-02   0.698115D-02
   0.240738D-01   0.442846D-02  -0.185736D-01
  -0.734027D-02  -0.733821D-03   0.996580D-02
   0.108297D-01   0.366295D-02   0.157243D-01
   0.157361D-02  -0.167857D-01  -0.115118D-01
   0.262637D-03  -0.210142D-02  -0.201871D-02
  -0.379027D-03  -0.167309D-02   0.154130D-02
   0.451581D-03   0.258199D-03  -0.353389D-03
   0.180459D-03  -0.592125D-03   0.335229D-03
   0.308701D-03  -0.959267D-03   0.151949D-03
===================================
 --- Computing gradient for DRT:2, State; 2

starting cigrd.x -m 200000 at Fri May 27 11:13:32 EDT 2022

 -------------------- cigrd.x ------------------------
 Total energy (ciudg) :  -285.869748857955 
  Effective energy     :  -285.869748877483 
  Delta E              :     0.000000019528 
  --------------------------------------------------- 
 starting tran.x -m 200000  at Fri May 27 11:23:17 EDT 2022

 -------------------- tran.x ------------------------
 --------------------------------------------------- 
 starting pymolcas molcas.input.alaska > molcas.output.alaska  at Fri May 27 11:30:30 EDT 2022

Generating link ln -s ./molcas.OrdInt ORDINT 
 -------------------- alaska ------------------------
 --------------------------------------------------- 
 cartesian gradient by alaska (MOLCAS)

 === Gradient of DRT 2, state 2 === 
   0.300585D-01   0.582736D-01   0.489422D-01
   0.181660D-01   0.772209D-02  -0.860027D-02
   0.182988D-01  -0.579505D-03   0.243310D-01
   0.240835D-01  -0.432042D-02  -0.128379D-01
  -0.225125D-01  -0.813067D-03   0.185849D-01
  -0.176110D-01  -0.180739D-02  -0.289752D-01
  -0.232683D-01   0.149507D-02   0.944720D-02
  -0.281330D-01  -0.570949D-01  -0.542799D-01
   0.145530D-03  -0.311877D-02   0.342778D-02
  -0.445110D-03  -0.225604D-03  -0.909397D-03
  -0.361611D-03   0.350817D-03   0.837762D-03
   0.307871D-03  -0.963684D-04  -0.884908D-03
   0.468830D-03   0.176683D-03   0.873789D-03
   0.802462D-03   0.378400D-04   0.428888D-04
===================================
 --- Computing gradient for DRT:2, State; 3

starting cigrd.x -m 200000 at Fri May 27 11:31:48 EDT 2022

 -------------------- cigrd.x ------------------------
 Total energy (ciudg) :  -285.855180607310 
  Effective energy     :  -285.855180627892 
  Delta E              :     0.000000020582 
  --------------------------------------------------- 
 starting tran.x -m 200000  at Fri May 27 11:44:02 EDT 2022

 -------------------- tran.x ------------------------
 --------------------------------------------------- 
 starting pymolcas molcas.input.alaska > molcas.output.alaska  at Fri May 27 11:50:59 EDT 2022

Generating link ln -s ./molcas.OrdInt ORDINT 
 -------------------- alaska ------------------------
 --------------------------------------------------- 
 cartesian gradient by alaska (MOLCAS)

 === Gradient of DRT 2, state 3 === 
  -0.169065D-02   0.680058D-01   0.624262D-01
   0.497860D-01  -0.894742D-02   0.159996D-01
   0.245687D-01   0.937130D-04   0.206051D-01
   0.175486D-01   0.306564D-02  -0.393943D-01
  -0.209010D-01   0.185586D-02   0.308196D-01
  -0.295372D-01   0.896019D-03  -0.126472D-01
  -0.114509D-01  -0.185782D-03  -0.159962D-01
  -0.288716D-01  -0.586361D-01  -0.582187D-01
  -0.223342D-03  -0.354220D-02  -0.334733D-02
   0.880916D-04  -0.997886D-03  -0.134218D-02
  -0.444725D-03  -0.437598D-03   0.164956D-02
   0.576156D-03  -0.100033D-03  -0.128976D-02
   0.122658D-03  -0.449026D-03   0.109479D-02
   0.429226D-03  -0.621022D-03  -0.359291D-03
===================================
 --- Computing gradient for DRT:2, State; 4

starting cigrd.x -m 200000 at Fri May 27 11:52:20 EDT 2022

 -------------------- cigrd.x ------------------------
 Total energy (ciudg) :  -285.846203185263 
  Effective energy     :  -285.846203205115 
[...]
   1.562427E-01   2.360468E-02  -3.760770E-01
   1.207835E-01  -6.974164E-02   2.103090E-01
   2.766194E-02  -6.365303E-03  -1.228105E-01
  -3.299899E-01  -2.950317E-03   3.977669E-01
   3.520794E-01   7.543174E-03  -2.914840E-01
   3.456919E-01   5.347345E-01   7.365058E-01
   2.926491E-02  -1.038911E-01  -1.853399E-02
   8.414190E-03   7.639056E-03  -1.085746E-02
   5.424734E-03  -4.515427E-03   7.835087E-03
  -2.221609E-03  -5.125212E-04   1.185901E-03
  -8.995221E-03   7.195438E-03  -8.301223E-05
  -7.433518E-03   3.634854E-03  -6.099852E-03
===================================

 Norm of the nonadiabatic coupling vector: 
 |h(drt2.state1,drt2.state2)|= 1.58974274068961 

 Cross-check of the non-adiabatic coupling term:
  DeltaE= -0.0423943028000053

  <L>*dE form CIGRD   :    0.0000759282    -0.0236023922    -0.0004186013
  <L>*dE form NADCOUPL:   -0.0022658047     0.0032844731     0.0072838929
 -------------------------------------------------------------------------
  Difference          :    0.0023417329    -0.0268868653    -0.0077024943

 NOTE: This test is meaningless at a point of conical intersection!


 -------- NAD. COUPLING for DRT:2 STATE:1 AND DRT:2 STATE:3 --------
opening file =ciudgls.drt2.sp
opening file =ciudgls.drt2.sp
extracted: energy1= -285.9121431605   energy2=-285.8551806071   deltae=-0.0569625534000124
starting cigrd.x -m 200000 at Fri May 27 14:33:16 EDT 2022

 -------------------- cigrd.x ------------------------
 Total energy (ciudg) :    -0.000000000170 
  Effective energy     :     0.000000003627 
  Delta E              :    -0.000000003797 
  --------------------------------------------------- 
 starting tran.x -m 200000  at Fri May 27 14:43:14 EDT 2022

 -------------------- tran.x ------------------------
 --------------------------------------------------- 
  adding keyword NONUC to alaska input
starting pymolcas molcas.input.alaska > molcas.output.alaska  at Fri May 27 14:50:09 EDT 2022

Generating link ln -s ./molcas.OrdInt ORDINT 
 -------------------- alaska ------------------------
 --------------------------------------------------- 
 cartesian gradient by alaska (MOLCAS)

 Calculating the Dx(r,s) term of D[CSF] nonadiabatic coupling term.
dxcalc: INPUT LINE SEPARATOR 
 
starting tran.x -m 200000  at Fri May 27 14:51:16 EDT 2022

 -------------------- tran.x ------------------------
 --------------------------------------------------- 
 starting tdmrunfile.x > tdmrunfilels at Fri May 27 14:51:16 EDT 2022

 -------------------- tdmrunfile.x ------------------------
 --------------------------------------------------- 
 starting pymolcas molcas.input.alaska > molcas.output.alaska  at Fri May 27 14:51:16 EDT 2022

Generating link ln -s ./molcas.OrdInt ORDINT 
 -------------------- alaska ------------------------
 --------------------------------------------------- 
 
 === Non-adiabatic coupling for DRT 2 STATE 1 and DRT 2 STATE 3 === 
   7.586295E-02  -8.865847E-02  -8.458942E-02
  -1.598307E-01   8.762465E-02  -5.807985E-01
   3.700055E-01   6.114048E-02   1.645932E-01
   1.061216E-01  -7.120518E-03   3.521362E-01
  -7.445941E-01  -1.849305E-03  -4.807385E-01
   3.275127E-01  -4.169752E-02  -3.583890E-01
   1.081515E-01   1.155253E-02   9.022373E-01
  -7.896183E-02   1.897621E-02   3.703583E-02
  -7.622569E-03  -1.862489E-02   4.416782E-02
   5.392355E-03  -2.961084E-02  -8.271016E-03
   5.085652E-03   3.137857E-02  -1.409617E-03
  -7.697680E-03  -1.113275E-02  -6.175038E-03
   3.350903E-03  -1.427885E-02  -7.812692E-04
  -2.453431E-03   4.364922E-03   1.352521E-02
===================================

 Norm of the nonadiabatic coupling vector: 
 |h(drt2.state1,drt2.state3)|= 1.59880052087816 

 Cross-check of the non-adiabatic coupling term:
  DeltaE= -0.0569625534000124

  <L>*dE form CIGRD   :    0.0001020199    -0.0317130472    -0.0005624483
  <L>*dE form NADCOUPL:    0.0026049395     0.0077036428     0.0027243645
 -------------------------------------------------------------------------
  Difference          :   -0.0025029196    -0.0394166900    -0.0032868128

 NOTE: This test is meaningless at a point of conical intersection!


 -------- NAD. COUPLING for DRT:2 STATE:1 AND DRT:2 STATE:4 --------
opening file =ciudgls.drt2.sp
opening file =ciudgls.drt2.sp
extracted: energy1= -285.9121431605   energy2=-285.8462031850   deltae=-0.0659399755000436
starting cigrd.x -m 200000 at Fri May 27 14:52:22 EDT 2022

 -------------------- cigrd.x ------------------------
 Total energy (ciudg) :    -0.000000000117 
  Effective energy     :     0.000000000400 
  Delta E              :    -0.000000000517 
  --------------------------------------------------- 
 starting tran.x -m 200000  at Fri May 27 15:06:18 EDT 2022

 -------------------- tran.x ------------------------
 --------------------------------------------------- 
  adding keyword NONUC to alaska input
starting pymolcas molcas.input.alaska > molcas.output.alaska  at Fri May 27 15:13:08 EDT 2022

Generating link ln -s ./molcas.OrdInt ORDINT 
 -------------------- alaska ------------------------
 --------------------------------------------------- 
 cartesian gradient by alaska (MOLCAS)

 Calculating the Dx(r,s) term of D[CSF] nonadiabatic coupling term.
dxcalc: INPUT LINE SEPARATOR 
 
starting tran.x -m 200000  at Fri May 27 15:14:18 EDT 2022

 -------------------- tran.x ------------------------
 --------------------------------------------------- 
 starting tdmrunfile.x > tdmrunfilels at Fri May 27 15:14:18 EDT 2022

 -------------------- tdmrunfile.x ------------------------
 --------------------------------------------------- 
 starting pymolcas molcas.input.alaska > molcas.output.alaska  at Fri May 27 15:14:18 EDT 2022

Generating link ln -s ./molcas.OrdInt ORDINT 
 -------------------- alaska ------------------------
 --------------------------------------------------- 
 
 === Non-adiabatic coupling for DRT 2 STATE 1 and DRT 2 STATE 4 === 
   6.337465E-02  -1.072879E-01  -2.324952E-01
  -4.203042E-01  -1.994865E-04   8.942903E-02
   4.178505E-01   1.067729E-02  -2.965906E-01
   4.231185E-01  -4.864218E-02   1.885189E-01
  -3.636338E-01  -3.577978E-03  -1.162872E-01
  -4.817622E-01  -1.274571E-02   2.963263E-01
   2.505801E-01   2.979434E-03  -1.669459E-01
   1.204675E-01   1.626079E-01   2.332496E-01
   8.958445E-03  -1.557658E-02   9.856759E-03
   5.754888E-03   1.191168E-02  -2.919131E-03
   3.656629E-03   1.627573E-03   6.600599E-03
  -1.743098E-03  -1.514849E-03  -2.807884E-03
  -8.593013E-03   8.033764E-03   2.325895E-03
  -4.239972E-03   4.948468E-03  -2.799210E-03
===================================

 Norm of the nonadiabatic coupling vector: 
 |h(drt2.state1,drt2.state4)|= 1.17753104404684 

 Cross-check of the non-adiabatic coupling term:
  DeltaE= -0.0659399755000436

  <L>*dE form CIGRD   :    0.0001180985    -0.0367110923    -0.0006510913
  <L>*dE form NADCOUPL:   -0.0025932837    -0.0061012109     0.0071974084
 -------------------------------------------------------------------------
  Difference          :    0.0027113822    -0.0306098813    -0.0078484997

 NOTE: This test is meaningless at a point of conical intersection!


 -------- NAD. COUPLING for DRT:2 STATE:2 AND DRT:2 STATE:3 --------
opening file =ciudgls.drt2.sp
opening file =ciudgls.drt2.sp
extracted: energy1= -285.8697488577   energy2=-285.8551806071   deltae=-0.0145682506000071
starting cigrd.x -m 200000 at Fri May 27 15:15:24 EDT 2022

 -------------------- cigrd.x ------------------------
 Total energy (ciudg) :     0.000000000525 
  Effective energy     :     0.000000004318 
  Delta E              :    -0.000000003793 
  --------------------------------------------------- 
 starting tran.x -m 200000  at Fri May 27 15:25:49 EDT 2022

 -------------------- tran.x ------------------------
 --------------------------------------------------- 
  adding keyword NONUC to alaska input
starting pymolcas molcas.input.alaska > molcas.output.alaska  at Fri May 27 15:32:47 EDT 2022

Generating link ln -s ./molcas.OrdInt ORDINT 
 -------------------- alaska ------------------------
 --------------------------------------------------- 
 cartesian gradient by alaska (MOLCAS)

 Calculating the Dx(r,s) term of D[CSF] nonadiabatic coupling term.
dxcalc: INPUT LINE SEPARATOR 
 
starting tran.x -m 200000  at Fri May 27 15:33:54 EDT 2022

 -------------------- tran.x ------------------------
 --------------------------------------------------- 
 starting tdmrunfile.x > tdmrunfilels at Fri May 27 15:33:54 EDT 2022

 -------------------- tdmrunfile.x ------------------------
 --------------------------------------------------- 
 starting pymolcas molcas.input.alaska > molcas.output.alaska  at Fri May 27 15:33:54 EDT 2022

Generating link ln -s ./molcas.OrdInt ORDINT 
 -------------------- alaska ------------------------
 --------------------------------------------------- 
 
 === Non-adiabatic coupling for DRT 2 STATE 2 and DRT 2 STATE 3 === 
  -3.332284E-01  -9.095641E-02   3.772356E-01
  -1.912429E-01  -2.807486E-02  -6.753432E+00
   9.291004E-02  -1.060249E-01   2.598922E+00
   3.022968E+00   1.675213E-01   3.705648E+00
  -3.118285E+00   3.373899E-02  -3.401003E+00
  -7.728201E-02  -3.911616E-02  -2.103300E+00
   5.750097E-01  -4.477285E-02   5.383574E+00
   8.509604E-02   2.647788E-01   1.587675E-01
  -5.905307E-02  -1.497273E-01  -4.185208E-02
  -1.600367E-02  -2.286407E-02  -3.936482E-02
   5.676124E-02  -9.062102E-03   1.553219E-02
  -4.831455E-02   1.319339E-02  -3.556469E-03
   1.554175E-02  -1.458012E-03   2.499937E-02
  -5.450217E-03   1.033622E-02   8.148243E-02
===================================

 Norm of the nonadiabatic coupling vector: 
 |h(drt2.state2,drt2.state3)|= 11.4352577238336 

 Cross-check of the non-adiabatic coupling term:
  DeltaE= -0.0145682506000071

  <L>*dE form CIGRD   :    0.0000260917    -0.0081106550    -0.0001438469
  <L>*dE form NADCOUPL:   -0.0007196238     0.0056478961    -0.0003954859
 -------------------------------------------------------------------------
  Difference          :    0.0007457155    -0.0137585511     0.0002516390

 NOTE: This test is meaningless at a point of conical intersection!


 -------- NAD. COUPLING for DRT:2 STATE:2 AND DRT:2 STATE:4 --------
opening file =ciudgls.drt2.sp
opening file =ciudgls.drt2.sp
extracted: energy1= -285.8697488577   energy2=-285.8462031850   deltae=-0.0235456727000383
starting cigrd.x -m 200000 at Fri May 27 15:35:05 EDT 2022

 -------------------- cigrd.x ------------------------
 Total energy (ciudg) :    -0.000000000374 
  Effective energy     :    -0.000000006151 
  Delta E              :     0.000000005777 
  --------------------------------------------------- 
 starting tran.x -m 200000  at Fri May 27 15:49:43 EDT 2022

 -------------------- tran.x ------------------------
 --------------------------------------------------- 
  adding keyword NONUC to alaska input
starting pymolcas molcas.input.alaska > molcas.output.alaska  at Fri May 27 15:57:00 EDT 2022

Generating link ln -s ./molcas.OrdInt ORDINT 
 -------------------- alaska ------------------------
 --------------------------------------------------- 
 cartesian gradient by alaska (MOLCAS)

 Calculating the Dx(r,s) term of D[CSF] nonadiabatic coupling term.
dxcalc: INPUT LINE SEPARATOR 
 
starting tran.x -m 200000  at Fri May 27 15:58:07 EDT 2022

 -------------------- tran.x ------------------------
 --------------------------------------------------- 
 starting tdmrunfile.x > tdmrunfilels at Fri May 27 15:58:07 EDT 2022

 -------------------- tdmrunfile.x ------------------------
 --------------------------------------------------- 
 starting pymolcas molcas.input.alaska > molcas.output.alaska  at Fri May 27 15:58:07 EDT 2022

Generating link ln -s ./molcas.OrdInt ORDINT 
 -------------------- alaska ------------------------
 --------------------------------------------------- 
 
 === Non-adiabatic coupling for DRT 2 STATE 2 and DRT 2 STATE 4 === 
   4.360302E-02   1.069493E-01   2.822732E-01
  -7.994992E-01  -2.579474E-01   1.320630E+00
   3.512313E+00   1.028777E-01  -1.534945E+00
   2.829551E+00   1.907560E-01   3.835813E-01
  -2.952777E+00   5.771660E-02  -4.703607E-01
  -3.537502E+00   1.614869E-02   1.595002E+00
   1.129680E+00  -3.343131E-02  -1.175184E+00
  -1.836277E-01  -2.098690E-01  -3.659171E-01
  -3.595716E-02   9.121711E-02  -1.541747E-02
   4.178045E-02  -1.982895E-02  -3.425128E-02
   3.000201E-02   8.183618E-03   3.556260E-02
  -2.697670E-02  -5.491571E-03  -3.389995E-02
  -3.644128E-02  -4.437930E-02   2.791019E-02
  -1.501125E-02  -5.060315E-03  -1.643395E-02
===================================

 Norm of the nonadiabatic coupling vector: 
 |h(drt2.state2,drt2.state4)|= 7.23389689876374 

 Cross-check of the non-adiabatic coupling term:
  DeltaE= -0.0235456727000383

  <L>*dE form CIGRD   :    0.0000421703    -0.0131087001    -0.0002324900
  <L>*dE form NADCOUPL:    0.0003221643    -0.0026697728    -0.0002814874
 -------------------------------------------------------------------------
  Difference          :   -0.0002799940    -0.0104389273     0.0000489975

 NOTE: This test is meaningless at a point of conical intersection!


 -------- NAD. COUPLING for DRT:2 STATE:3 AND DRT:2 STATE:4 --------
opening file =ciudgls.drt2.sp
opening file =ciudgls.drt2.sp
extracted: energy1= -285.8551806071   energy2=-285.8462031850   deltae=-0.00897742210003116
starting cigrd.x -m 200000 at Fri May 27 15:59:20 EDT 2022

 -------------------- cigrd.x ------------------------
 Total energy (ciudg) :    -0.000000000220 
  Effective energy     :    -0.000000011380 
  Delta E              :     0.000000011160 
  --------------------------------------------------- 
 starting tran.x -m 200000  at Fri May 27 16:10:04 EDT 2022

 -------------------- tran.x ------------------------
 --------------------------------------------------- 
  adding keyword NONUC to alaska input
starting pymolcas molcas.input.alaska > molcas.output.alaska  at Fri May 27 16:16:55 EDT 2022

Generating link ln -s ./molcas.OrdInt ORDINT 
 -------------------- alaska ------------------------
 --------------------------------------------------- 
 cartesian gradient by alaska (MOLCAS)

 Calculating the Dx(r,s) term of D[CSF] nonadiabatic coupling term.
dxcalc: INPUT LINE SEPARATOR 
 
starting tran.x -m 200000  at Fri May 27 16:17:59 EDT 2022

 -------------------- tran.x ------------------------
 --------------------------------------------------- 
 starting tdmrunfile.x > tdmrunfilels at Fri May 27 16:17:59 EDT 2022

 -------------------- tdmrunfile.x ------------------------
 --------------------------------------------------- 
 starting pymolcas molcas.input.alaska > molcas.output.alaska  at Fri May 27 16:17:59 EDT 2022

Generating link ln -s ./molcas.OrdInt ORDINT 
 -------------------- alaska ------------------------
 --------------------------------------------------- 
 
 === Non-adiabatic coupling for DRT 2 STATE 3 and DRT 2 STATE 4 === 
  -2.842702E-01   5.492046E-01   3.028781E-01
  -3.708857E-01  -2.878073E-01   1.986068E+00
   8.250683E-01  -2.562299E-01  -8.152290E-01
   8.239393E-01   1.547429E-01  -6.837070E-01
  -2.761394E-02   9.178692E-02   1.426207E-01
  -1.792626E+00   1.278776E-02   3.487171E-01
   8.019388E-01  -2.598524E-02  -9.576454E-01
   6.497141E-02  -2.829919E-01  -2.339847E-01
   3.291145E-03   8.959520E-03  -1.272247E-01
  -6.600790E-03   1.044117E-01  -1.746560E-02
   1.727300E-02  -1.137092E-01   2.371512E-02
  -2.895457E-02   1.245960E-02  -6.399480E-03
   5.161655E-03   3.932195E-02   4.361259E-02
  -3.009788E-02  -6.546513E-03   9.129272E-04
===================================

 Norm of the nonadiabatic coupling vector: 
 |h(drt2.state3,drt2.state4)|= 3.51166501391191 

 Cross-check of the non-adiabatic coupling term:
  DeltaE= -0.00897742210003116

  <L>*dE form CIGRD   :    0.0000160786    -0.0049980451    -0.0000886431
  <L>*dE form NADCOUPL:    0.0000161736    -0.0049991547    -0.0000883694
 -------------------------------------------------------------------------
  Difference          :   -0.0000000950     0.0000011096    -0.0000002737

 NOTE: This test is meaningless at a point of conical intersection!



============== timings ===================

   unik.gets.x    
   mcdrt.x        
   mcuft.x        
 * mcscf.x          walltime    0:03:15
   mcpc.x         
   mcpc.x         
   mcpc.x         
   mcpc.x         
   exptvl.x       
   exptvl.x       
   exptvl.x       
   exptvl.x       
   cidrt.x        
 * cidrt.x          walltime    0:00:05
 * tran.x           walltime    0:07:30
 * pciudg.x -m 19000   walltime   17:02:51
 * cipc.x           walltime    0:00:15
 * pciudg.x -m 19000   walltime   43:40:57
 * cipc.x           walltime    0:00:21
 * reindex.x        walltime    0:04:08
 * pciudg.x -m 19000   walltime    1:54:05
 * transci.x        walltime    0:02:14
 * transci.x        walltime    0:02:16
 * transci.x        walltime    0:02:13
 * transci.x        walltime    0:02:09
 * transci.x        walltime    0:02:09
 * transci.x        walltime    0:02:09
 * transci.x        walltime    0:04:01
 * transci.x        walltime    0:04:11
 * transci.x        walltime    0:04:02
 * transci.x        walltime    0:03:57
 * transci.x        walltime    0:03:56
 * transci.x        walltime    0:03:59
   exptvl.x       
   exptvl.x       
   exptvl.x       
   exptvl.x       
   exptvl.x       
   exptvl.x       
   exptvl.x       
   exptvl.x       
   mo_convert.x   
   mo_convert.x   
   mo_convert.x   
   mo_convert.x   
   mo_convert.x   
   mo_convert.x   
   mo_convert.x   
   mo_convert.x   
   mo_convert.x   
   mo_convert.x   
   mo_convert.x   
 * mo_convert.x     walltime    0:00:05
   mo_convert.x   
   mo_convert.x   
 * cidrt.x          walltime    0:00:07
 * tran.x           walltime    0:08:24
 * cigrd.x          walltime    0:11:23
 * tran.x           walltime    0:06:58
 * cigrd.x          walltime    0:12:30
 * tran.x           walltime    0:07:08
 * cigrd.x          walltime    0:12:20
 * tran.x           walltime    0:07:17
 * cigrd.x          walltime    0:10:25
 * tran.x           walltime    0:07:17
 * cigrd.x          walltime    0:10:29
 * tran.x           walltime    0:07:16
 * cigrd.x          walltime    0:09:44
 * tran.x           walltime    0:07:12
 * cigrd.x          walltime    0:12:13
 * tran.x           walltime    0:06:56
 * cigrd.x          walltime    0:11:06
 * tran.x           walltime    0:06:56
 * cigrd.x          walltime    0:09:42
 * tran.x           walltime    0:06:49
   tran.x         
   tdmrunfile.x   
 * cigrd.x          walltime    0:10:19
 * tran.x           walltime    0:06:58
   tran.x         
   tdmrunfile.x   
 * cigrd.x          walltime    0:10:11
 * tran.x           walltime    0:07:00
   tran.x         
   tdmrunfile.x   
 * cigrd.x          walltime    0:16:02
 * tran.x           walltime    0:06:47
   tran.x         
   tdmrunfile.x   
 * cigrd.x          walltime    0:10:09
 * tran.x           walltime    0:06:55
   tran.x         
   tdmrunfile.x   
 * cigrd.x          walltime    0:09:50
 * tran.x           walltime    0:06:51
   tran.x         
   tdmrunfile.x   
 * cigrd.x          walltime    0:10:06
 * tran.x           walltime    0:07:13
   tran.x         
   tdmrunfile.x   
 * cigrd.x          walltime    0:09:56
 * tran.x           walltime    0:06:54
   tran.x         
   tdmrunfile.x   
 * cigrd.x          walltime    0:13:55
 * tran.x           walltime    0:06:49
   tran.x         
   tdmrunfile.x   
 * cigrd.x          walltime    0:10:23
 * tran.x           walltime    0:06:57
   tran.x         
   tdmrunfile.x   
 * cigrd.x          walltime    0:14:37
 * tran.x           walltime    0:07:16
   tran.x         
   tdmrunfile.x   
 * cigrd.x          walltime    0:10:43
 * tran.x           walltime    0:06:50
   tran.x         
   tdmrunfile.x   

==========================================

