===========================================================
===                   runc                              ===
===           version 7.0.2 , April 2021              ===
===          requires COLUMBUS version Col_7.0.2        ===
===                                                     ===
===   written by: Thomas Mueller                        ===
===   gradient ext. by: Michal Dallos                   ===
===               University of Vienna                  ===
===   maintained by: Felix Plasser                      ===
===               Loughborough University               ===
===========================================================


coremem. (seq.): 200000 MB,  coremem. (par.): 19000 MB
Vdisk size: 0 DP
Reading job control file control.run ... 
 ****** This is an 2c-QDPT MRCISD calculation ****** 
 model space size=4:0:4
SMOLCAS=/home-4/yshen57@jhu.edu/Software/Chemistry/Columbus-7.0.2_OpenMolcas-18.09-col/OpenMolcas/build
Found serial Molcas Installation at /home-4/yshen57@jhu.edu/Software/Chemistry/Columbus-7.0.2_OpenMolcas-18.09-col/OpenMolcas/build
  done 
INFO: keywords nadcoupl and seward are supported for DCI mode only!
seward specified, using also alaska
Creating various directories ... 
 done 
SMOLCAS=/home-4/yshen57@jhu.edu/Software/Chemistry/Columbus-7.0.2_OpenMolcas-18.09-col/OpenMolcas/build
PMOLCAS=
Checking for illegal keywords and keyword combinations ... done 

 Nonadiabatic coupling term calculation type: DCI+DCSF
  States involved in calcualtion:
   DRT1,state1;  DRT1,state2
   DRT1,state1;  DRT1,state3
   DRT1,state1;  DRT1,state4
   DRT1,state2;  DRT1,state3
   DRT1,state2;  DRT1,state4
   DRT1,state3;  DRT1,state4
   DRT2,state1;  DRT2,state2
   DRT2,state1;  DRT2,state3
   DRT2,state1;  DRT2,state4
   DRT2,state2;  DRT2,state3
   DRT2,state2;  DRT2,state4
   DRT2,state3;  DRT2,state4

Additional gradients computed:
   DRT1,state1
   DRT1,state2
   DRT1,state3
   DRT1,state4
   DRT2,state1
   DRT2,state2
   DRT2,state3
   DRT2,state4

Checking for complete set of input files ... 
mcscf calculation without preceeding scf calculation 
will use 
 /scratch/users/yshen57@jhu.edu/Molcas/linear-path/1.1-fast-slow/6/mrci/mocoef as starting MOs 
Performing coupled non-rel. SO-CI calculation, nrroots: 4 0 4
starting cidrt.x   -m 200000 < cidrtin > temp at Thu Jun  2 03:22:36 EDT 2022

 -------------------- cidrt.x ------------------------
 spatial symmetry:  
 total number of configurations          0
 number of reference configurations     0
 --------------------------------------------------- 
 Preparing SO cidrtin files for 1 symmetries
cat ../cidrtin | sed -e 's/^.*input the molecular spatial symmetry/1 \/ molsym/' > cidrtin.so_A 
calling cidrt.x -m 200000 < cidrtin.so_A > cidrtls.soci_A ...
Checking the DRTs for consistency ...
calling reindex.x -i 1 -m 200000  ...
done

 ++++++++++++++++++ input file generation +++++++++++++ 
 runc start: Thu Jun  2 03:22:55 EDT 2022
 
  runc start: Thu Jun  2 03:22:55 EDT 2022
 
 starting unik.gets.x > unikls at Thu Jun  2 03:22:55 EDT 2022

 -------------------- unik.gets.x ------------------------
 --------------------------------------------------- 
 ++++++++++++++++++++ ao integral calculation ++++++++++++++++
starting pymolcas molcas.input.seward > molcas.output.seward  at Thu Jun  2 03:22:55 EDT 2022

Generating link ln -s ./molcas.OrdInt ORDINT 
 -------------------- seward ------------------------
      Basis set label: N.ANILINE.........
      Basis set label: C.ANILINE.........
      Basis set label: H.ANILINE.........
  Nuclear Coordinates in                   atomic units                                   Angstrom 
     Center  Label                x              y              z                     x              y              z
        1      N1              -0.017215      -4.399455       0.371947             -0.009110      -2.328091       0.196826
        2      C2              -0.019523      -1.776924       0.134710             -0.010331      -0.940308       0.071286
        3      C3              -2.313810      -0.427579       0.077529             -1.224415      -0.226265       0.041026
        4      C4               2.274716      -0.425708       0.090464              1.203728      -0.225275       0.047872
        5      C5              -2.292516       2.171748      -0.027506             -1.213147       1.149240      -0.014556
        6      C6               2.251992       2.173945      -0.012809              1.191703       1.150402      -0.006778
        7      C7              -0.020566       3.492577      -0.072877             -0.010883       1.848192      -0.038565
        8      H8              -1.714762      -5.414441      -0.267681             -0.907413      -2.865199      -0.141650
        9      H9               1.562069      -5.371179      -0.195222              0.826611      -2.842305      -0.103307
       10      H10             -4.065948      -1.442103       0.119106             -2.151607      -0.763128       0.063028
       11      H11              4.028128      -1.438052       0.138772              2.131593      -0.760984       0.073435
       12      H12             -4.049342       3.183415      -0.075639             -2.142820       1.684591      -0.040027
       13      H13              4.008012       3.187338      -0.050165              2.120948       1.686667      -0.026546
       14      H14             -0.021196       5.518328      -0.155427             -0.011217       2.920173      -0.082248
 
            Nuclear Potential Energy            271.71274806 au
 --------------------------------------------------- 
  >>>>>>>>>>>>> info: preparing drt no 1 out of 1 <<<<<<
starting mcdrt.x -m 200000 < mcdrtin > mcdrtls at Thu Jun  2 03:28:43 EDT 2022

 -------------------- mcdrt.x ------------------------
  Spin multiplicity: singlet 
  Spatial symmetry (#): 1
  Number of Configurations:       1275 
  --------------------------------------------------- 
 starting mcuft.x at Thu Jun  2 03:28:43 EDT 2022

 -------------------- mcuft.x ------------------------
 --------------------------------------------------- 
 ++++++++++++++++++++ MCSCF calculation +++++++++++++++
info: taking mocoef file from /scratch/users/yshen57@jhu.edu/Molcas/linear-path/1.1-fast-slow/6/mrci/mocoef
adding flag 30 to mcscfin
Writing mcdenin files for mcscf.x for 1 DRTs
adding flag 26 to mcscfin
starting mcscf.x -m 200000 at Thu Jun  2 03:28:43 EDT 2022

 -------------------- mcscf.x ------------------------
 Individual total energies for all states: 
    DRT #1 state # 1 wt 0.250 total energy=     -285.901888595, rel. (eV)=   0.000000
    DRT #1 state # 2 wt 0.250 total energy=     -285.695479959, rel. (eV)=   5.616667
    DRT #1 state # 3 wt 0.250 total energy=     -285.669845748, rel. (eV)=   6.314210
    DRT #1 state # 4 wt 0.250 total energy=     -285.630258902, rel. (eV)=   7.391423
  --------------------------------------------------- 
 starting mcpc.x -m 200000 < mcpcin > mcpcls at Thu Jun  2 03:31:50 EDT 2022

 -------------------- mcpc.x ------------------------
 --------------------------------------------------- 
 starting mcpc.x -m 200000 < mcpcin > mcpcls at Thu Jun  2 03:31:50 EDT 2022

 -------------------- mcpc.x ------------------------
 --------------------------------------------------- 
 starting mcpc.x -m 200000 < mcpcin > mcpcls at Thu Jun  2 03:31:50 EDT 2022

 -------------------- mcpc.x ------------------------
 --------------------------------------------------- 
 starting mcpc.x -m 200000 < mcpcin > mcpcls at Thu Jun  2 03:31:50 EDT 2022

 -------------------- mcpc.x ------------------------
 --------------------------------------------------- 
 
========= state properties for state-averaged MCSCF =========
mcscf.drt1.st01.sp
starting exptvl.x -m 200000   at Thu Jun  2 03:31:50 EDT 2022

 -------------------- exptvl.x ------------------------
  === dipole moment === 
                     X               Y               Z   
   orign x       0.00000000      0.00000000      0.00000000
   orign y       0.00000000      0.00000000      0.00000000
   orign z       0.00000000      0.00000000      0.00000000
   nuclear      -1.09178473     -1.32452424      3.25444285
   electronic    1.07715737      0.60614994     -3.62942608
   total        -0.01462736     -0.71837430     -0.37498323
   total Dipole moment =   2.06005271    Debye
 --------------------------------------------------- 
 mcscf.drt1.st02.sp
starting exptvl.x -m 200000   at Thu Jun  2 03:31:50 EDT 2022

 -------------------- exptvl.x ------------------------
  === dipole moment === 
                     X               Y               Z   
   orign x       0.00000000      0.00000000      0.00000000
   orign y       0.00000000      0.00000000      0.00000000
   orign z       0.00000000      0.00000000      0.00000000
   nuclear      -1.09178473     -1.32452424      3.25444285
   electronic    1.10242181      4.90973387     -3.76484306
   total         0.01063708      3.58520963     -0.51040021
   total Dipole moment =   9.20462373    Debye
 --------------------------------------------------- 
 mcscf.drt1.st03.sp
starting exptvl.x -m 200000   at Thu Jun  2 03:31:51 EDT 2022

 -------------------- exptvl.x ------------------------
  === dipole moment === 
                     X               Y               Z   
   orign x       0.00000000      0.00000000      0.00000000
   orign y       0.00000000      0.00000000      0.00000000
   orign z       0.00000000      0.00000000      0.00000000
   nuclear      -1.09178473     -1.32452424      3.25444285
   electronic    1.08119965      0.22152565     -3.56568946
   total        -0.01058508     -1.10299859     -0.31124661
   total Dipole moment =   2.91315085    Debye
 --------------------------------------------------- 
 mcscf.drt1.st04.sp
starting exptvl.x -m 200000   at Thu Jun  2 03:31:51 EDT 2022

 -------------------- exptvl.x ------------------------
  === dipole moment === 
                     X               Y               Z   
   orign x       0.00000000      0.00000000      0.00000000
   orign y       0.00000000      0.00000000      0.00000000
   orign z       0.00000000      0.00000000      0.00000000
   nuclear      -1.09178473     -1.32452424      3.25444285
   electronic    1.10304357      5.93556934     -3.85616832
   total         0.01125884      4.61104510     -0.60172547
   total Dipole moment =  11.81952564    Debye
 --------------------------------------------------- 
  using the MCSCF MOs ... 
starting cidrt.x  -m 200000 < cidrtin.1 > cidrtls at Thu Jun  2 03:31:51 EDT 2022

 -------------------- cidrt.x ------------------------
 total number of orbitals            :   246
 number of frozen core orbitals      :    18
 number of frozen virtual orbitals   :     0
 number of internal orbitals         :    14
 number of external orbitals         :   214
 spatial symmetry:   a  
 
 total number of configurations  158587185
 number of reference configurations  1275
 --------------------------------------------------- 
 starting cidrt.x  -m 200000 < cidrtin.2 > cidrtls at Thu Jun  2 03:31:54 EDT 2022

 -------------------- cidrt.x ------------------------
 total number of orbitals            :   246
 number of frozen core orbitals      :    18
 number of frozen virtual orbitals   :     0
 number of internal orbitals         :    14
 number of external orbitals         :   214
 spatial symmetry:   a  
 
 total number of configurations  282461366
 number of reference configurations  1666
 --------------------------------------------------- 
 starting tran.x -m 200000  at Thu Jun  2 03:32:01 EDT 2022

 -------------------- tran.x ------------------------
 --------------------------------------------------- 
  Starting ciudgav with DRT # 1 out of 2 

 *** starting pciudg section *** 
nproc: 48 machinefile:  
assuming machinefile syntax: one host name per line optionally repeated
 section2, MPI_STARTUP:
 /software/apps/mpi/openmpi/3.1/intel/18.0/bin/mpirun -np 48  /home-4/yshen57@jhu.edu/Software/Chemistry/Columbus-7.0.2_OpenMolcas-18.09-col/Columbus/pciudg.x -m 19000 
 -------------------- pciudg.x ------------------------
 type of calculation:          mr-sdci
 number of configurations:     158587185
 total mr-sdci energy             -286.0999091294 
 last mr-sdci energy change           0.0000000000 
 residual                             0.0000072346 
  type of calculation:          mr-sdci
 number of configurations:     158587185
 total mr-sdci energy             -285.9317855707 
 last mr-sdci energy change           0.0000000000 
 residual                             0.0000046501 
  type of calculation:          mr-sdci
 number of configurations:     158587185
 total mr-sdci energy             -285.9151889674 
 last mr-sdci energy change           0.0000000000 
 residual                             0.0000070062 
  type of calculation:          mr-sdci
 number of configurations:     158587185
 total mr-sdci energy             -285.8662827216 
 last mr-sdci energy change           0.0000000001 
 residual                             0.0000081247 
  --------------------------------------------------- 
 keyinfile returned docipci=0:
starting cipc.x -m 200000 < cipcin > cipcls at Thu Jun  2 22:03:55 EDT 2022

 -------------------- cipc.x ------------------------
 --------------------------------------------------- 
  Starting ciudgav with DRT # 2 out of 2 

 *** starting pciudg section *** 
nproc: 48 machinefile:  
assuming machinefile syntax: one host name per line optionally repeated
 section2, MPI_STARTUP:
 /software/apps/mpi/openmpi/3.1/intel/18.0/bin/mpirun -np 48  /home-4/yshen57@jhu.edu/Software/Chemistry/Columbus-7.0.2_OpenMolcas-18.09-col/Columbus/pciudg.x -m 19000 
 -------------------- pciudg.x ------------------------
 type of calculation:          mr-sdci
 number of configurations:     282461366
 total mr-sdci energy             -285.9481012477 
 last mr-sdci energy change           0.0000000000 
 residual                             0.0000059308 
  type of calculation:          mr-sdci
 number of configurations:     282461366
 total mr-sdci energy             -285.9343673494 
 last mr-sdci energy change           0.0000000000 
 residual                             0.0000069355 
  type of calculation:          mr-sdci
 number of configurations:     282461366
 total mr-sdci energy             -285.9299291588 
 last mr-sdci energy change           0.0000000000 
 residual                             0.0000082955 
  type of calculation:          mr-sdci
 number of configurations:     282461366
 total mr-sdci energy             -285.9147623392 
 last mr-sdci energy change           0.0000000000 
 residual                             0.0000072369 
  --------------------------------------------------- 
 keyinfile returned docipci=0:
starting cipc.x -m 200000 < cipcin > cipcls at Sat Jun  4 15:55:43 EDT 2022

 -------------------- cipc.x ------------------------
 --------------------------------------------------- 
 Reindex call
run_socinr: imult=1 irrep=1 
opening file =ciudgls.drt1.sp
opening file =ciudgls.drt1.sp
opening file =ciudgls.drt1.sp
opening file =ciudgls.drt1.sp
run_socinr: imult=3 irrep=1 
opening file =ciudgls.drt2.sp
opening file =ciudgls.drt2.sp
opening file =ciudgls.drt2.sp
opening file =ciudgls.drt2.sp
 copying /scratch/users/yshen57@jhu.edu/Molcas/linear-path/1.1-fast-slow/6/mrci/cidrtfl.so__A --> cidrtfl.so__A 
 copying /scratch/users/yshen57@jhu.edu/Molcas/linear-path/1.1-fast-slow/6/mrci/cidrtfl.so__A --> cidrtfl.so__A 
starting reindex.x -m 200000 > reindexls at Sat Jun  4 15:56:05 EDT 2022

 -------------------- reindex.x ------------------------
 --------------------------------------------------- 
 1      1        1           civfl_1_A             1      1    0+       1             1         civfl.so__A
1      1        2           civfl_1_A             1      1    0+       2    1005971284         civfl.so__A
1      1        3           civfl_1_A             1      1    0+       3    2011942567         civfl.so__A
1      1        4           civfl_1_A             1      1    0+       4    3017913850         civfl.so__A
3      1        1           civfl_3_A             1      3    0+       5    4023885133         civfl.so__A
3      1        1           civfl_3_A             1      3    1+       6    5029856416         civfl.so__A
3      1        1           civfl_3_A             1      3    1-       7    6035827699         civfl.so__A
3      1        2           civfl_3_A             1      3    0+       8    7041798982         civfl.so__A
3      1        2           civfl_3_A             1      3    1+       9    8047770265         civfl.so__A
3      1        2           civfl_3_A             1      3    1-      10    9053741548         civfl.so__A
3      1        3           civfl_3_A             1      3    0+      11   10059712831         civfl.so__A
3      1        3           civfl_3_A             1      3    1+      12   11065684114         civfl.so__A
3      1        3           civfl_3_A             1      3    1-      13   12071655397         civfl.so__A
3      1        4           civfl_3_A             1      3    0+      14   13077626680         civfl.so__A
3      1        4           civfl_3_A             1      3    1+      15   14083597963         civfl.so__A
3      1        4           civfl_3_A             1      3    1-      16   15089569246         civfl.so__A
 Executing ciudg.x  for gamma =A ...

 *** starting pciudg section *** 
nproc: 48 machinefile:  
assuming machinefile syntax: one host name per line optionally repeated
 section2, MPI_STARTUP:
 /software/apps/mpi/openmpi/3.1/intel/18.0/bin/mpirun -np 48  /home-4/yshen57@jhu.edu/Software/Chemistry/Columbus-7.0.2_OpenMolcas-18.09-col/Columbus/pciudg.x -m 19000 
 -------------------- pciudg.x ------------------------
 type of calculation:          mr-sdci
 number of configurations:     1005971283
 total mr-sdci energy             -286.0999091339 
 last mr-sdci energy change           0.0000000045 
 residual                            35.9070000000 
  type of calculation:          mr-sdci
 number of configurations:     1005971283
 total mr-sdci energy             -285.9481012620 
 last mr-sdci energy change           0.0163160000 
 residual                            35.7560000000 
  type of calculation:          mr-sdci
 number of configurations:     1005971283
 total mr-sdci energy             -285.9481012618 
 last mr-sdci energy change           0.0329120000 
 residual                            35.7560000000 
  type of calculation:          mr-sdci
 number of configurations:     1005971283
 total mr-sdci energy             -285.9481012573 
 last mr-sdci energy change           0.0818190000 
 residual                            35.7560000000 
  type of calculation:          mr-sdci
 number of configurations:     1005971283
 total mr-sdci energy             -285.9343673498 
 last mr-sdci energy change          -0.0137340000 
 residual                            35.7420000000 
  type of calculation:          mr-sdci
 number of configurations:     1005971283
 total mr-sdci energy             -285.9343673379 
 last mr-sdci energy change          -0.0137340000 
 residual                            35.7420000000 
  type of calculation:          mr-sdci
 number of configurations:     1005971283
 total mr-sdci energy             -285.9343673371 
 last mr-sdci energy change          -0.0137340000 
 residual                            35.7420000000 
  type of calculation:          mr-sdci
 number of configurations:     1005971283
 total mr-sdci energy             -285.9317855616 
 last mr-sdci energy change          -0.0025818000 
 residual                            35.7390000000 
  type of calculation:          mr-sdci
 number of configurations:     1005971283
 total mr-sdci energy             -285.9299291585 
 last mr-sdci energy change          -0.0044382000 
 residual                            35.7370000000 
  type of calculation:          mr-sdci
 number of configurations:     1005971283
 total mr-sdci energy             -285.9299291576 
 last mr-sdci energy change          -0.0044382000 
 residual                            35.7370000000 
  type of calculation:          mr-sdci
 number of configurations:     1005971283
 total mr-sdci energy             -285.9299291560 
 last mr-sdci energy change          -0.0000000028 
 residual                            35.7370000000 
  type of calculation:          mr-sdci
 number of configurations:     1005971283
 total mr-sdci energy             -285.9151889670 
 last mr-sdci energy change          -0.0147400000 
 residual                            35.7230000000 
  type of calculation:          mr-sdci
 number of configurations:     1005971283
 total mr-sdci energy             -285.9147623379 
 last mr-sdci energy change          -0.0151670000 
 residual                            35.7220000000 
  type of calculation:          mr-sdci
 number of configurations:     1005971283
 total mr-sdci energy             -285.9147623377 
 last mr-sdci energy change          -0.0000000015 
 residual                            35.7220000000 
  type of calculation:          mr-sdci
 number of configurations:     1005971283
 total mr-sdci energy             -285.9147623376 
 last mr-sdci energy change          -0.0000000016 
 residual                            35.7220000000 
  type of calculation:          mr-sdci
 number of configurations:     1005971283
 total mr-sdci energy             -285.8662827207 
 last mr-sdci energy change          -0.0484800000 
 residual                            35.6740000000 
  --------------------------------------------------- 
 ************* Results for Spin-Orbit CI gamma=A **************** 
Final spin-orbit CI state energies: 


-------------- HT matrix in AU ----------------  
-35.907455    
 0.000000    -35.739332    
 0.000000     0.000000    -35.722735    
 0.000000     0.000000     0.000000    -35.673829    
-0.000000    -0.000000    -0.000001    -0.000000    -35.755647    
-0.000003    -0.000003    -0.000003     0.000002     0.000000    -35.755647    
 0.000009     0.000013     0.000000    -0.000000     0.000000    -0.000000    -35.755647    
-0.000001     0.000000    -0.000001     0.000000     0.000000     0.000014     0.000003    -35.741913    
-0.000007     0.000000     0.000003    -0.000001    -0.000014     0.000000    -0.000000     0.000000    -35.741913    
 0.000024    -0.000003     0.000000    -0.000000    -0.000003     0.000000     0.000000    -0.000000     0.000000    -35.741913    
-0.000001     0.000001     0.000000     0.000000     0.000000    -0.000001     0.000001     0.000000     0.000000    -0.000002    -35.737475    
-0.000005    -0.000002    -0.000000     0.000001     0.000001     0.000000    -0.000001    -0.000000     0.000000    -0.000001     0.000000    -35.737475    
-0.000001    -0.000000    -0.000000    -0.000007    -0.000001     0.000001     0.000000     0.000002     0.000001     0.000000    -0.000000    -0.000000    -35.737475    
-0.000000     0.000000     0.000000     0.000001     0.000000    -0.000002    -0.000000     0.000000    -0.000004    -0.000001     0.000000     0.000000    -0.000002    -35.722308    
-0.000000    -0.000001     0.000000    -0.000001     0.000002     0.000000    -0.000000     0.000004     0.000000     0.000000    -0.000000     0.000000     0.000000    -0.000000    -35.722308    
-0.000000     0.000004    -0.000000    -0.000000     0.000000     0.000000     0.000000     0.000001    -0.000000     0.000000     0.000002    -0.000000     0.000000    -0.000000     0.000000    -35.722308    
-------------- HT matrix in eV ---------------- 
 -977.092   
    0.000    -972.517   
    0.000       0.000    -972.065   
    0.000       0.000       0.000    -970.734   
   -0.000      -0.000      -0.000      -0.000    -972.961   
   -0.000      -0.000      -0.000       0.000       0.000    -972.961   
    0.000       0.000       0.000      -0.000       0.000      -0.000    -972.961   
   -0.000       0.000      -0.000       0.000       0.000       0.000       0.000    -972.587   
   -0.000       0.000       0.000      -0.000      -0.000       0.000      -0.000       0.000    -972.587   
    0.001      -0.000       0.000      -0.000      -0.000       0.000       0.000      -0.000       0.000    -972.587   
   -0.000       0.000       0.000       0.000       0.000      -0.000       0.000       0.000       0.000      -0.000    -972.466   
   -0.000      -0.000      -0.000       0.000       0.000       0.000      -0.000      -0.000       0.000      -0.000       0.000    -972.466   
   -0.000      -0.000      -0.000      -0.000      -0.000       0.000       0.000       0.000       0.000       0.000      -0.000      -0.000    -972.466   
   -0.000       0.000       0.000       0.000       0.000      -0.000      -0.000       0.000      -0.000      -0.000       0.000       0.000      -0.000    -972.053   
   -0.000      -0.000       0.000      -0.000       0.000       0.000      -0.000       0.000       0.000       0.000      -0.000       0.000       0.000      -0.000    -972.053   
   -0.000       0.000      -0.000      -0.000       0.000       0.000       0.000       0.000      -0.000       0.000       0.000      -0.000       0.000      -0.000       0.000    -972.053   
-------------- HT matrix in cm-1 ------------------- 
Eref = -35.90745510
     0.00   
     0.00    36898.92   
     0.00        0.00    40541.46   
     0.00        0.00        0.00    51275.16   
    -0.05       -0.01       -0.18       -0.01    33318.03   
    -0.64       -0.57       -0.58        0.34        0.00    33318.03   
     1.90        2.75        0.04       -0.01        0.00        0.00    33318.03   
    -0.12        0.02       -0.23        0.05        0.00        2.97        0.61    36332.28   
    -1.53        0.05        0.72       -0.32       -2.97        0.00       -0.02        0.00    36332.28   
     5.28       -0.59        0.03       -0.04       -0.61        0.02        0.00        0.00        0.00    36332.28   
    -0.16        0.23        0.02        0.00        0.00       -0.17        0.22        0.00        0.10       -0.48    37306.35   
    -1.16       -0.43       -0.02        0.30        0.17        0.00       -0.12       -0.10        0.00       -0.23        0.00    37306.35   
    -0.31       -0.06       -0.02       -1.50       -0.22        0.12        0.00        0.48        0.23        0.00        0.00        0.00    37306.35   
    -0.01        0.00        0.02        0.13        0.00       -0.34       -0.05        0.00       -0.96       -0.24        0.00        0.02       -0.51    40635.09   
    -0.10       -0.19        0.09       -0.29        0.34        0.00       -0.00        0.96        0.00        0.00       -0.02        0.00        0.07        0.00    40635.09   
    -0.06        0.93       -0.04       -0.07        0.05        0.00        0.00        0.24       -0.00        0.00        0.51       -0.07        0.00        0.00        0.00    40635.09   


Spin-Orbit CI: perturbational estimate of Spin-Orbit CI energies and wavefunctions 
                SO   1         SO   2         SO   3         SO   4         SO   5         SO   6         SO   7         SO   8

   energy  -286.09990913  -285.94810126  -285.94810126  -285.94810126  -285.93436735  -285.93436734  -285.93436734  -285.93178556
 
   NR   1     0.99999999    -0.00000806     0.00000014     0.00005953     0.00015004     0.00001183     0.00001513     0.00000014
   NR   2     0.00000000     0.00000828    -0.00000535    -0.00078449     0.00103733    -0.00000423    -0.00007883    -0.99999840
   NR   3    -0.00000000     0.00008085     0.00001062    -0.00002085     0.00001885     0.00003876     0.00017428     0.00000003
   NR   4     0.00000000    -0.00001817     0.00000358     0.00000415    -0.00000074    -0.00000783    -0.00002062     0.00000000
   NR   5     0.00000164     0.16836613     0.98569792    -0.00717235    -0.00004543     0.00050646     0.00086928     0.00000160
   NR   6     0.00001915     0.96748821    -0.16664011    -0.19025410     0.00000090    -0.00085304     0.00049585     0.00015809
   NR   7    -0.00005692     0.18872833    -0.02509319     0.98170836     0.00000106    -0.00017168     0.00010602    -0.00076839
   NR   8     0.00000323    -0.00099268     0.00016949    -0.00001033    -0.00415398    -0.86412718     0.50325504    -0.00004028
   NR   9     0.00004219     0.00016712     0.00097244    -0.00000181    -0.15592304    -0.49654426    -0.85389149    -0.00009231
   NR  10    -0.00014523     0.00002884     0.00019974    -0.00000070     0.98775976    -0.08201612    -0.13267471     0.00103540
   NR  11     0.00000428     0.00003040    -0.00000565    -0.00006308     0.00050473     0.00001158     0.00002436     0.00057403
   NR  12     0.00003105    -0.00000156    -0.00004249     0.00002936     0.00023468    -0.00011052     0.00002134    -0.00104669
   NR  13     0.00000828    -0.00001915     0.00006015     0.00000524     0.00003918     0.00054540    -0.00004620    -0.00014229
   NR  14     0.00000031     0.00004615    -0.00000776    -0.00000255     0.00002049    -0.00011515    -0.00019751     0.00000125
   NR  15     0.00000239    -0.00000760    -0.00004580     0.00000079     0.00000050     0.00019240    -0.00011207    -0.00004997
   NR  16     0.00000144    -0.00000152    -0.00000623     0.00000024    -0.00000012     0.00004805    -0.00002854     0.00024875

                SO   9         SO  10         SO  11         SO  12         SO  13         SO  14         SO  15         SO  16

   energy  -285.92992916  -285.92992916  -285.92992916  -285.91518897  -285.91476234  -285.91476234  -285.91476234  -285.86628272
 
   NR   1    -0.00000534     0.00001659     0.00002739    -0.00000000     0.00000265     0.00000087    -0.00000025    -0.00000000
   NR   2    -0.00004244    -0.00010708     0.00119658     0.00000017    -0.00008055    -0.00009303    -0.00022201     0.00000000
   NR   3     0.00000460     0.00000224    -0.00000821     0.99999946    -0.00052911    -0.00007404     0.00087432     0.00000000
   NR   4     0.00010893     0.00000475     0.00001011    -0.00000001    -0.00002863     0.00000852     0.00000585    -0.99999999
   NR   5    -0.00006000    -0.00001476    -0.00003386    -0.00002444    -0.00004222    -0.00000343     0.00002002     0.00000041
   NR   6     0.00002984     0.00003785    -0.00001953    -0.00008047    -0.00001038     0.00004289    -0.00001453    -0.00001897
   NR   7     0.00000292    -0.00003980     0.00005023     0.00000547    -0.00000104     0.00000590    -0.00000228     0.00000056
   NR   8     0.00050237     0.00002407     0.00005321    -0.00005424    -0.00021505    -0.00002538     0.00007611    -0.00000353
   NR   9     0.00023651    -0.00010508     0.00002132     0.00017103    -0.00004824     0.00020669    -0.00006724     0.00002164
   NR  10     0.00002145     0.00054797     0.00001990     0.00000769    -0.00001254     0.00005184    -0.00001669     0.00000266
   NR  11     0.00168194    -0.91775145     0.39715089     0.00000536    -0.00007043    -0.00005693    -0.00012319    -0.00000017
   NR  12    -0.09389012    -0.39554232    -0.91363546    -0.00000619     0.00001099     0.00000180     0.00001723    -0.00002134
   NR  13     0.99558097    -0.03575191    -0.08683303    -0.00000521    -0.00004973     0.00014129    -0.00003591     0.00010740
   NR  14     0.00015272    -0.00000309    -0.00000781    -0.00021958     0.21743639    -0.92745018     0.30423257    -0.00001232
   NR  15    -0.00001963    -0.00000478     0.00000413    -0.00091841    -0.84192537    -0.02050981     0.53920322     0.00002708
   NR  16    -0.00000212     0.00013247    -0.00007891     0.00039767    -0.49384485    -0.37338376    -0.78530350     0.00000637
rescaling new expansion vector ... old norm=   4209.2565887270

 model space basis from reindexls .. 
 --SO-CI-------         -----NR-CI-------             ---model space---- 
 Gamma  root             S   irrep   root                S   ms* 
A          1             1   A         1                 1   0+
A          2             1   A         2                 1   0+
A          3             1   A         3                 1   0+
A          4             1   A         4                 1   0+
A          5             3   A         1                 3   0+
A          6             3   A         1                 3   1+
A          7             3   A         1                 3   1-
A          8             3   A         2                 3   0+
A          9             3   A         2                 3   1+
A         10             3   A         2                 3   1-
A         11             3   A         3                 3   0+
A         12             3   A         3                 3   1+
A         13             3   A         3                 3   1-
A         14             3   A         4                 3   0+
A         15             3   A         4                 3   1+
A         16             3   A         4                 3   1-

************************** SUMMARY *********************************

--------------  SO matrix for irrep A in eV ---------------- 
|1,0+;1,A,1>  -977.092   
|1,0+;1,A,2>     0.000    -972.517   
|1,0+;1,A,3>     0.000       0.000    -972.065   
|1,0+;1,A,4>     0.000       0.000       0.000    -970.734   
|3,0+;3,A,1>    -0.000      -0.000      -0.000      -0.000    -972.961   
|3,1+;3,A,1>    -0.000      -0.000      -0.000       0.000       0.000    -972.961   
|3,1-;3,A,1>     0.000       0.000       0.000      -0.000       0.000      -0.000    -972.961   
|3,0+;3,A,2>    -0.000       0.000      -0.000       0.000       0.000       0.000       0.000    -972.587   
|3,1+;3,A,2>    -0.000       0.000       0.000      -0.000      -0.000       0.000      -0.000       0.000    -972.587   
|3,1-;3,A,2>     0.001      -0.000       0.000      -0.000      -0.000       0.000       0.000      -0.000       0.000    -972.587   
|3,0+;3,A,3>    -0.000       0.000       0.000       0.000       0.000      -0.000       0.000       0.000       0.000      -0.000    -972.466   
|3,1+;3,A,3>    -0.000      -0.000      -0.000       0.000       0.000       0.000      -0.000      -0.000       0.000      -0.000       0.000    -972.466   
|3,1-;3,A,3>    -0.000      -0.000      -0.000      -0.000      -0.000       0.000       0.000       0.000       0.000       0.000      -0.000      -0.000    -972.466   
|3,0+;3,A,4>    -0.000       0.000       0.000       0.000       0.000      -0.000      -0.000       0.000      -0.000      -0.000       0.000       0.000      -0.000    -972.053   
|3,1+;3,A,4>    -0.000      -0.000       0.000      -0.000       0.000       0.000      -0.000       0.000       0.000       0.000      -0.000       0.000       0.000      -0.000    -972.053   
|3,1-;3,A,4>    -0.000       0.000      -0.000      -0.000       0.000       0.000       0.000       0.000      -0.000       0.000       0.000      -0.000       0.000      -0.000       0.000    -972.053   

--------------  SO matrix for irrep A in cm-1 ------------------- 
Eref = -35.90745510
|1,0+;1,A,1>      0.00   
|1,0+;1,A,2>      0.00    36898.92   
|1,0+;1,A,3>      0.00        0.00    40541.46   
|1,0+;1,A,4>      0.00        0.00        0.00    51275.16   
|3,0+;3,A,1>     -0.05       -0.01       -0.18       -0.01    33318.03   
|3,1+;3,A,1>     -0.64       -0.57       -0.58        0.34        0.00    33318.03   
|3,1-;3,A,1>      1.90        2.75        0.04       -0.01        0.00        0.00    33318.03   
|3,0+;3,A,2>     -0.12        0.02       -0.23        0.05        0.00        2.97        0.61    36332.28   
|3,1+;3,A,2>     -1.53        0.05        0.72       -0.32       -2.97        0.00       -0.02        0.00    36332.28   
|3,1-;3,A,2>      5.28       -0.59        0.03       -0.04       -0.61        0.02        0.00        0.00        0.00    36332.28   
|3,0+;3,A,3>     -0.16        0.23        0.02        0.00        0.00       -0.17        0.22        0.00        0.10       -0.48    37306.35   
|3,1+;3,A,3>     -1.16       -0.43       -0.02        0.30        0.17        0.00       -0.12       -0.10        0.00       -0.23        0.00    37306.35   
|3,1-;3,A,3>     -0.31       -0.06       -0.02       -1.50       -0.22        0.12        0.00        0.48        0.23        0.00        0.00        0.00    37306.35   
|3,0+;3,A,4>     -0.01        0.00        0.02        0.13        0.00       -0.34       -0.05        0.00       -0.96       -0.24        0.00        0.02       -0.51    40635.09   
|3,1+;3,A,4>     -0.10       -0.19        0.09       -0.29        0.34        0.00       -0.00        0.96        0.00        0.00       -0.02        0.00        0.07        0.00    40635.09   
|3,1-;3,A,4>     -0.06        0.93       -0.04       -0.07        0.05        0.00        0.00        0.24       -0.00        0.00        0.51       -0.07        0.00        0.00        0.00    40635.09   


 ** perturbational estimate of Spin-Orbit CI energies and wavefunctions in model space basis** 

                      A  1         A  2         A  3         A  4         A  5         A  6         A  7         A  8

            energy  -286.09990913  -285.94810126  -285.94810126  -285.94810126  -285.93436735  -285.93436734  -285.93436734  -285.93178556
          
   |1,0+;1,A,1>     0.99999999    -0.00000806     0.00000014     0.00005953     0.00015004     0.00001183     0.00001513     0.00000014
   |1,0+;1,A,2>     0.00000000     0.00000828    -0.00000535    -0.00078449     0.00103733    -0.00000423    -0.00007883    -0.99999840
   |1,0+;1,A,3>    -0.00000000     0.00008085     0.00001062    -0.00002085     0.00001885     0.00003876     0.00017428     0.00000003
   |1,0+;1,A,4>     0.00000000    -0.00001817     0.00000358     0.00000415    -0.00000074    -0.00000783    -0.00002062     0.00000000
   |3,0+;3,A,1>     0.00000164     0.16836613     0.98569792    -0.00717235    -0.00004543     0.00050646     0.00086928     0.00000160
   |3,1+;3,A,1>     0.00001915     0.96748821    -0.16664011    -0.19025410     0.00000090    -0.00085304     0.00049585     0.00015809
   |3,1-;3,A,1>    -0.00005692     0.18872833    -0.02509319     0.98170836     0.00000106    -0.00017168     0.00010602    -0.00076839
   |3,0+;3,A,2>     0.00000323    -0.00099268     0.00016949    -0.00001033    -0.00415398    -0.86412718     0.50325504    -0.00004028
   |3,1+;3,A,2>     0.00004219     0.00016712     0.00097244    -0.00000181    -0.15592304    -0.49654426    -0.85389149    -0.00009231
   |3,1-;3,A,2>    -0.00014523     0.00002884     0.00019974    -0.00000070     0.98775976    -0.08201612    -0.13267471     0.00103540
   |3,0+;3,A,3>     0.00000428     0.00003040    -0.00000565    -0.00006308     0.00050473     0.00001158     0.00002436     0.00057403
   |3,1+;3,A,3>     0.00003105    -0.00000156    -0.00004249     0.00002936     0.00023468    -0.00011052     0.00002134    -0.00104669
   |3,1-;3,A,3>     0.00000828    -0.00001915     0.00006015     0.00000524     0.00003918     0.00054540    -0.00004620    -0.00014229
   |3,0+;3,A,4>     0.00000031     0.00004615    -0.00000776    -0.00000255     0.00002049    -0.00011515    -0.00019751     0.00000125
   |3,1+;3,A,4>     0.00000239    -0.00000760    -0.00004580     0.00000079     0.00000050     0.00019240    -0.00011207    -0.00004997
   |3,1-;3,A,4>     0.00000144    -0.00000152    -0.00000623     0.00000024    -0.00000012     0.00004805    -0.00002854     0.00024875

                      A  9         A 10         A 11         A 12         A 13         A 14         A 15         A 16

            energy  -285.92992916  -285.92992916  -285.92992916  -285.91518897  -285.91476234  -285.91476234  -285.91476234  -285.86628272
          
   |1,0+;1,A,1>    -0.00000534     0.00001659     0.00002739    -0.00000000     0.00000265     0.00000087    -0.00000025    -0.00000000
   |1,0+;1,A,2>    -0.00004244    -0.00010708     0.00119658     0.00000017    -0.00008055    -0.00009303    -0.00022201     0.00000000
   |1,0+;1,A,3>     0.00000460     0.00000224    -0.00000821     0.99999946    -0.00052911    -0.00007404     0.00087432     0.00000000
   |1,0+;1,A,4>     0.00010893     0.00000475     0.00001011    -0.00000001    -0.00002863     0.00000852     0.00000585    -0.99999999
   |3,0+;3,A,1>    -0.00006000    -0.00001476    -0.00003386    -0.00002444    -0.00004222    -0.00000343     0.00002002     0.00000041
   |3,1+;3,A,1>     0.00002984     0.00003785    -0.00001953    -0.00008047    -0.00001038     0.00004289    -0.00001453    -0.00001897
   |3,1-;3,A,1>     0.00000292    -0.00003980     0.00005023     0.00000547    -0.00000104     0.00000590    -0.00000228     0.00000056
   |3,0+;3,A,2>     0.00050237     0.00002407     0.00005321    -0.00005424    -0.00021505    -0.00002538     0.00007611    -0.00000353
   |3,1+;3,A,2>     0.00023651    -0.00010508     0.00002132     0.00017103    -0.00004824     0.00020669    -0.00006724     0.00002164
   |3,1-;3,A,2>     0.00002145     0.00054797     0.00001990     0.00000769    -0.00001254     0.00005184    -0.00001669     0.00000266
   |3,0+;3,A,3>     0.00168194    -0.91775145     0.39715089     0.00000536    -0.00007043    -0.00005693    -0.00012319    -0.00000017
   |3,1+;3,A,3>    -0.09389012    -0.39554232    -0.91363546    -0.00000619     0.00001099     0.00000180     0.00001723    -0.00002134
   |3,1-;3,A,3>     0.99558097    -0.03575191    -0.08683303    -0.00000521    -0.00004973     0.00014129    -0.00003591     0.00010740
   |3,0+;3,A,4>     0.00015272    -0.00000309    -0.00000781    -0.00021958     0.21743639    -0.92745018     0.30423257    -0.00001232
   |3,1+;3,A,4>    -0.00001963    -0.00000478     0.00000413    -0.00091841    -0.84192537    -0.02050981     0.53920322     0.00002708
   |3,1-;3,A,4>    -0.00000212     0.00013247    -0.00007891     0.00039767    -0.49384485    -0.37338376    -0.78530350     0.00000637
rescaling new expansion vector ... old norm=   4209.2565887270

Sorted Energies:
1  -286.09990913 
2  -285.94810126 
3  -285.94810126 
4  -285.94810126 
5  -285.93436735 
6  -285.93436734 
7  -285.93436734 
8  -285.93178556 
9  -285.92992916 
10  -285.92992916 
11  -285.92992916 
12  -285.91518897 
13  -285.91476234 
14  -285.91476234 
15  -285.91476234 
16  -285.86628272 
Not computing transition moment with identical bra and ket.
 Calculating transition moment for (1,1) => (1,2)
 starting transci.x -m 200000 at Sat Jun  4 17:57:48 EDT 2022

 -------------------- transci.x ------------------------

                          State No. 1            State No. 2

   Space symmetry:           a                      a   
   No. of CSFs:          ********               ********
   State energies:      -286.09990913          -285.93178557  a.u.

   Transition energy:     0.16812356  a.u.
   Transition energy:     4.57        eV

       Transition moment components:

                 x            y            z

electron          0.004921     0.082873     0.030505  e*bohr
frozen core       0.000000     0.000000     0.000000  e*bohr
total (elec)      0.004921     0.082873     0.030505  e*bohr


   Tr.dipole length:     0.088446    e*bohr
   Oscillator strength :  0.000877
   Einstein A coef.:     0.7962E+06  1/sec
   Einstein B coef.:     0.3175E+07  sec/g

                 x            y            z

<L> electron    -0.360822     0.024931     0.030300  e*bohr


   <L> value length:     0.362950    e*bohr
 --------------------------------------------------- 
  Calculating transition moment for (1,1) => (1,3)
 starting transci.x -m 200000 at Sat Jun  4 18:00:09 EDT 2022

 -------------------- transci.x ------------------------

                          State No. 1            State No. 2

   Space symmetry:           a                      a   
   No. of CSFs:          ********               ********
   State energies:      -286.09990913          -285.91518897  a.u.

   Transition energy:     0.18472016  a.u.
   Transition energy:     5.03        eV

       Transition moment components:

                 x            y            z

electron         -0.435689     0.009942    -0.000371  e*bohr
frozen core       0.000000     0.000000     0.000000  e*bohr
total (elec)     -0.435689     0.009942    -0.000371  e*bohr


   Tr.dipole length:     0.435803    e*bohr
   Oscillator strength :  0.023389
   Einstein A coef.:     0.2564E+08  1/sec
   Einstein B coef.:     0.7707E+08  sec/g

                 x            y            z

<L> electron     0.000169     0.039514     0.597657  e*bohr


   <L> value length:     0.598962    e*bohr
 --------------------------------------------------- 
  Calculating transition moment for (1,1) => (1,4)
 starting transci.x -m 200000 at Sat Jun  4 18:02:27 EDT 2022

 -------------------- transci.x ------------------------

                          State No. 1            State No. 2

   Space symmetry:           a                      a   
   No. of CSFs:          ********               ********
   State energies:      -286.09990913          -285.86628272  a.u.

   Transition energy:     0.23362641  a.u.
   Transition energy:     6.36        eV

       Transition moment components:

                 x            y            z

electron          0.044544    -0.026758     0.001312  e*bohr
frozen core       0.000000     0.000000     0.000000  e*bohr
total (elec)      0.044544    -0.026758     0.001312  e*bohr


   Tr.dipole length:     0.051980    e*bohr
   Oscillator strength :  0.000421
   Einstein A coef.:     0.7379E+06  1/sec
   Einstein B coef.:     0.1096E+07  sec/g

                 x            y            z

<L> electron     0.003691     0.442692    -0.065065  e*bohr


   <L> value length:     0.447463    e*bohr
 --------------------------------------------------- 
 Not computing transition moment with identical bra and ket.
 Calculating transition moment for (1,2) => (1,3)
 starting transci.x -m 200000 at Sat Jun  4 18:04:47 EDT 2022

 -------------------- transci.x ------------------------

                          State No. 1            State No. 2

   Space symmetry:           a                      a   
   No. of CSFs:          ********               ********
   State energies:      -285.93178557          -285.91518897  a.u.

   Transition energy:     0.01659660  a.u.
   Transition energy:     0.45        eV

       Transition moment components:

                 x            y            z

electron         -0.077449     0.095716    -0.009304  e*bohr
frozen core       0.000000     0.000000     0.000000  e*bohr
total (elec)     -0.077449     0.095716    -0.009304  e*bohr


   Tr.dipole length:     0.123477    e*bohr
   Oscillator strength :  0.000169
   Einstein A coef.:     0.1493E+04  1/sec
   Einstein B coef.:     0.6187E+07  sec/g

                 x            y            z

<L> electron    -0.002127     0.126459     0.026986  e*bohr


   <L> value length:     0.129324    e*bohr
 --------------------------------------------------- 
  Calculating transition moment for (1,2) => (1,4)
 starting transci.x -m 200000 at Sat Jun  4 18:07:04 EDT 2022

 -------------------- transci.x ------------------------

                          State No. 1            State No. 2

   Space symmetry:           a                      a   
   No. of CSFs:          ********               ********
   State energies:      -285.93178557          -285.86628272  a.u.

   Transition energy:     0.06550285  a.u.
   Transition energy:     1.78        eV

       Transition moment components:

                 x            y            z

electron         -0.169349    -0.008271     0.005975  e*bohr
frozen core       0.000000     0.000000     0.000000  e*bohr
total (elec)     -0.169349    -0.008271     0.005975  e*bohr


   Tr.dipole length:     0.169656    e*bohr
   Oscillator strength :  0.001257
   Einstein A coef.:     0.1733E+06  1/sec
   Einstein B coef.:     0.1168E+08  sec/g

                 x            y            z

<L> electron     0.007037     0.006266     0.607697  e*bohr


   <L> value length:     0.607770    e*bohr
 --------------------------------------------------- 
 Not computing transition moment with identical bra and ket.
 Calculating transition moment for (1,3) => (1,4)
 starting transci.x -m 200000 at Sat Jun  4 18:09:20 EDT 2022

 -------------------- transci.x ------------------------

                          State No. 1            State No. 2

   Space symmetry:           a                      a   
   No. of CSFs:          ********               ********
   State energies:      -285.91518897          -285.86628272  a.u.

   Transition energy:     0.04890625  a.u.
   Transition energy:     1.33        eV

       Transition moment components:

                 x            y            z

electron         -0.003198    -0.123764    -0.005351  e*bohr
frozen core       0.000000     0.000000     0.000000  e*bohr
total (elec)     -0.003198    -0.123764    -0.005351  e*bohr


   Tr.dipole length:     0.123921    e*bohr
   Oscillator strength :  0.000501
   Einstein A coef.:     0.3847E+05  1/sec
   Einstein B coef.:     0.6232E+07  sec/g

                 x            y            z

<L> electron     0.144824    -0.005938     0.034184  e*bohr


   <L> value length:     0.148922    e*bohr
 --------------------------------------------------- 
 Not computing transition moment with identical bra and ket.
Not computing transition moment with identical bra and ket.
 Calculating transition moment for (2,1) => (2,2)
 starting transci.x -m 200000 at Sat Jun  4 18:11:36 EDT 2022

 -------------------- transci.x ------------------------

                          State No. 1            State No. 2

   Space symmetry:           a                      a   
   No. of CSFs:          ********               ********
   State energies:      -285.94810125          -285.93436735  a.u.

   Transition energy:     0.01373390  a.u.
   Transition energy:     0.37        eV

       Transition moment components:

                 x            y            z

electron         -0.016808    -0.821858    -0.042596  e*bohr
frozen core       0.000000     0.000000     0.000000  e*bohr
total (elec)     -0.016808    -0.821858    -0.042596  e*bohr


   Tr.dipole length:     0.823132    e*bohr
   Oscillator strength :  0.006204
   Einstein A coef.:     0.3759E+05  1/sec
   Einstein B coef.:     0.2750E+09  sec/g

                 x            y            z

<L> electron     0.177886    -0.008323     0.085494  e*bohr


   <L> value length:     0.197540    e*bohr
 --------------------------------------------------- 
  Calculating transition moment for (2,1) => (2,3)
 starting transci.x -m 200000 at Sat Jun  4 18:15:52 EDT 2022

 -------------------- transci.x ------------------------

                          State No. 1            State No. 2

   Space symmetry:           a                      a   
   No. of CSFs:          ********               ********
   State energies:      -285.94810125          -285.92992916  a.u.

   Transition energy:     0.01817209  a.u.
   Transition energy:     0.49        eV

       Transition moment components:

                 x            y            z

electron          0.188447     0.068269     0.001628  e*bohr
frozen core       0.000000     0.000000     0.000000  e*bohr
total (elec)      0.188447     0.068269     0.001628  e*bohr


   Tr.dipole length:     0.200438    e*bohr
   Oscillator strength :  0.000487
   Einstein A coef.:     0.5164E+04  1/sec
   Einstein B coef.:     0.1630E+08  sec/g

                 x            y            z

<L> electron    -0.015634     0.046280     1.098199  e*bohr


   <L> value length:     1.099284    e*bohr
 --------------------------------------------------- 
  Calculating transition moment for (2,1) => (2,4)
 starting transci.x -m 200000 at Sat Jun  4 18:20:04 EDT 2022

 -------------------- transci.x ------------------------

                          State No. 1            State No. 2

   Space symmetry:           a                      a   
   No. of CSFs:          ********               ********
   State energies:      -285.94810125          -285.91476234  a.u.

   Transition energy:     0.03333891  a.u.
   Transition energy:     0.91        eV

       Transition moment components:

                 x            y            z

electron         -0.002436     0.226868    -0.018254  e*bohr
frozen core       0.000000     0.000000     0.000000  e*bohr
total (elec)     -0.002436     0.226868    -0.018254  e*bohr


   Tr.dipole length:     0.227615    e*bohr
   Oscillator strength :  0.001151
   Einstein A coef.:     0.4112E+05  1/sec
   Einstein B coef.:     0.2102E+08  sec/g

                 x            y            z

<L> electron    -0.020168     0.001241     0.000713  e*bohr


   <L> value length:     0.020218    e*bohr
 --------------------------------------------------- 
 Not computing transition moment with identical bra and ket.
 Calculating transition moment for (2,2) => (2,3)
 starting transci.x -m 200000 at Sat Jun  4 18:24:21 EDT 2022

 -------------------- transci.x ------------------------

                          State No. 1            State No. 2

   Space symmetry:           a                      a   
   No. of CSFs:          ********               ********
   State energies:      -285.93436735          -285.92992916  a.u.

   Transition energy:     0.00443819  a.u.
   Transition energy:     0.12        eV

       Transition moment components:

                 x            y            z

electron         -0.122456     0.340441    -0.015611  e*bohr
frozen core       0.000000     0.000000     0.000000  e*bohr
total (elec)     -0.122456     0.340441    -0.015611  e*bohr


   Tr.dipole length:     0.362132    e*bohr
   Oscillator strength :  0.000388
   Einstein A coef.:     0.2456E+03  1/sec
   Einstein B coef.:     0.5322E+08  sec/g

                 x            y            z

<L> electron     0.002322     0.093075    -0.264457  e*bohr


   <L> value length:     0.280368    e*bohr
 --------------------------------------------------- 
  Calculating transition moment for (2,2) => (2,4)
 starting transci.x -m 200000 at Sat Jun  4 18:28:31 EDT 2022

 -------------------- transci.x ------------------------

                          State No. 1            State No. 2

   Space symmetry:           a                      a   
   No. of CSFs:          ********               ********
   State energies:      -285.93436735          -285.91476234  a.u.

   Transition energy:     0.01960501  a.u.
   Transition energy:     0.53        eV

       Transition moment components:

                 x            y            z

electron         -0.017891     0.203077    -0.053593  e*bohr
frozen core       0.000000     0.000000     0.000000  e*bohr
total (elec)     -0.017891     0.203077    -0.053593  e*bohr


   Tr.dipole length:     0.210790    e*bohr
   Oscillator strength :  0.000581
   Einstein A coef.:     0.7171E+04  1/sec
   Einstein B coef.:     0.1803E+08  sec/g

                 x            y            z

<L> electron    -0.054872     0.003593    -0.015246  e*bohr


   <L> value length:     0.057064    e*bohr
 --------------------------------------------------- 
 Not computing transition moment with identical bra and ket.
 Calculating transition moment for (2,3) => (2,4)
 starting transci.x -m 200000 at Sat Jun  4 18:32:41 EDT 2022

 -------------------- transci.x ------------------------

                          State No. 1            State No. 2

   Space symmetry:           a                      a   
   No. of CSFs:          ********               ********
   State energies:      -285.92992916          -285.91476234  a.u.

   Transition energy:     0.01516682  a.u.
   Transition energy:     0.41        eV

       Transition moment components:

                 x            y            z

electron         -0.094637    -0.018901     0.005117  e*bohr
frozen core       0.000000     0.000000     0.000000  e*bohr
total (elec)     -0.094637    -0.018901     0.005117  e*bohr


   Tr.dipole length:     0.096642    e*bohr
   Oscillator strength :  0.000094
   Einstein A coef.:     0.6979E+03  1/sec
   Einstein B coef.:     0.3790E+07  sec/g

                 x            y            z

<L> electron     0.004494    -0.006435    -0.263483  e*bohr


   <L> value length:     0.263599    e*bohr
 --------------------------------------------------- 
 Not computing transition moment with identical bra and ket.
 --- ci properties for state 1 of  DRT 1 ----
starting exptvl.x -m 200000  at Sat Jun  4 18:36:51 EDT 2022

 -------------------- exptvl.x ------------------------
  === dipole moment === 
                     X               Y               Z   
   orign x       0.00000000      0.00000000      0.00000000
   orign y       0.00000000      0.00000000      0.00000000
   orign z       0.00000000      0.00000000      0.00000000
   nuclear      -1.09178473     -1.32452424      3.25444285
   electronic    1.09343159      0.73806162     -3.58530178
   total         0.00164686     -0.58646262     -0.33085893
   total Dipole moment =   1.71150278    Debye
 !timer: exptvl required                 cpu_time=     0.191 walltime=     0.627
 --------------------------------------------------- 
  --- ci properties for state 2 of  DRT 1 ----
starting exptvl.x -m 200000  at Sat Jun  4 18:36:52 EDT 2022

 -------------------- exptvl.x ------------------------
  === dipole moment === 
                     X               Y               Z   
   orign x       0.00000000      0.00000000      0.00000000
   orign y       0.00000000      0.00000000      0.00000000
   orign z       0.00000000      0.00000000      0.00000000
   nuclear      -1.09178473     -1.32452424      3.25444285
   electronic    1.12829337      4.54604254     -3.67986791
   total         0.03650864      3.22151830     -0.42542506
   total Dipole moment =   8.25990194    Debye
 --------------------------------------------------- 
  --- ci properties for state 3 of  DRT 1 ----
starting exptvl.x -m 200000  at Sat Jun  4 18:36:52 EDT 2022

 -------------------- exptvl.x ------------------------
  === dipole moment === 
                     X               Y               Z   
   orign x       0.00000000      0.00000000      0.00000000
   orign y       0.00000000      0.00000000      0.00000000
   orign z       0.00000000      0.00000000      0.00000000
   nuclear      -1.09178473     -1.32452424      3.25444285
   electronic    1.09175600      0.37697859     -3.54924289
   total        -0.00002873     -0.94754565     -0.29480004
   total Dipole moment =   2.52229347    Debye
 --------------------------------------------------- 
  --- ci properties for state 4 of  DRT 1 ----
starting exptvl.x -m 200000  at Sat Jun  4 18:36:52 EDT 2022

 -------------------- exptvl.x ------------------------
  === dipole moment === 
                     X               Y               Z   
   orign x       0.00000000      0.00000000      0.00000000
   orign y       0.00000000      0.00000000      0.00000000
   orign z       0.00000000      0.00000000      0.00000000
   nuclear      -1.09178473     -1.32452424      3.25444285
   electronic    1.11337603      5.61840285     -3.82732675
   total         0.02159130      4.29387861     -0.57288390
   total Dipole moment =  11.01080727    Debye
 --------------------------------------------------- 
  --- ci properties for state 1 of  DRT 2 ----
starting exptvl.x -m 200000  at Sat Jun  4 18:36:53 EDT 2022

 -------------------- exptvl.x ------------------------
  === dipole moment === 
                     X               Y               Z   
   orign x       0.00000000      0.00000000      0.00000000
   orign y       0.00000000      0.00000000      0.00000000
   orign z       0.00000000      0.00000000      0.00000000
   nuclear      -1.09178473     -1.32452424      3.25444285
   electronic    1.10442978      0.82521812     -3.54020064
   total         0.01264505     -0.49930612     -0.28575779
   total Dipole moment =   1.46260819    Debye
 --------------------------------------------------- 
  --- ci properties for state 2 of  DRT 2 ----
starting exptvl.x -m 200000  at Sat Jun  4 18:36:53 EDT 2022

 -------------------- exptvl.x ------------------------
  === dipole moment === 
                     X               Y               Z   
   orign x       0.00000000      0.00000000      0.00000000
   orign y       0.00000000      0.00000000      0.00000000
   orign z       0.00000000      0.00000000      0.00000000
   nuclear      -1.09178473     -1.32452424      3.25444285
   electronic    1.15147826      4.24452762     -3.66820724
   total         0.05969353      2.92000338     -0.41376439
   total Dipole moment =   7.49759259    Debye
 --------------------------------------------------- 
  --- ci properties for state 3 of  DRT 2 ----
starting exptvl.x -m 200000  at Sat Jun  4 18:36:53 EDT 2022

 -------------------- exptvl.x ------------------------
  === dipole moment === 
                     X               Y               Z   
   orign x       0.00000000      0.00000000      0.00000000
   orign y       0.00000000      0.00000000      0.00000000
   orign z       0.00000000      0.00000000      0.00000000
   nuclear      -1.09178473     -1.32452424      3.25444285
   electronic    1.07550235      0.14015836     -3.54184270
   total        -0.01628238     -1.18436588     -0.28739985
   total Dipole moment =   3.09800138    Debye
 --------------------------------------------------- 
  --- ci properties for state 4 of  DRT 2 ----
starting exptvl.x -m 200000  at Sat Jun  4 18:36:54 EDT 2022

 -------------------- exptvl.x ------------------------
  === dipole moment === 
                     X               Y               Z   
   orign x       0.00000000      0.00000000      0.00000000
   orign y       0.00000000      0.00000000      0.00000000
   orign z       0.00000000      0.00000000      0.00000000
   nuclear      -1.09178473     -1.32452424      3.25444285
   electronic    1.09361151      0.54573835     -3.57739406
   total         0.00182678     -0.77878589     -0.32295121
   total Dipole moment =   2.14293452    Debye
 --------------------------------------------------- 
 starting mo_convert.x at Sat Jun  4 18:36:54 EDT 2022

 -------------------- mo_convert.x ------------------------
 --------------------------------------------------- 
 starting pymolcas molcas.input.molden > molcas.output.molden at Sat Jun  4 18:36:54 EDT 2022

Generating link ln -s ./molcas.OrdInt ORDINT 
 -------------------- molden ------------------------
 --------------------------------------------------- 
 starting mo_convert.x at Sat Jun  4 18:37:23 EDT 2022

 -------------------- mo_convert.x ------------------------
 --------------------------------------------------- 
 starting pymolcas molcas.input.molden > molcas.output.molden at Sat Jun  4 18:37:23 EDT 2022

Generating link ln -s ./molcas.OrdInt ORDINT 
 -------------------- molden ------------------------
 --------------------------------------------------- 
 starting mo_convert.x at Sat Jun  4 18:37:51 EDT 2022

 -------------------- mo_convert.x ------------------------
 --------------------------------------------------- 
 starting pymolcas molcas.input.molden > molcas.output.molden at Sat Jun  4 18:37:51 EDT 2022

Generating link ln -s ./molcas.OrdInt ORDINT 
 -------------------- molden ------------------------
 --------------------------------------------------- 
 starting mo_convert.x at Sat Jun  4 18:38:13 EDT 2022

 -------------------- mo_convert.x ------------------------
 --------------------------------------------------- 
 starting pymolcas molcas.input.molden > molcas.output.molden at Sat Jun  4 18:38:13 EDT 2022

Generating link ln -s ./molcas.OrdInt ORDINT 
 -------------------- molden ------------------------
 --------------------------------------------------- 
 starting mo_convert.x at Sat Jun  4 18:38:35 EDT 2022

 -------------------- mo_convert.x ------------------------
 --------------------------------------------------- 
 starting pymolcas molcas.input.molden > molcas.output.molden at Sat Jun  4 18:38:35 EDT 2022

Generating link ln -s ./molcas.OrdInt ORDINT 
 -------------------- molden ------------------------
 --------------------------------------------------- 
 starting mo_convert.x at Sat Jun  4 18:38:58 EDT 2022

 -------------------- mo_convert.x ------------------------
 --------------------------------------------------- 
 starting pymolcas molcas.input.molden > molcas.output.molden at Sat Jun  4 18:38:58 EDT 2022

Generating link ln -s ./molcas.OrdInt ORDINT 
 -------------------- molden ------------------------
 --------------------------------------------------- 
 starting mo_convert.x at Sat Jun  4 18:39:19 EDT 2022

 -------------------- mo_convert.x ------------------------
 --------------------------------------------------- 
 starting pymolcas molcas.input.molden > molcas.output.molden at Sat Jun  4 18:39:20 EDT 2022

Generating link ln -s ./molcas.OrdInt ORDINT 
 -------------------- molden ------------------------
 --------------------------------------------------- 
 starting mo_convert.x at Sat Jun  4 18:39:43 EDT 2022

 -------------------- mo_convert.x ------------------------
 --------------------------------------------------- 
 starting pymolcas molcas.input.molden > molcas.output.molden at Sat Jun  4 18:39:43 EDT 2022

Generating link ln -s ./molcas.OrdInt ORDINT 
 -------------------- molden ------------------------
 --------------------------------------------------- 
 starting mo_convert.x at Sat Jun  4 18:40:04 EDT 2022

 -------------------- mo_convert.x ------------------------
 --------------------------------------------------- 
 starting pymolcas molcas.input.molden > molcas.output.molden at Sat Jun  4 18:40:04 EDT 2022

Generating link ln -s ./molcas.OrdInt ORDINT 
 -------------------- molden ------------------------
 --------------------------------------------------- 
 starting mo_convert.x at Sat Jun  4 18:40:28 EDT 2022

 -------------------- mo_convert.x ------------------------
 --------------------------------------------------- 
 starting pymolcas molcas.input.molden > molcas.output.molden at Sat Jun  4 18:40:28 EDT 2022

Generating link ln -s ./molcas.OrdInt ORDINT 
 -------------------- molden ------------------------
 --------------------------------------------------- 
 starting mo_convert.x at Sat Jun  4 18:40:51 EDT 2022

 -------------------- mo_convert.x ------------------------
 --------------------------------------------------- 
 starting pymolcas molcas.input.molden > molcas.output.molden at Sat Jun  4 18:40:51 EDT 2022

Generating link ln -s ./molcas.OrdInt ORDINT 
 -------------------- molden ------------------------
 --------------------------------------------------- 
 starting mo_convert.x at Sat Jun  4 18:41:12 EDT 2022

 -------------------- mo_convert.x ------------------------
 --------------------------------------------------- 
 starting pymolcas molcas.input.molden > molcas.output.molden at Sat Jun  4 18:41:13 EDT 2022

Generating link ln -s ./molcas.OrdInt ORDINT 
 -------------------- molden ------------------------
 --------------------------------------------------- 
 starting mo_convert.x at Sat Jun  4 18:41:34 EDT 2022

 -------------------- mo_convert.x ------------------------
 --------------------------------------------------- 
 starting pymolcas molcas.input.molden > molcas.output.molden at Sat Jun  4 18:41:34 EDT 2022

Generating link ln -s ./molcas.OrdInt ORDINT 
 -------------------- molden ------------------------
 --------------------------------------------------- 
 starting mo_convert.x at Sat Jun  4 18:41:58 EDT 2022

 -------------------- mo_convert.x ------------------------
 --------------------------------------------------- 
 starting pymolcas molcas.input.molden > molcas.output.molden at Sat Jun  4 18:42:00 EDT 2022

Generating link ln -s ./molcas.OrdInt ORDINT 
 -------------------- molden ------------------------
 --------------------------------------------------- 
 

 +++++++++++ STARTING GRADIENTS AND NAD. COUPLINGS CALCULATION +++++++++++ 

 Using new transition density code ... 
INFO: this is a frozen core gradient calculation
starting cidrt.x  -m 200000 < cidrtin.cigrd > cidrtls.cigrd at Sat Jun  4 18:42:22 EDT 2022

 -------------------- cidrt.x ------------------------
 total number of orbitals            :   246
 number of frozen core orbitals      :    18
 number of frozen virtual orbitals   :     0
 number of internal orbitals         :    14
 number of external orbitals         :   214
 spatial symmetry:   a  
 
 total number of configurations  282461366
 number of reference configurations  1666
 --------------------------------------------------- 
 starting tran.x -m 200000  at Sat Jun  4 18:42:29 EDT 2022

 -------------------- tran.x ------------------------
 --------------------------------------------------- 
 ---- Computing 8 gradient(s)  ----

 --- Computing gradient for DRT:1, State; 1

starting cigrd.x -m 200000 at Sat Jun  4 18:50:59 EDT 2022

 -------------------- cigrd.x ------------------------
 Total energy (ciudg) :  -286.099909129625 
  Effective energy     :  -286.099909145314 
  Delta E              :     0.000000015689 
  --------------------------------------------------- 
 starting tran.x -m 200000  at Sat Jun  4 19:01:29 EDT 2022

 -------------------- tran.x ------------------------
 --------------------------------------------------- 
 starting pymolcas molcas.input.alaska > molcas.output.alaska  at Sat Jun  4 19:08:57 EDT 2022

Generating link ln -s ./molcas.OrdInt ORDINT 
 -------------------- alaska ------------------------
 --------------------------------------------------- 
 cartesian gradient by alaska (MOLCAS)

 === Gradient of DRT 1, state 1 === 
   0.365863D-01   0.503459D-01   0.559550D-02
   0.760069D-03  -0.125389D-01   0.740035D-02
  -0.101779D-01   0.993362D-02  -0.381998D-03
   0.100403D-01   0.103345D-01  -0.304621D-03
  -0.588278D-02  -0.754321D-02  -0.149472D-03
   0.601177D-02  -0.755655D-02  -0.152833D-03
  -0.255225D-04   0.674019D-03  -0.165531D-04
  -0.436686D-01  -0.327792D-01  -0.134726D-01
   0.638796D-02  -0.104990D-01   0.915704D-03
   0.105566D-02   0.397545D-03   0.210483D-03
  -0.105669D-02   0.379847D-03   0.180669D-03
   0.418537D-03  -0.458474D-03   0.512137D-04
  -0.449005D-03  -0.436097D-03   0.459050D-04
  -0.141274D-06  -0.254002D-03   0.782064D-04
===================================
 --- Computing gradient for DRT:1, State; 2

starting cigrd.x -m 200000 at Sat Jun  4 19:10:20 EDT 2022

 -------------------- cigrd.x ------------------------
 Total energy (ciudg) :  -285.931785570915 
  Effective energy     :  -285.931785587300 
  Delta E              :     0.000000016385 
  --------------------------------------------------- 
 starting tran.x -m 200000  at Sat Jun  4 19:21:10 EDT 2022

 -------------------- tran.x ------------------------
 --------------------------------------------------- 
 starting pymolcas molcas.input.alaska > molcas.output.alaska  at Sat Jun  4 19:28:33 EDT 2022

Generating link ln -s ./molcas.OrdInt ORDINT 
 -------------------- alaska ------------------------
 --------------------------------------------------- 
 cartesian gradient by alaska (MOLCAS)

 === Gradient of DRT 1, state 2 === 
   0.352827D-01  -0.245458D-01   0.398456D-01
  -0.809490D-03   0.469814D-01  -0.908835D-02
   0.172532D-01  -0.137983D-01  -0.188805D-03
  -0.169916D-01  -0.143912D-01  -0.876944D-03
   0.751603D-02   0.119000D-01  -0.130649D-04
  -0.771943D-02   0.118725D-01   0.237157D-03
   0.496762D-04  -0.608691D-03  -0.940907D-04
  -0.247077D-01  -0.194685D-01  -0.205513D-01
  -0.996518D-02   0.115713D-02  -0.853298D-02
  -0.194614D-02  -0.619118D-03  -0.480498D-03
   0.199095D-02  -0.637049D-03  -0.245699D-03
  -0.644628D-03   0.950780D-03   0.113943D-03
   0.689912D-03   0.932383D-03   0.100443D-03
   0.167193D-05   0.274496D-03  -0.225428D-03
===================================
 --- Computing gradient for DRT:1, State; 3

starting cigrd.x -m 200000 at Sat Jun  4 19:29:53 EDT 2022

 -------------------- cigrd.x ------------------------
 Total energy (ciudg) :  -285.915188967628 
  Effective energy     :  -285.915188985020 
  Delta E              :     0.000000017392 
  --------------------------------------------------- 
 starting tran.x -m 200000  at Sat Jun  4 19:42:29 EDT 2022

 -------------------- tran.x ------------------------
 --------------------------------------------------- 
 starting pymolcas molcas.input.alaska > molcas.output.alaska  at Sat Jun  4 19:50:01 EDT 2022

Generating link ln -s ./molcas.OrdInt ORDINT 
 -------------------- alaska ------------------------
 --------------------------------------------------- 
 cartesian gradient by alaska (MOLCAS)

 === Gradient of DRT 1, state 3 === 
   0.371559D-01   0.319121D-01   0.146355D-01
   0.750154D-03   0.123046D-01   0.402833D-02
   0.193085D-01   0.405896D-01  -0.230029D-02
  -0.193242D-01   0.407810D-01  -0.157021D-02
   0.214776D-01  -0.355220D-01   0.171684D-02
  -0.215946D-01  -0.354557D-01   0.855806D-03
   0.121190D-03  -0.123175D-01   0.813012D-03
  -0.416076D-01  -0.324549D-01  -0.158450D-01
   0.374861D-02  -0.981393D-02  -0.177168D-02
   0.555785D-04   0.123735D-03  -0.141634D-03
  -0.547453D-04   0.105280D-03  -0.197386D-03
  -0.882672D-03  -0.149870D-03  -0.757815D-04
   0.846049D-03  -0.105434D-03  -0.279949D-04
   0.377989D-06   0.308968D-05  -0.119499D-03
===================================
 --- Computing gradient for DRT:1, State; 4

starting cigrd.x -m 200000 at Sat Jun  4 19:51:24 EDT 2022

 -------------------- cigrd.x ------------------------
 Total energy (ciudg) :  -285.866282721817 
  Effective energy     :  -285.866282736360 
  Delta E              :     0.000000014543 
  --------------------------------------------------- 
 starting tran.x -m 200000  at Sat Jun  4 20:02:35 EDT 2022

 -------------------- tran.x ------------------------
 --------------------------------------------------- 
 starting pymolcas molcas.input.alaska > molcas.output.alaska  at Sat Jun  4 20:09:54 EDT 2022

Generating link ln -s ./molcas.OrdInt ORDINT 
 -------------------- alaska ------------------------
 --------------------------------------------------- 
 cartesian gradient by alaska (MOLCAS)

 === Gradient of DRT 1, state 4 === 
   0.367211D-01   0.636849D-02   0.188287D-01
  -0.228520D-03   0.396458D-01   0.804436D-03
  -0.935227D-02   0.488410D-01  -0.209501D-02
   0.932087D-02   0.482889D-01  -0.226581D-02
  -0.167794D-01  -0.522842D-01   0.135202D-02
   0.168336D-01  -0.523781D-01   0.151259D-02
  -0.167680D-03  -0.710730D-02   0.390187D-03
  -0.368253D-01  -0.270968D-01  -0.161820D-01
   0.351716D-03  -0.530201D-02  -0.264377D-02
  -0.223572D-02  -0.517369D-03   0.699642D-04
   0.230589D-02  -0.541648D-03   0.251397D-03
  -0.822115D-03   0.202933D-03   0.285537D-04
   0.871881D-03   0.200614D-03  -0.514293D-05
   0.597769D-05   0.167968D-02  -0.461177D-04
===================================
 --- Computing gradient for DRT:2, State; 1

starting cigrd.x -m 200000 at Sat Jun  4 20:11:16 EDT 2022

 -------------------- cigrd.x ------------------------
 Total energy (ciudg) :  -285.948101247916 
  Effective energy     :  -285.948101263450 
  Delta E              :     0.000000015534 
  --------------------------------------------------- 
 starting tran.x -m 200000  at Sat Jun  4 20:22:54 EDT 2022

 -------------------- tran.x ------------------------
 --------------------------------------------------- 
 starting pymolcas molcas.input.alaska > molcas.output.alaska  at Sat Jun  4 20:30:21 EDT 2022

Generating link ln -s ./molcas.OrdInt ORDINT 
 -------------------- alaska ------------------------
 --------------------------------------------------- 
 cartesian gradient by alaska (MOLCAS)

 === Gradient of DRT 2, state 1 === 
   0.362530D-01   0.407560D-01   0.462568D-02
  -0.212941D-02   0.310732D-01   0.780949D-04
   0.307945D-01  -0.224761D-01   0.121006D-02
  -0.286812D-01  -0.220328D-01   0.202934D-02
   0.361962D-01   0.232480D-01   0.108096D-02
  -0.385092D-01   0.248450D-01   0.818650D-03
   0.215165D-02  -0.395785D-01   0.990097D-04
  -0.385390D-01  -0.284173D-01  -0.104852D-01
   0.246632D-02  -0.735367D-02   0.206118D-02
   0.118709D-02  -0.823404D-03  -0.473797D-03
  -0.122890D-02  -0.825639D-03  -0.396457D-03
   0.814821D-04   0.435756D-03   0.162067D-04
  -0.882703D-04   0.477135D-03  -0.111263D-03
   0.455781D-04   0.672422D-03  -0.552444D-03
===================================
 --- Computing gradient for DRT:2, State; 2

starting cigrd.x -m 200000 at Sat Jun  4 20:31:44 EDT 2022

 -------------------- cigrd.x ------------------------
 Total energy (ciudg) :  -285.934367349677 
  Effective energy     :  -285.934367366044 
  Delta E              :     0.000000016367 
  --------------------------------------------------- 
 starting tran.x -m 200000  at Sat Jun  4 20:41:37 EDT 2022

 -------------------- tran.x ------------------------
 --------------------------------------------------- 
 starting pymolcas molcas.input.alaska > molcas.output.alaska  at Sat Jun  4 20:48:58 EDT 2022

Generating link ln -s ./molcas.OrdInt ORDINT 
 -------------------- alaska ------------------------
 --------------------------------------------------- 
 cartesian gradient by alaska (MOLCAS)

 === Gradient of DRT 2, state 2 === 
   0.333726D-01  -0.166834D-01   0.374186D-01
   0.306189D-02   0.400265D-01   0.829600D-04
   0.141249D-01  -0.954516D-02  -0.204254D-02
  -0.171939D-01  -0.115583D-01  -0.437093D-02
   0.972587D-02   0.950804D-02  -0.262297D-02
  -0.678255D-02   0.781430D-02  -0.143476D-02
  -0.291970D-02  -0.129238D-02   0.230552D-02
  -0.244722D-01  -0.195277D-01  -0.209751D-01
  -0.883980D-02   0.476630D-03  -0.916772D-02
  -0.182494D-02  -0.580352D-03  -0.252167D-03
   0.180512D-02  -0.636420D-03   0.430393D-03
  -0.631883D-03   0.892633D-03   0.337838D-03
   0.643143D-03   0.834655D-03   0.205719D-03
  -0.685631D-04   0.270953D-03   0.852387D-04
===================================
 --- Computing gradient for DRT:2, State; 3

starting cigrd.x -m 200000 at Sat Jun  4 20:50:22 EDT 2022

 -------------------- cigrd.x ------------------------
 Total energy (ciudg) :  -285.929929159045 
  Effective energy     :  -285.929929176300 
  Delta E              :     0.000000017255 
  --------------------------------------------------- 
 starting tran.x -m 200000  at Sat Jun  4 21:00:52 EDT 2022

 -------------------- tran.x ------------------------
 --------------------------------------------------- 
 starting pymolcas molcas.input.alaska > molcas.output.alaska  at Sat Jun  4 21:08:20 EDT 2022

Generating link ln -s ./molcas.OrdInt ORDINT 
 -------------------- alaska ------------------------
 --------------------------------------------------- 
 cartesian gradient by alaska (MOLCAS)

 === Gradient of DRT 2, state 3 === 
   0.381741D-01   0.155581D-01   0.235892D-01
  -0.632771D-04   0.193597D-01   0.148538D-03
   0.186887D-01   0.420676D-01  -0.259131D-02
  -0.183035D-01   0.431275D-01  -0.807240D-03
   0.172539D-01  -0.432990D-01   0.253148D-02
  -0.177700D-01  -0.429137D-01   0.723316D-03
   0.796084D-03   0.867754D-02   0.193059D-04
  -0.411178D-01  -0.330601D-01  -0.188375D-01
   0.228304D-02  -0.991098D-02  -0.403538D-02
  -0.497670D-03   0.653401D-03   0.557068D-04
   0.575828D-03   0.628090D-03  -0.514392D-03
  -0.129799D-02  -0.765019D-04  -0.215988D-03
   0.126273D-02  -0.364110D-04   0.348957D-04
   0.158871D-04  -0.775294D-03  -0.100666D-03
===================================
 --- Computing gradient for DRT:2, State; 4

starting cigrd.x -m 200000 at Sat Jun  4 21:09:40 EDT 2022

 -------------------- cigrd.x ------------------------
[...]
   5.742943E-01  -5.648911E-01   1.747788E+00
  -1.658320E-01   1.441719E-01  -4.248913E-01
  -3.234382E-01   8.214639E-02  -4.973615E-01
   7.435539E-01   1.205297E-01  -3.610632E-01
  -2.639275E-01  -1.680664E-01  -3.676560E-01
  -4.340950E-01  -6.110747E-01   4.096777E-01
  -8.702712E-01  -5.644384E-01  -2.598413E-01
   6.787301E-01  -4.039882E-01  -4.951313E-02
   5.870680E-02   1.286529E-03   8.198118E-02
  -5.220418E-02  -4.890240E-03   7.205805E-02
   1.571507E-03  -1.485612E-03   2.116306E-02
  -7.784101E-03  -5.652330E-03   3.235605E-02
  -9.352312E-03   1.264961E-02   4.478320E-02
===================================

 Norm of the nonadiabatic coupling vector: 
 |h(drt2.state1,drt2.state2)|= 3.43140693583304 

 Cross-check of the non-adiabatic coupling term:
  DeltaE= -0.0137338982999609

  <L>*dE form CIGRD   :   -0.0000617201     0.0000883776     0.0036186487
  <L>*dE form NADCOUPL:   -0.0024395070     0.0001141333    -0.0011744362
 -------------------------------------------------------------------------
  Difference          :    0.0023777869    -0.0000257556     0.0047930849

 NOTE: This test is meaningless at a point of conical intersection!


 -------- NAD. COUPLING for DRT:2 STATE:1 AND DRT:2 STATE:3 --------
opening file =ciudgls.drt2.sp
opening file =ciudgls.drt2.sp
extracted: energy1= -285.9481012477   energy2=-285.9299291588   deltae=-0.0181720888999735
starting cigrd.x -m 200000 at Sat Jun  4 23:45:55 EDT 2022

 -------------------- cigrd.x ------------------------
 Total energy (ciudg) :    -0.000000000731 
  Effective energy     :     0.000000002223 
  Delta E              :    -0.000000002954 
  --------------------------------------------------- 
 starting tran.x -m 200000  at Sat Jun  4 23:56:02 EDT 2022

 -------------------- tran.x ------------------------
 --------------------------------------------------- 
  adding keyword NONUC to alaska input
starting pymolcas molcas.input.alaska > molcas.output.alaska  at Sun Jun  5 00:03:01 EDT 2022

Generating link ln -s ./molcas.OrdInt ORDINT 
 -------------------- alaska ------------------------
 --------------------------------------------------- 
 cartesian gradient by alaska (MOLCAS)

 Calculating the Dx(r,s) term of D[CSF] nonadiabatic coupling term.
dxcalc: INPUT LINE SEPARATOR 
 
starting tran.x -m 200000  at Sun Jun  5 00:04:12 EDT 2022

 -------------------- tran.x ------------------------
 --------------------------------------------------- 
 starting tdmrunfile.x > tdmrunfilels at Sun Jun  5 00:04:12 EDT 2022

 -------------------- tdmrunfile.x ------------------------
 --------------------------------------------------- 
 starting pymolcas molcas.input.alaska > molcas.output.alaska  at Sun Jun  5 00:04:12 EDT 2022

Generating link ln -s ./molcas.OrdInt ORDINT 
 -------------------- alaska ------------------------
 --------------------------------------------------- 
 
 === Non-adiabatic coupling for DRT 2 STATE 1 and DRT 2 STATE 3 === 
  -4.439076E-01  -5.458173E-02   5.403769E-02
   5.329566E+00   2.551938E-02  -9.730736E-02
  -2.487477E+00   5.052105E-01   3.448880E-02
  -2.495257E+00  -6.282493E-01  -9.419135E-03
   2.396381E+00   1.498696E+00  -3.615110E-02
   2.412142E+00  -1.389585E+00   1.058624E-01
  -4.494849E+00  -9.019003E-03  -4.619591E-02
  -2.891270E-02  -5.499697E-03  -1.353136E-01
  -8.684022E-02   5.982378E-02   1.360394E-01
   1.501815E-02   3.641854E-02   4.165465E-02
   1.764638E-02  -3.925924E-02  -4.540934E-02
  -1.962334E-02   3.268688E-02  -4.556251E-03
  -2.091386E-02  -3.123619E-02   8.077864E-03
  -9.545573E-02   3.898524E-04  -3.318311E-03
===================================

 Norm of the nonadiabatic coupling vector: 
 |h(drt2.state1,drt2.state3)|= 8.81515683592904 

 Cross-check of the non-adiabatic coupling term:
  DeltaE= -0.0181720888999735

  <L>*dE form CIGRD   :   -0.0000816654     0.0001169374     0.0047880365
  <L>*dE form NADCOUPL:    0.0002831929    -0.0008393866    -0.0199592164
 -------------------------------------------------------------------------
  Difference          :   -0.0003648583     0.0009563240     0.0247472529

 NOTE: This test is meaningless at a point of conical intersection!


 -------- NAD. COUPLING for DRT:2 STATE:1 AND DRT:2 STATE:4 --------
opening file =ciudgls.drt2.sp
opening file =ciudgls.drt2.sp
extracted: energy1= -285.9481012477   energy2=-285.9147623392   deltae=-0.0333389084999567
starting cigrd.x -m 200000 at Sun Jun  5 00:05:26 EDT 2022

 -------------------- cigrd.x ------------------------
 Total energy (ciudg) :    -0.000000000455 
  Effective energy     :    -0.000000008659 
  Delta E              :     0.000000008204 
  --------------------------------------------------- 
 starting tran.x -m 200000  at Sun Jun  5 00:15:52 EDT 2022

 -------------------- tran.x ------------------------
 --------------------------------------------------- 
  adding keyword NONUC to alaska input
starting pymolcas molcas.input.alaska > molcas.output.alaska  at Sun Jun  5 00:22:49 EDT 2022

Generating link ln -s ./molcas.OrdInt ORDINT 
 -------------------- alaska ------------------------
 --------------------------------------------------- 
 cartesian gradient by alaska (MOLCAS)

 Calculating the Dx(r,s) term of D[CSF] nonadiabatic coupling term.
dxcalc: INPUT LINE SEPARATOR 
 
starting tran.x -m 200000  at Sun Jun  5 00:24:00 EDT 2022

 -------------------- tran.x ------------------------
 --------------------------------------------------- 
 starting tdmrunfile.x > tdmrunfilels at Sun Jun  5 00:24:00 EDT 2022

 -------------------- tdmrunfile.x ------------------------
 --------------------------------------------------- 
 starting pymolcas molcas.input.alaska > molcas.output.alaska  at Sun Jun  5 00:24:01 EDT 2022

Generating link ln -s ./molcas.OrdInt ORDINT 
 -------------------- alaska ------------------------
 --------------------------------------------------- 
 
 === Non-adiabatic coupling for DRT 2 STATE 1 and DRT 2 STATE 4 === 
   8.878143E-03   8.244852E-02  -1.168585E-02
  -1.119455E-02  -6.334748E-01  -5.605983E-03
  -6.058133E-01   1.927702E+00  -4.281143E-02
   6.121127E-01   1.929628E+00  -4.660879E-02
  -6.467508E-01  -1.975804E+00   6.683724E-02
   6.425413E-01  -1.954275E+00   6.778133E-02
   1.161922E-02   7.178980E-01  -3.295463E-02
  -4.158659E-02  -3.864760E-02  -9.070550E-03
   3.008566E-02  -2.829699E-02   6.139910E-03
  -2.773981E-02   1.902346E-02   4.552338E-03
   2.820435E-02   1.905088E-02   4.977432E-03
  -2.199598E-02  -2.315580E-02  -2.217460E-03
   2.166831E-02  -2.343063E-02  -1.212904E-03
   7.522112E-05  -1.190510E-02   6.025016E-03
===================================

 Norm of the nonadiabatic coupling vector: 
 |h(drt2.state1,drt2.state4)|= 4.20512337521329 

 Cross-check of the non-adiabatic coupling term:
  DeltaE= -0.0333389084999567

  <L>*dE form CIGRD   :   -0.0001498251     0.0002145359     0.0087842356
  <L>*dE form NADCOUPL:    0.0006767603    -0.0000409983    -0.0000236958
 -------------------------------------------------------------------------
  Difference          :   -0.0008265854     0.0002555342     0.0088079314

 NOTE: This test is meaningless at a point of conical intersection!


 -------- NAD. COUPLING for DRT:2 STATE:2 AND DRT:2 STATE:3 --------
opening file =ciudgls.drt2.sp
opening file =ciudgls.drt2.sp
extracted: energy1= -285.9343673494   energy2=-285.9299291588   deltae=-0.0044381906000126
starting cigrd.x -m 200000 at Sun Jun  5 00:25:10 EDT 2022

 -------------------- cigrd.x ------------------------
 Total energy (ciudg) :     0.000000000563 
  Effective energy     :    -0.000000000757 
  Delta E              :     0.000000001320 
  --------------------------------------------------- 
 starting tran.x -m 200000  at Sun Jun  5 00:35:33 EDT 2022

 -------------------- tran.x ------------------------
 --------------------------------------------------- 
  adding keyword NONUC to alaska input
starting pymolcas molcas.input.alaska > molcas.output.alaska  at Sun Jun  5 00:42:27 EDT 2022

Generating link ln -s ./molcas.OrdInt ORDINT 
 -------------------- alaska ------------------------
 --------------------------------------------------- 
 cartesian gradient by alaska (MOLCAS)

 Calculating the Dx(r,s) term of D[CSF] nonadiabatic coupling term.
dxcalc: INPUT LINE SEPARATOR 
 
starting tran.x -m 200000  at Sun Jun  5 00:43:38 EDT 2022

 -------------------- tran.x ------------------------
 --------------------------------------------------- 
 starting tdmrunfile.x > tdmrunfilels at Sun Jun  5 00:43:38 EDT 2022

 -------------------- tdmrunfile.x ------------------------
 --------------------------------------------------- 
 starting pymolcas molcas.input.alaska > molcas.output.alaska  at Sun Jun  5 00:43:38 EDT 2022

Generating link ln -s ./molcas.OrdInt ORDINT 
 -------------------- alaska ------------------------
 --------------------------------------------------- 
 
 === Non-adiabatic coupling for DRT 2 STATE 2 and DRT 2 STATE 3 === 
   1.373865E+00  -5.071897E-01   4.516964E-01
  -5.603999E+00   3.499652E-01  -9.529933E-02
   2.448383E+00  -2.158586E+00  -1.328979E+00
   2.533808E+00   2.869705E-01   1.178474E+00
  -2.463974E+00  -2.053147E-01   8.740719E-01
  -2.100669E+00   1.996537E+00  -9.315102E-01
   4.337530E+00  -1.585012E-01   7.130958E-03
  -1.800219E-01   1.287783E-01  -4.496407E-01
  -5.383606E-01   2.577245E-01   2.215518E-01
   5.003064E-03  -4.644338E-02   4.994295E-01
   5.077847E-02  -3.093691E-04  -4.976344E-01
   3.217151E-02  -9.751851E-03  -1.239873E-01
   1.190228E-02   4.806120E-02   1.925399E-01
   9.768858E-02   1.917096E-02   1.893464E-03
===================================

 Norm of the nonadiabatic coupling vector: 
 |h(drt2.state2,drt2.state3)|= 9.5081202670385 

 Cross-check of the non-adiabatic coupling term:
  DeltaE= -0.0044381906000126

  <L>*dE form CIGRD   :   -0.0000199452     0.0000285598     0.0011693878
  <L>*dE form NADCOUPL:   -0.0000109671    -0.0004114940     0.0011738591
 -------------------------------------------------------------------------
  Difference          :   -0.0000089781     0.0004400537    -0.0000044713

 NOTE: This test is meaningless at a point of conical intersection!


 -------- NAD. COUPLING for DRT:2 STATE:2 AND DRT:2 STATE:4 --------
opening file =ciudgls.drt2.sp
opening file =ciudgls.drt2.sp
extracted: energy1= -285.9343673494   energy2=-285.9147623392   deltae=-0.0196050101999958
starting cigrd.x -m 200000 at Sun Jun  5 00:44:47 EDT 2022

 -------------------- cigrd.x ------------------------
 Total energy (ciudg) :     0.000000000374 
  Effective energy     :     0.000000006771 
  Delta E              :    -0.000000006397 
  --------------------------------------------------- 
 starting tran.x -m 200000  at Sun Jun  5 00:54:47 EDT 2022

 -------------------- tran.x ------------------------
 --------------------------------------------------- 
  adding keyword NONUC to alaska input
starting pymolcas molcas.input.alaska > molcas.output.alaska  at Sun Jun  5 01:01:39 EDT 2022

Generating link ln -s ./molcas.OrdInt ORDINT 
 -------------------- alaska ------------------------
 --------------------------------------------------- 
 cartesian gradient by alaska (MOLCAS)

 Calculating the Dx(r,s) term of D[CSF] nonadiabatic coupling term.
dxcalc: INPUT LINE SEPARATOR 
 
starting tran.x -m 200000  at Sun Jun  5 01:02:49 EDT 2022

 -------------------- tran.x ------------------------
 --------------------------------------------------- 
 starting tdmrunfile.x > tdmrunfilels at Sun Jun  5 01:02:49 EDT 2022

 -------------------- tdmrunfile.x ------------------------
 --------------------------------------------------- 
 starting pymolcas molcas.input.alaska > molcas.output.alaska  at Sun Jun  5 01:02:49 EDT 2022

Generating link ln -s ./molcas.OrdInt ORDINT 
 -------------------- alaska ------------------------
 --------------------------------------------------- 
 
 === Non-adiabatic coupling for DRT 2 STATE 2 and DRT 2 STATE 4 === 
   3.957139E-02  -1.207670E-02   1.401963E-01
  -1.473223E-01   3.243239E-01   4.159655E-01
   3.319833E-01  -1.084716E+00  -9.519408E-02
  -2.527474E-01  -1.051279E+00  -1.288673E-01
   2.748196E-01   9.981778E-01  -1.871464E-01
  -3.228223E-01   1.147253E+00  -1.942759E-01
   1.038244E-01  -2.650913E-01   1.691544E-01
  -8.388260E-02  -4.514910E-02  -1.279760E-01
   5.501494E-02  -1.987072E-02  -9.846508E-02
   8.989446E-03  -1.047463E-02   3.780987E-02
  -4.719603E-03  -1.182584E-02   3.977654E-02
   6.527497E-03   1.716548E-02   9.652326E-03
  -9.544726E-03   1.416281E-02   1.444392E-02
   5.250098E-04   6.329029E-03   1.877627E-02
===================================

 Norm of the nonadiabatic coupling vector: 
 |h(drt2.state2,drt2.state4)|= 2.34964317286586 

 Cross-check of the non-adiabatic coupling term:
  DeltaE= -0.0196050101999958

  <L>*dE form CIGRD   :   -0.0000881049     0.0001261582     0.0051655869
  <L>*dE form NADCOUPL:    0.0010814995    -0.0000707821     0.0002986799
 -------------------------------------------------------------------------
  Difference          :   -0.0011696044     0.0001969404     0.0048669070

 NOTE: This test is meaningless at a point of conical intersection!


 -------- NAD. COUPLING for DRT:2 STATE:3 AND DRT:2 STATE:4 --------
opening file =ciudgls.drt2.sp
opening file =ciudgls.drt2.sp
extracted: energy1= -285.9299291588   energy2=-285.9147623392   deltae=-0.0151668195999832
starting cigrd.x -m 200000 at Sun Jun  5 01:03:56 EDT 2022

 -------------------- cigrd.x ------------------------
 Total energy (ciudg) :    -0.000000002576 
  Effective energy     :    -0.000000002248 
  Delta E              :    -0.000000000328 
  --------------------------------------------------- 
 starting tran.x -m 200000  at Sun Jun  5 01:14:26 EDT 2022

 -------------------- tran.x ------------------------
 --------------------------------------------------- 
  adding keyword NONUC to alaska input
starting pymolcas molcas.input.alaska > molcas.output.alaska  at Sun Jun  5 01:21:18 EDT 2022

Generating link ln -s ./molcas.OrdInt ORDINT 
 -------------------- alaska ------------------------
 --------------------------------------------------- 
 cartesian gradient by alaska (MOLCAS)

 Calculating the Dx(r,s) term of D[CSF] nonadiabatic coupling term.
dxcalc: INPUT LINE SEPARATOR 
 
starting tran.x -m 200000  at Sun Jun  5 01:22:28 EDT 2022

 -------------------- tran.x ------------------------
 --------------------------------------------------- 
 starting tdmrunfile.x > tdmrunfilels at Sun Jun  5 01:22:28 EDT 2022

 -------------------- tdmrunfile.x ------------------------
 --------------------------------------------------- 
 starting pymolcas molcas.input.alaska > molcas.output.alaska  at Sun Jun  5 01:22:28 EDT 2022

Generating link ln -s ./molcas.OrdInt ORDINT 
 -------------------- alaska ------------------------
 --------------------------------------------------- 
 
 === Non-adiabatic coupling for DRT 2 STATE 3 and DRT 2 STATE 4 === 
   2.928787E-01   6.912771E-03  -1.853357E-02
  -2.544446E+00  -1.960682E-02  -4.315468E-02
   6.926590E-01  -3.074537E-01   5.532739E-02
   7.140043E-01   4.130346E-01  -2.781927E-02
  -4.106082E-01  -1.123497E+00   3.296193E-02
  -3.888096E-01   1.020211E+00   3.059872E-04
   1.626326E+00   2.037094E-03  -1.522587E-02
   9.419449E-03   3.555126E-02   3.510082E-02
  -5.247382E-03  -2.700897E-02  -9.662082E-03
   2.447015E-02   1.346798E-02  -1.956647E-02
   2.413330E-02  -1.238896E-02   1.059634E-02
  -2.191796E-02   2.485060E-02  -1.377956E-03
  -2.181641E-02  -2.638324E-02   1.864789E-03
   5.442224E-03  -8.950231E-05  -2.003248E-03
===================================

 Norm of the nonadiabatic coupling vector: 
 |h(drt2.state3,drt2.state4)|= 3.61911893610023 

 Cross-check of the non-adiabatic coupling term:
  DeltaE= -0.0151668195999832

  <L>*dE form CIGRD   :   -0.0000681597     0.0000975985     0.0039961991
  <L>*dE form NADCOUPL:   -0.0000691895     0.0000980149     0.0039971705
 -------------------------------------------------------------------------
  Difference          :    0.0000010298    -0.0000004164    -0.0000009713

 NOTE: This test is meaningless at a point of conical intersection!



============== timings ===================

   unik.gets.x    
   mcdrt.x        
   mcuft.x        
 * mcscf.x          walltime    0:03:07
   mcpc.x         
   mcpc.x         
   mcpc.x         
   mcpc.x         
   exptvl.x       
   exptvl.x       
   exptvl.x       
   exptvl.x       
   cidrt.x        
 * cidrt.x          walltime    0:00:07
 * tran.x           walltime    0:07:59
 * pciudg.x -m 19000   walltime   18:23:55
 * cipc.x           walltime    0:00:12
 * pciudg.x -m 19000   walltime   41:51:36
 * cipc.x           walltime    0:00:22
 * reindex.x        walltime    0:04:05
 * pciudg.x -m 19000   walltime    1:57:38
 * transci.x        walltime    0:02:21
 * transci.x        walltime    0:02:18
 * transci.x        walltime    0:02:20
 * transci.x        walltime    0:02:17
 * transci.x        walltime    0:02:16
 * transci.x        walltime    0:02:16
 * transci.x        walltime    0:04:16
 * transci.x        walltime    0:04:12
 * transci.x        walltime    0:04:17
 * transci.x        walltime    0:04:10
 * transci.x        walltime    0:04:10
 * transci.x        walltime    0:04:10
   exptvl.x       
   exptvl.x       
   exptvl.x       
   exptvl.x       
   exptvl.x       
   exptvl.x       
   exptvl.x       
   exptvl.x       
   mo_convert.x   
   mo_convert.x   
   mo_convert.x   
   mo_convert.x   
   mo_convert.x   
   mo_convert.x   
   mo_convert.x   
   mo_convert.x   
   mo_convert.x   
   mo_convert.x   
   mo_convert.x   
   mo_convert.x   
   mo_convert.x   
   mo_convert.x   
 * cidrt.x          walltime    0:00:06
 * tran.x           walltime    0:08:30
 * cigrd.x          walltime    0:10:30
 * tran.x           walltime    0:07:27
 * cigrd.x          walltime    0:10:49
 * tran.x           walltime    0:07:22
 * cigrd.x          walltime    0:12:35
 * tran.x           walltime    0:07:31
 * cigrd.x          walltime    0:11:09
 * tran.x           walltime    0:07:18
 * cigrd.x          walltime    0:11:36
 * tran.x           walltime    0:07:26
 * cigrd.x          walltime    0:09:51
 * tran.x           walltime    0:07:20
 * cigrd.x          walltime    0:10:29
 * tran.x           walltime    0:07:27
 * cigrd.x          walltime    0:10:02
 * tran.x           walltime    0:07:13
 * cigrd.x          walltime    0:10:36
 * tran.x           walltime    0:06:57
   tran.x         
   tdmrunfile.x   
 * cigrd.x          walltime    0:10:04
 * tran.x           walltime    0:07:00
   tran.x         
   tdmrunfile.x   
 * cigrd.x          walltime    0:10:18
 * tran.x           walltime    0:06:37
   tran.x         
   tdmrunfile.x   
 * cigrd.x          walltime    0:10:20
 * tran.x           walltime    0:06:45
   tran.x         
   tdmrunfile.x   
 * cigrd.x          walltime    0:09:52
 * tran.x           walltime    0:06:49
   tran.x         
   tdmrunfile.x   
 * cigrd.x          walltime    0:10:12
 * tran.x           walltime    0:06:53
   tran.x         
   tdmrunfile.x   
 * cigrd.x          walltime    0:11:21
 * tran.x           walltime    0:07:04
   tran.x         
   tdmrunfile.x   
 * cigrd.x          walltime    0:10:05
 * tran.x           walltime    0:06:58
   tran.x         
   tdmrunfile.x   
 * cigrd.x          walltime    0:10:24
 * tran.x           walltime    0:06:56
   tran.x         
   tdmrunfile.x   
 * cigrd.x          walltime    0:10:22
 * tran.x           walltime    0:06:53
   tran.x         
   tdmrunfile.x   
 * cigrd.x          walltime    0:09:59
 * tran.x           walltime    0:06:51
   tran.x         
   tdmrunfile.x   
 * cigrd.x          walltime    0:10:28
 * tran.x           walltime    0:06:51
   tran.x         
   tdmrunfile.x   

==========================================

