[Molden Format]
[Atoms] AU
  N     1    7    -4.5075874400   -0.0631177000   -0.4023032300        
  C     2    6    -1.7511542200   -0.0662327400   -0.1754505900        
  C     3    6    -0.3519674000    0.2167263000   -2.3770519200        
  C     4    6    -0.4799261500   -0.2882505100    2.1224334700        
  C     5    6     2.2652879000    0.2639792400   -2.2879544800        
  C     6    6     2.1314495700   -0.2310422300    2.2027163300        
  C     7    6     3.5102819000    0.0435689700   -0.0039950600        
  H     8    1    -5.0796959400   -1.8072366600    0.3165187000        
  H     9    1    -5.1087672200    1.0769386400    1.0529590100        
  H    10    1    -1.3306061300    0.4045222600   -4.1393726600        
  H    11    1    -1.5403805100   -0.5088631200    3.8376710000        
  H    12    1     3.3270858500    0.4829612700   -4.0022539800        
  H    13    1     3.0891042300   -0.4047856600    3.9833230600        
  H    14    1     5.5377453200    0.0858714000    0.0616705500        
[5D]
[7F]
[GTO]
  1  0
   s    12 1.00
  0.114200D+05  0.172695D-04
  0.171200D+04  0.134411D-03
  0.389300D+03  0.694561D-03
  0.110000D+03  0.278531D-02
  0.355700D+02  0.863457D-02
  0.125400D+02  0.199805D-01
  0.464400D+01  0.262908D-01
  0.129300D+01 -0.243845D-01
  0.511800D+00 -0.924934D-01
  0.178700D+00 -0.339683D+00
  0.246240D-01  0.345111D+00
  0.112530D-01  0.752750D+00
   s    10 1.00
  0.114200D+05  0.523000D-03
  0.171200D+04  0.404500D-02
  0.389300D+03  0.207750D-01
  0.110000D+03  0.807269D-01
  0.355700D+02  0.233074D+00
  0.125400D+02  0.433501D+00
  0.464400D+01  0.347472D+00
  0.129300D+01  0.412620D-01
  0.511800D+00 -0.850799D-02
  0.178700D+00  0.238400D-02
   s    10 1.00
  0.114200D+05 -0.115000D-03
  0.171200D+04 -0.895000D-03
  0.389300D+03 -0.462400D-02
  0.110000D+03 -0.185280D-01
  0.355700D+02 -0.573390D-01
  0.125400D+02 -0.132076D+00
  0.464400D+01 -0.172510D+00
  0.129300D+01  0.151814D+00
  0.511800D+00  0.599944D+00
  0.178700D+00  0.387462D+00
   s     1 1.00
  0.129300D+01  0.100000D+01
   s     1 1.00
  0.178700D+00  0.100000D+01
   p     5 1.00
  0.266300D+02  0.146700D-01
  0.594800D+01  0.917640D-01
  0.174200D+01  0.298683D+00
  0.555000D+00  0.498487D+00
  0.172500D+00  0.337023D+00
   p     1 1.00
  0.174200D+01  0.100000D+01
   p     1 1.00
  0.555000D+00  0.100000D+01
   d     1 1.00
  0.165400D+01  0.100000D+01
   d     1 1.00
  0.469000D+00  0.100000D+01
   f     1 1.00
  0.109300D+01  0.100000D+01
  
  2  0
   s    10 1.00
  0.823600D+04  0.531000D-03
  0.123500D+04  0.410800D-02
  0.280800D+03  0.210870D-01
  0.792700D+02  0.818530D-01
  0.255900D+02  0.234817D+00
  0.899700D+01  0.434401D+00
  0.331900D+01  0.346129D+00
  0.905900D+00  0.393780D-01
  0.364300D+00 -0.898300D-02
  0.128500D+00  0.238500D-02
   s    10 1.00
  0.823600D+04 -0.113000D-03
  0.123500D+04 -0.878000D-03
  0.280800D+03 -0.454000D-02
  0.792700D+02 -0.181330D-01
  0.255900D+02 -0.557600D-01
  0.899700D+01 -0.126895D+00
  0.331900D+01 -0.170352D+00
  0.905900D+00  0.140382D+00
  0.364300D+00  0.598684D+00
  0.128500D+00  0.395389D+00
   s     1 1.00
  0.905900D+00  0.100000D+01
   s     1 1.00
  0.364300D+00  0.100000D+01
   p     5 1.00
  0.187100D+02  0.140310D-01
  0.413300D+01  0.868660D-01
  0.120000D+01  0.290216D+00
  0.382700D+00  0.501008D+00
  0.120900D+00  0.343406D+00
   p     1 1.00
  0.382700D+00  0.100000D+01
   p     1 1.00
  0.120900D+00  0.100000D+01
   d     1 1.00
  0.109700D+01  0.100000D+01
   d     1 1.00
  0.318000D+00  0.100000D+01
   f     1 1.00
  0.761000D+00  0.100000D+01
  
  3  0
   s    10 1.00
  0.823600D+04  0.531000D-03
  0.123500D+04  0.410800D-02
  0.280800D+03  0.210870D-01
  0.792700D+02  0.818530D-01
  0.255900D+02  0.234817D+00
  0.899700D+01  0.434401D+00
  0.331900D+01  0.346129D+00
  0.905900D+00  0.393780D-01
  0.364300D+00 -0.898300D-02
  0.128500D+00  0.238500D-02
   s    10 1.00
  0.823600D+04 -0.113000D-03
  0.123500D+04 -0.878000D-03
  0.280800D+03 -0.454000D-02
  0.792700D+02 -0.181330D-01
  0.255900D+02 -0.557600D-01
  0.899700D+01 -0.126895D+00
  0.331900D+01 -0.170352D+00
  0.905900D+00  0.140382D+00
  0.364300D+00  0.598684D+00
  0.128500D+00  0.395389D+00
   s     1 1.00
  0.905900D+00  0.100000D+01
   s     1 1.00
  0.364300D+00  0.100000D+01
   p     5 1.00
  0.187100D+02  0.140310D-01
  0.413300D+01  0.868660D-01
  0.120000D+01  0.290216D+00
  0.382700D+00  0.501008D+00
  0.120900D+00  0.343406D+00
   p     1 1.00
  0.382700D+00  0.100000D+01
   p     1 1.00
  0.120900D+00  0.100000D+01
   d     1 1.00
  0.109700D+01  0.100000D+01
   d     1 1.00
  0.318000D+00  0.100000D+01
   f     1 1.00
  0.761000D+00  0.100000D+01
  
  4  0
   s    10 1.00
  0.823600D+04  0.531000D-03
  0.123500D+04  0.410800D-02
  0.280800D+03  0.210870D-01
  0.792700D+02  0.818530D-01
  0.255900D+02  0.234817D+00
  0.899700D+01  0.434401D+00
  0.331900D+01  0.346129D+00
  0.905900D+00  0.393780D-01
  0.364300D+00 -0.898300D-02
  0.128500D+00  0.238500D-02
   s    10 1.00
  0.823600D+04 -0.113000D-03
  0.123500D+04 -0.878000D-03
  0.280800D+03 -0.454000D-02
  0.792700D+02 -0.181330D-01
  0.255900D+02 -0.557600D-01
  0.899700D+01 -0.126895D+00
  0.331900D+01 -0.170352D+00
  0.905900D+00  0.140382D+00
  0.364300D+00  0.598684D+00
  0.128500D+00  0.395389D+00
   s     1 1.00
  0.905900D+00  0.100000D+01
   s     1 1.00
  0.364300D+00  0.100000D+01
   p     5 1.00
  0.187100D+02  0.140310D-01
  0.413300D+01  0.868660D-01
  0.120000D+01  0.290216D+00
  0.382700D+00  0.501008D+00
  0.120900D+00  0.343406D+00
   p     1 1.00
  0.382700D+00  0.100000D+01
   p     1 1.00
  0.120900D+00  0.100000D+01
   d     1 1.00
  0.109700D+01  0.100000D+01
   d     1 1.00
  0.318000D+00  0.100000D+01
   f     1 1.00
  0.761000D+00  0.100000D+01
  
  5  0
   s    10 1.00
  0.823600D+04  0.531000D-03
  0.123500D+04  0.410800D-02
  0.280800D+03  0.210870D-01
  0.792700D+02  0.818530D-01
  0.255900D+02  0.234817D+00
  0.899700D+01  0.434401D+00
  0.331900D+01  0.346129D+00
  0.905900D+00  0.393780D-01
  0.364300D+00 -0.898300D-02
  0.128500D+00  0.238500D-02
   s    10 1.00
  0.823600D+04 -0.113000D-03
  0.123500D+04 -0.878000D-03
  0.280800D+03 -0.454000D-02
  0.792700D+02 -0.181330D-01
  0.255900D+02 -0.557600D-01
  0.899700D+01 -0.126895D+00
  0.331900D+01 -0.170352D+00
  0.905900D+00  0.140382D+00
  0.364300D+00  0.598684D+00
  0.128500D+00  0.395389D+00
   s     1 1.00
  0.905900D+00  0.100000D+01
   s     1 1.00
  0.364300D+00  0.100000D+01
   p     5 1.00
  0.187100D+02  0.140310D-01
  0.413300D+01  0.868660D-01
  0.120000D+01  0.290216D+00
  0.382700D+00  0.501008D+00
  0.120900D+00  0.343406D+00
   p     1 1.00
  0.382700D+00  0.100000D+01
   p     1 1.00
  0.120900D+00  0.100000D+01
   d     1 1.00
  0.109700D+01  0.100000D+01
   d     1 1.00
  0.318000D+00  0.100000D+01
   f     1 1.00
  0.761000D+00  0.100000D+01
  
  6  0
   s    10 1.00
  0.823600D+04  0.531000D-03
  0.123500D+04  0.410800D-02
  0.280800D+03  0.210870D-01
  0.792700D+02  0.818530D-01
  0.255900D+02  0.234817D+00
  0.899700D+01  0.434401D+00
  0.331900D+01  0.346129D+00
  0.905900D+00  0.393780D-01
  0.364300D+00 -0.898300D-02
  0.128500D+00  0.238500D-02
   s    10 1.00
  0.823600D+04 -0.113000D-03
  0.123500D+04 -0.878000D-03
  0.280800D+03 -0.454000D-02
  0.792700D+02 -0.181330D-01
  0.255900D+02 -0.557600D-01
  0.899700D+01 -0.126895D+00
  0.331900D+01 -0.170352D+00
  0.905900D+00  0.140382D+00
  0.364300D+00  0.598684D+00
  0.128500D+00  0.395389D+00
   s     1 1.00
  0.905900D+00  0.100000D+01
   s     1 1.00
  0.364300D+00  0.100000D+01
   p     5 1.00
  0.187100D+02  0.140310D-01
  0.413300D+01  0.868660D-01
  0.120000D+01  0.290216D+00
  0.382700D+00  0.501008D+00
  0.120900D+00  0.343406D+00
   p     1 1.00
  0.382700D+00  0.100000D+01
   p     1 1.00
  0.120900D+00  0.100000D+01
   d     1 1.00
  0.109700D+01  0.100000D+01
   d     1 1.00
  0.318000D+00  0.100000D+01
   f     1 1.00
  0.761000D+00  0.100000D+01
  
  7  0
   s    10 1.00
  0.823600D+04  0.531000D-03
  0.123500D+04  0.410800D-02
  0.280800D+03  0.210870D-01
  0.792700D+02  0.818530D-01
  0.255900D+02  0.234817D+00
  0.899700D+01  0.434401D+00
  0.331900D+01  0.346129D+00
  0.905900D+00  0.393780D-01
  0.364300D+00 -0.898300D-02
  0.128500D+00  0.238500D-02
   s    10 1.00
  0.823600D+04 -0.113000D-03
  0.123500D+04 -0.878000D-03
  0.280800D+03 -0.454000D-02
  0.792700D+02 -0.181330D-01
  0.255900D+02 -0.557600D-01
  0.899700D+01 -0.126895D+00
  0.331900D+01 -0.170352D+00
  0.905900D+00  0.140382D+00
  0.364300D+00  0.598684D+00
  0.128500D+00  0.395389D+00
   s     1 1.00
  0.905900D+00  0.100000D+01
   s     1 1.00
  0.364300D+00  0.100000D+01
   p     5 1.00
  0.187100D+02  0.140310D-01
  0.413300D+01  0.868660D-01
  0.120000D+01  0.290216D+00
  0.382700D+00  0.501008D+00
  0.120900D+00  0.343406D+00
   p     1 1.00
  0.382700D+00  0.100000D+01
   p     1 1.00
  0.120900D+00  0.100000D+01
   d     1 1.00
  0.109700D+01  0.100000D+01
   d     1 1.00
  0.318000D+00  0.100000D+01
   f     1 1.00
  0.761000D+00  0.100000D+01
  
  8  0
   s     4 1.00
  0.130100D+02  0.196850D-01
  0.196200D+01  0.137977D+00
  0.444600D+00  0.478148D+00
  0.122000D+00  0.501240D+00
   s     1 1.00
  0.122000D+00  0.100000D+01
   p     1 1.00
  0.727000D+00  0.100000D+01
  
  9  0
   s     4 1.00
  0.130100D+02  0.196850D-01
  0.196200D+01  0.137977D+00
  0.444600D+00  0.478148D+00
  0.122000D+00  0.501240D+00
   s     1 1.00
  0.122000D+00  0.100000D+01
   p     1 1.00
  0.727000D+00  0.100000D+01
  
 10  0
   s     4 1.00
  0.130100D+02  0.196850D-01
  0.196200D+01  0.137977D+00
  0.444600D+00  0.478148D+00
  0.122000D+00  0.501240D+00
   s     1 1.00
  0.122000D+00  0.100000D+01
   p     1 1.00
  0.727000D+00  0.100000D+01
  
 11  0
   s     4 1.00
  0.130100D+02  0.196850D-01
  0.196200D+01  0.137977D+00
  0.444600D+00  0.478148D+00
  0.122000D+00  0.501240D+00
   s     1 1.00
  0.122000D+00  0.100000D+01
   p     1 1.00
  0.727000D+00  0.100000D+01
  
 12  0
   s     4 1.00
  0.130100D+02  0.196850D-01
  0.196200D+01  0.137977D+00
  0.444600D+00  0.478148D+00
  0.122000D+00  0.501240D+00
   s     1 1.00
  0.122000D+00  0.100000D+01
   p     1 1.00
  0.727000D+00  0.100000D+01
  
 13  0
   s     4 1.00
  0.130100D+02  0.196850D-01
  0.196200D+01  0.137977D+00
  0.444600D+00  0.478148D+00
  0.122000D+00  0.501240D+00
   s     1 1.00
  0.122000D+00  0.100000D+01
   p     1 1.00
  0.727000D+00  0.100000D+01
  
 14  0
   s     4 1.00
  0.130100D+02  0.196850D-01
  0.196200D+01  0.137977D+00
  0.444600D+00  0.478148D+00
  0.122000D+00  0.501240D+00
   s     1 1.00
  0.122000D+00  0.100000D+01
   p     1 1.00
  0.727000D+00  0.100000D+01
  
[MO]
 Sym= __1_A__
 Ene=  0.000000000000000E+000
 Spin= Alpha
 Occup=    2.00000000000000     
                     1 -3.842156422799254E-004
                     2  0.997963339040957     
                     3 -2.595158364439455E-002
                     4  2.073256510194533E-003
                     5  5.827404791917665E-003
                     6  1.155692094419003E-002
                     7 -3.962998465793265E-003
                     8  2.100246996726994E-002
                     9 -1.269648569006008E-003
                    10  3.418624305353691E-004
                    11 -1.663584515532005E-003
                    12 -3.315261598468990E-003
                    13  1.144448645189522E-003
                    14 -5.211771032601406E-003
                    15  1.447231870808896E-004
                    16  2.941114968012513E-005
                    17 -3.800574816092601E-005
                    18  4.593136164635724E-005
                    19 -3.181594486415622E-005
                    20  5.074573644747525E-004
                    21  6.774817012885244E-004
                    22 -2.191743148084948E-004
                    23  1.343748203813542E-004
                    24 -1.839273666034488E-004
                    25  3.118831447224346E-005
                    26 -6.899570234609150E-005
                    27  1.780503528044043E-005
                    28  2.146335767568154E-005
                    29  1.986430394616537E-005
                    30  1.127969775793060E-005
                    31 -1.633222558059846E-005
                    32 -3.870382662444084E-004
                    33  2.380007314015677E-004
                    34  2.388531841323484E-004
                    35  1.221496098703642E-004
                    36  2.667678532557861E-005
                    37 -1.184130818180507E-003
                    38 -8.911573852756024E-004
                    39 -4.482608508519769E-004
                    40 -5.759822273353644E-005
                    41  4.534192353669190E-004
                    42  3.495102490912810E-003
                    43  1.936014203993690E-004
                    44 -1.598224146913646E-003
                    45 -1.088897711670963E-005
                    46 -2.493429719357816E-004
                    47  3.307611549629527E-006
                    48  2.791677677049918E-006
                    49  3.901411053800093E-005
                    50  1.026784221511123E-004
                    51  5.939577199168456E-005
                    52 -5.757465170811397E-006
                    53 -2.034590103908198E-005
                    54 -3.414612072604358E-005
                    55  9.953568995925016E-005
                    56 -7.693353603021486E-006
                    57 -1.342547380659693E-006
                    58  1.026940196688316E-004
                    59 -6.883788760125100E-006
                    60 -3.770948838276925E-005
                    61 -2.276037082326829E-005
                    62 -7.797405407498187E-004
                    63 -5.484866333944632E-004
                    64 -1.161857269959040E-004
                    65  2.798559042659759E-003
                    66 -2.488501552039798E-003
                    67 -6.677191779484057E-004
                    68  4.754416419428160E-004
                    69  6.548279594761286E-004
                    70 -4.453524946958183E-005
                    71  5.222994307255998E-004
                    72  1.067414066999991E-003
                    73  3.722695538016535E-004
                    74 -2.066283255346993E-003
                    75  6.751627780810440E-005
                    76 -5.994191976619786E-005
                    77 -3.901711444829398E-005
                    78  2.814005380391446E-005
                    79  2.054049792457849E-005
                    80  1.662113835566029E-004
                    81 -1.489030805318678E-004
                    82 -5.273701545223708E-005
                    83 -3.498305890130134E-005
                    84  3.587381035332384E-005
                    85 -2.319880921722358E-005
                    86 -1.472637928720588E-004
                    87 -1.399082699117686E-005
                    88 -4.968406025950946E-006
                    89  2.397645196582821E-005
                    90 -7.357986790207397E-005
                    91 -1.439784376461263E-006
                    92  4.034715256388827E-005
                    93 -8.384945582592427E-004
                    94  2.879200126049686E-004
                    95 -1.086130453369943E-003
                    96  2.229989565876921E-004
                    97 -5.228739072438575E-004
                    98  8.015248145523687E-004
                    99  2.029640580866305E-005
                   100 -2.242552243293569E-005
                   101  2.243380006570692E-004
                   102 -1.489644569360759E-003
                   103  1.025350731049539E-004
                   104 -2.964477086251902E-004
                   105 -5.702008494926420E-005
                   106 -3.192123099510335E-006
                   107  2.392943513886440E-005
                   108  4.851354451858584E-005
                   109  1.370807450361761E-005
                   110  2.680561361307282E-005
                   111  1.712757328647738E-004
                   112  3.623069448750589E-005
                   113 -1.691689273751531E-004
                   114 -2.151806828366112E-005
                   115 -3.440712628896716E-005
                   116  2.129968679834399E-005
                   117 -7.628100181608025E-006
                   118 -1.397815171462987E-005
                   119 -8.566957403900839E-006
                   120  8.974676379997149E-006
                   121 -4.564960833449862E-006
                   122 -2.905069775554477E-004
                   123 -1.613678595244675E-003
                   124  1.380276950845015E-004
                   125  6.456513603696368E-004
                   126  1.140390390816914E-003
                   127  2.765080490215120E-005
                   128 -1.323213520849356E-004
                   129  4.549560798564019E-004
                   130 -2.210310905976076E-005
                   131  2.972285597539897E-004
                   132  1.135663335898265E-003
                   133 -3.831372344141527E-005
                   134  7.416036705051049E-004
                   135  5.880482261817462E-005
                   136 -1.674887181941951E-005
                   137 -3.717316935627013E-006
                   138 -4.969315120767848E-005
                   139  1.021343618412136E-005
                   140  2.138145920532728E-004
                   141  1.605933548510519E-004
                   142  2.458857143163647E-006
                   143 -3.076743941197710E-004
                   144 -9.620725262742171E-006
                   145 -1.511740338951645E-005
                   146 -3.257629686558104E-005
                   147 -4.750740467640750E-006
                   148  9.389864922498715E-006
                   149 -1.508647703637147E-006
                   150 -8.155418831692623E-005
                   151  1.685302237816753E-006
                   152 -1.214916091746669E-004
                   153 -1.500351880599793E-004
                   154 -7.696135744938300E-005
                   155  7.479125407176310E-004
                   156  6.080246245215713E-005
                   157  5.020629231915690E-005
                   158  7.585195815234932E-005
                   159 -3.379654622733554E-004
                   160 -8.174394930584243E-006
                   161  4.030343169531687E-005
                   162 -2.028586203570354E-004
                   163 -8.740764262388748E-005
                   164  9.510948304817257E-004
                   165 -9.933991225958787E-006
                   166 -5.910267169715939E-006
                   167 -3.309492593969772E-006
                   168  2.456140334187468E-005
                   169  1.080350847318322E-005
                   170 -7.868853517806379E-005
                   171  1.519359046274105E-005
                   172  1.814611909553111E-005
                   173 -4.771810315848518E-005
                   174  5.124114822739592E-006
                   175 -8.180595005407255E-007
                   176 -1.055532793590724E-005
                   177  2.036158070099632E-007
                   178 -7.680483145511022E-007
                   179 -1.081313358778613E-006
                   180  9.920691770166991E-007
                   181  3.284164240613627E-007
                   182 -1.238925403455128E-004
                   183 -2.484963591877929E-004
                   184  3.001924534098837E-005
                   185  2.185564024468008E-004
                   186 -1.688984248348427E-004
                   187  2.214669644846086E-004
                   188 -9.207710518407612E-005
                   189  1.191755037020141E-004
                   190 -3.640598517454244E-005
                   191  3.719461713063855E-004
                   192 -4.472834402940778E-004
                   193 -7.450250938828356E-005
                   194  9.235282110203019E-004
                   195  1.686663139800834E-005
                   196 -8.265527496238280E-006
                   197 -1.501277993465805E-006
                   198 -8.447992638029405E-006
                   199  4.384557995764497E-007
                   200 -6.084740151419622E-005
                   201 -2.257383313981716E-004
                   202  9.354067170836158E-006
                   203  1.186342582786781E-005
                   204  2.172994856535622E-005
                   205 -1.247795934357698E-006
                   206  6.253566009951487E-006
                   207 -1.052159300369094E-006
                   208  1.322133554226594E-005
                   209 -1.941124674643237E-006
                   210 -4.509480121338213E-006
                   211 -9.140199274379005E-007
                   212 -2.936527470252681E-003
                   213  1.414510308013063E-003
                   214  1.195020477244899E-004
                   215 -1.305957071296824E-004
                   216  2.396725599725366E-004
                   217 -1.228722957283676E-003
                   218  8.995240702359548E-004
                   219  1.447944248032422E-004
                   220 -1.131642736837324E-005
                   221  2.087285387728611E-004
                   222  1.033020720917622E-003
                   223 -1.464997302991336E-003
                   224 -2.922299989117495E-005
                   225 -2.245734069752381E-005
                   226  1.047244878449196E-004
                   227  7.699371214936564E-005
                   228  7.390223929402677E-005
                   229 -4.629292943697284E-005
                   230  1.667073310272825E-006
                   231 -8.460304965928545E-005
                   232  5.873056630970192E-004
                   233 -8.296801078069045E-005
                   234  2.568241398213346E-006
                   235 -2.492937692301260E-006
                   236  3.307612538659426E-005
                   237  5.337649843385504E-005
                   238 -5.947855396331238E-004
                   239 -2.158684710038303E-005
                   240  3.036889726566080E-006
                   241 -5.084317340579351E-006
                   242 -2.313652913137203E-004
                   243  2.072415945412502E-004
                   244  3.083670240887939E-005
                   245  6.381256059333225E-006
                   246 -1.835812538038011E-006
 Sym= __2_A__
 Ene=  0.000000000000000E+000
 Spin= Alpha
 Occup=    2.00000000000000     
                     1 -3.613254307404695E-005
                     2  2.484669878097154E-005
                     3 -7.880707420589566E-004
                     4 -1.168807745785115E-005
                     5  1.082996378879453E-003
                     6  1.414251694874877E-003
                     7 -2.541668631434084E-004
                     8  9.983696560427484E-004
                     9 -1.587541719578072E-004
                    10  5.681559789307229E-005
                    11 -1.326610208692332E-004
                    12  1.683603205576046E-004
                    13  7.493238841398435E-005
                    14 -1.430938792012511E-004
                    15 -4.401408914283968E-005
                    16  2.923448292570960E-005
                    17  1.053051126163894E-006
                    18  4.913091025961906E-005
                    19 -2.678581323521250E-006
                    20  7.095628005463271E-005
                    21 -6.170487079117451E-005
                    22 -1.946881187788592E-005
                    23  9.600787418946216E-005
                    24 -1.173837256096701E-005
                    25 -3.499401429697257E-005
                    26  1.267838605416879E-004
                    27  1.314509748381465E-005
                    28 -5.984922055619776E-005
                    29 -1.094695693934636E-005
                    30  1.177233162766241E-004
                    31  9.505461269834672E-006
                    32   1.00083633087510     
                    33  8.412588844937957E-003
                    34  2.860561259836952E-003
                    35 -8.434468983553888E-003
                    36 -1.161971952367887E-003
                    37 -5.729944805043898E-005
                    38  1.261408827601651E-004
                    39  8.229650383048071E-004
                    40  3.477572011671576E-005
                    41 -4.597811723836538E-004
                    42  2.402800660901048E-003
                    43 -3.688164401670297E-005
                    44  3.970599148619736E-004
                    45  3.251993213118782E-004
                    46 -1.647251428291585E-005
                    47 -9.359372052371743E-005
                    48  3.048800066044408E-004
                    49  1.454305278732495E-005
                    50 -1.001727841784059E-003
                    51 -3.975506048261864E-004
                    52  2.026409621161796E-004
                    53 -1.356524931099759E-004
                    54  4.116605259362770E-005
                    55 -2.151094193114366E-005
                    56  2.528909190252548E-004
                    57  1.981278961006605E-006
                    58 -3.192999002118848E-005
                    59 -3.721887683966810E-005
                    60  6.461718378760182E-005
                    61  2.034675701234755E-006
                    62  1.623222097872561E-002
                    63 -1.332610366667723E-003
                    64 -2.879070221597273E-004
                    65  2.731141948865972E-003
                    66 -4.417441397060750E-004
                    67 -9.200026384944381E-005
                    68  4.830670688746500E-004
                    69  3.383465980082810E-005
                    70 -3.286967644069506E-005
                    71  2.674663124575018E-004
                    72  1.714731046666036E-004
                    73  2.255843172432554E-004
                    74 -1.756193491275050E-003
                    75  1.708533752734019E-005
                    76  2.572963412724069E-005
                    77  9.136333123595283E-007
                    78 -5.094210019570622E-005
                    79 -3.969025877584327E-006
                    80 -5.592946824207539E-004
                    81 -3.843064412492125E-004
                    82  1.263488676856696E-005
                    83  8.128644905444322E-004
                    84  7.906739587091724E-005
                    85  3.397427857342593E-005
                    86  1.056941429265312E-004
                    87  1.799790655875749E-005
                    88 -3.064771103485848E-005
                    89 -2.463109734255668E-005
                    90 -2.623692109502373E-005
                    91  6.152608930953353E-006
                    92  1.887957028878072E-002
                    93 -1.705657320800469E-003
                    94 -3.436937137175676E-004
                    95  3.404887129961512E-003
                    96 -2.880988959754312E-004
                    97  8.814594196019156E-006
                    98 -3.482380069805655E-004
                    99 -1.306969297011414E-004
                   100  8.599786775936185E-005
                   101 -8.124549563356899E-004
                   102  4.053401983718930E-004
                   103 -1.385232331086677E-004
                   104  1.496960967669827E-003
                   105  1.136900558241699E-005
                   106 -1.666774804265290E-006
                   107  1.845539111023473E-006
                   108 -2.282102493125286E-005
                   109  2.511281934324747E-008
                   110 -1.464127798446834E-004
                   111  5.301604048101465E-004
                   112 -3.099994633267927E-005
                   113  6.110709676787728E-004
                   114 -3.373203404805287E-005
                   115 -4.457501443822353E-005
                   116  8.133483514646714E-005
                   117 -1.257145935492383E-005
                   118  1.712142051626527E-005
                   119 -1.585381576979507E-005
                   120 -2.826084246445021E-005
                   121 -6.491522727797171E-007
                   122 -4.920162486004655E-005
                   123 -7.664475869747086E-004
                   124  2.457565181859108E-004
                   125 -4.319413934891408E-004
                   126 -5.240172527881033E-006
                   127  8.401091683985560E-006
                   128 -5.937895768183172E-005
                   129  6.231314371271874E-004
                   130  7.687155826307256E-006
                   131  5.850616903037068E-005
                   132  2.299220411713273E-004
                   133 -4.532432721636265E-005
                   134  4.118800535819040E-004
                   135  2.826294956080011E-006
                   136  3.454311725040327E-005
                   137  5.124265206868685E-006
                   138 -4.138149821691270E-005
                   139 -5.467167286887476E-006
                   140  1.858319502817476E-004
                   141 -3.044673347979595E-004
                   142 -1.865938475479022E-005
                   143 -2.188213470332624E-004
                   144  2.613707221594256E-005
                   145 -6.642618121602988E-006
                   146  1.085194511124295E-005
                   147 -1.590754374163827E-006
                   148  3.005436931407556E-007
                   149 -4.218875308739404E-006
                   150 -1.906909997909090E-005
                   151  1.375887981066266E-006
                   152  4.193069410034656E-005
                   153 -7.858566446716148E-004
                   154  2.277679050662277E-004
                   155 -1.241601009722198E-004
                   156 -6.400902557340036E-005
                   157 -3.429949760934126E-006
                   158  4.609073287046462E-005
                   159  4.719333253992692E-004
                   160  1.612978917523688E-005