[Molden Format]
[Atoms] AU
  N     1    7    -4.5082829200   -0.1342819900   -0.4228200100        
  C     2    6    -1.7496705200   -0.0824342700   -0.1838819400        
  C     3    6    -0.3491890900    0.2202010900   -2.3813599000        
  C     4    6    -0.4819141000   -0.3194027500    2.1144844200        
  C     5    6     2.2679837200    0.2851297300   -2.2867536700        
  C     6    6     2.1285900100   -0.2535069600    2.1993448600        
  C     7    6     3.5096699900    0.0491470500   -0.0030301700        
  H     8    1    -5.1320741200   -2.0132111100    0.6830024400        
  H     9    1    -5.2312650200    1.3935123600    1.0889586400        
  H    10    1    -1.3260875200    0.4019365300   -4.1451509600        
  H    11    1    -1.5448115400   -0.5543420500    3.8263524900        
  H    12    1     3.3318141500    0.5199799700   -3.9976458500        
  H    13    1     3.0845146800   -0.4378414600    3.9798216900        
  H    14    1     5.5368142800    0.0998677000    0.0666404700        
[5D]
[7F]
[GTO]
  1  0
   s    12 1.00
  0.114200D+05  0.172695D-04
  0.171200D+04  0.134411D-03
  0.389300D+03  0.694561D-03
  0.110000D+03  0.278531D-02
  0.355700D+02  0.863457D-02
  0.125400D+02  0.199805D-01
  0.464400D+01  0.262908D-01
  0.129300D+01 -0.243845D-01
  0.511800D+00 -0.924934D-01
  0.178700D+00 -0.339683D+00
  0.246240D-01  0.345111D+00
  0.112530D-01  0.752750D+00
   s    10 1.00
  0.114200D+05  0.523000D-03
  0.171200D+04  0.404500D-02
  0.389300D+03  0.207750D-01
  0.110000D+03  0.807269D-01
  0.355700D+02  0.233074D+00
  0.125400D+02  0.433501D+00
  0.464400D+01  0.347472D+00
  0.129300D+01  0.412620D-01
  0.511800D+00 -0.850799D-02
  0.178700D+00  0.238400D-02
   s    10 1.00
  0.114200D+05 -0.115000D-03
  0.171200D+04 -0.895000D-03
  0.389300D+03 -0.462400D-02
  0.110000D+03 -0.185280D-01
  0.355700D+02 -0.573390D-01
  0.125400D+02 -0.132076D+00
  0.464400D+01 -0.172510D+00
  0.129300D+01  0.151814D+00
  0.511800D+00  0.599944D+00
  0.178700D+00  0.387462D+00
   s     1 1.00
  0.129300D+01  0.100000D+01
   s     1 1.00
  0.178700D+00  0.100000D+01
   p     5 1.00
  0.266300D+02  0.146700D-01
  0.594800D+01  0.917640D-01
  0.174200D+01  0.298683D+00
  0.555000D+00  0.498487D+00
  0.172500D+00  0.337023D+00
   p     1 1.00
  0.174200D+01  0.100000D+01
   p     1 1.00
  0.555000D+00  0.100000D+01
   d     1 1.00
  0.165400D+01  0.100000D+01
   d     1 1.00
  0.469000D+00  0.100000D+01
   f     1 1.00
  0.109300D+01  0.100000D+01
  
  2  0
   s    10 1.00
  0.823600D+04  0.531000D-03
  0.123500D+04  0.410800D-02
  0.280800D+03  0.210870D-01
  0.792700D+02  0.818530D-01
  0.255900D+02  0.234817D+00
  0.899700D+01  0.434401D+00
  0.331900D+01  0.346129D+00
  0.905900D+00  0.393780D-01
  0.364300D+00 -0.898300D-02
  0.128500D+00  0.238500D-02
   s    10 1.00
  0.823600D+04 -0.113000D-03
  0.123500D+04 -0.878000D-03
  0.280800D+03 -0.454000D-02
  0.792700D+02 -0.181330D-01
  0.255900D+02 -0.557600D-01
  0.899700D+01 -0.126895D+00
  0.331900D+01 -0.170352D+00
  0.905900D+00  0.140382D+00
  0.364300D+00  0.598684D+00
  0.128500D+00  0.395389D+00
   s     1 1.00
  0.905900D+00  0.100000D+01
   s     1 1.00
  0.364300D+00  0.100000D+01
   p     5 1.00
  0.187100D+02  0.140310D-01
  0.413300D+01  0.868660D-01
  0.120000D+01  0.290216D+00
  0.382700D+00  0.501008D+00
  0.120900D+00  0.343406D+00
   p     1 1.00
  0.382700D+00  0.100000D+01
   p     1 1.00
  0.120900D+00  0.100000D+01
   d     1 1.00
  0.109700D+01  0.100000D+01
   d     1 1.00
  0.318000D+00  0.100000D+01
   f     1 1.00
  0.761000D+00  0.100000D+01
  
  3  0
   s    10 1.00
  0.823600D+04  0.531000D-03
  0.123500D+04  0.410800D-02
  0.280800D+03  0.210870D-01
  0.792700D+02  0.818530D-01
  0.255900D+02  0.234817D+00
  0.899700D+01  0.434401D+00
  0.331900D+01  0.346129D+00
  0.905900D+00  0.393780D-01
  0.364300D+00 -0.898300D-02
  0.128500D+00  0.238500D-02
   s    10 1.00
  0.823600D+04 -0.113000D-03
  0.123500D+04 -0.878000D-03
  0.280800D+03 -0.454000D-02
  0.792700D+02 -0.181330D-01
  0.255900D+02 -0.557600D-01
  0.899700D+01 -0.126895D+00
  0.331900D+01 -0.170352D+00
  0.905900D+00  0.140382D+00
  0.364300D+00  0.598684D+00
  0.128500D+00  0.395389D+00
   s     1 1.00
  0.905900D+00  0.100000D+01
   s     1 1.00
  0.364300D+00  0.100000D+01
   p     5 1.00
  0.187100D+02  0.140310D-01
  0.413300D+01  0.868660D-01
  0.120000D+01  0.290216D+00
  0.382700D+00  0.501008D+00
  0.120900D+00  0.343406D+00
   p     1 1.00
  0.382700D+00  0.100000D+01
   p     1 1.00
  0.120900D+00  0.100000D+01
   d     1 1.00
  0.109700D+01  0.100000D+01
   d     1 1.00
  0.318000D+00  0.100000D+01
   f     1 1.00
  0.761000D+00  0.100000D+01
  
  4  0
   s    10 1.00
  0.823600D+04  0.531000D-03
  0.123500D+04  0.410800D-02
  0.280800D+03  0.210870D-01
  0.792700D+02  0.818530D-01
  0.255900D+02  0.234817D+00
  0.899700D+01  0.434401D+00
  0.331900D+01  0.346129D+00
  0.905900D+00  0.393780D-01
  0.364300D+00 -0.898300D-02
  0.128500D+00  0.238500D-02
   s    10 1.00
  0.823600D+04 -0.113000D-03
  0.123500D+04 -0.878000D-03
  0.280800D+03 -0.454000D-02
  0.792700D+02 -0.181330D-01
  0.255900D+02 -0.557600D-01
  0.899700D+01 -0.126895D+00
  0.331900D+01 -0.170352D+00
  0.905900D+00  0.140382D+00
  0.364300D+00  0.598684D+00
  0.128500D+00  0.395389D+00
   s     1 1.00
  0.905900D+00  0.100000D+01
   s     1 1.00
  0.364300D+00  0.100000D+01
   p     5 1.00
  0.187100D+02  0.140310D-01
  0.413300D+01  0.868660D-01
  0.120000D+01  0.290216D+00
  0.382700D+00  0.501008D+00
  0.120900D+00  0.343406D+00
   p     1 1.00
  0.382700D+00  0.100000D+01
   p     1 1.00
  0.120900D+00  0.100000D+01
   d     1 1.00
  0.109700D+01  0.100000D+01
   d     1 1.00
  0.318000D+00  0.100000D+01
   f     1 1.00
  0.761000D+00  0.100000D+01
  
  5  0
   s    10 1.00
  0.823600D+04  0.531000D-03
  0.123500D+04  0.410800D-02
  0.280800D+03  0.210870D-01
  0.792700D+02  0.818530D-01
  0.255900D+02  0.234817D+00
  0.899700D+01  0.434401D+00
  0.331900D+01  0.346129D+00
  0.905900D+00  0.393780D-01
  0.364300D+00 -0.898300D-02
  0.128500D+00  0.238500D-02
   s    10 1.00
  0.823600D+04 -0.113000D-03
  0.123500D+04 -0.878000D-03
  0.280800D+03 -0.454000D-02
  0.792700D+02 -0.181330D-01
  0.255900D+02 -0.557600D-01
  0.899700D+01 -0.126895D+00
  0.331900D+01 -0.170352D+00
  0.905900D+00  0.140382D+00
  0.364300D+00  0.598684D+00
  0.128500D+00  0.395389D+00
   s     1 1.00
  0.905900D+00  0.100000D+01
   s     1 1.00
  0.364300D+00  0.100000D+01
   p     5 1.00
  0.187100D+02  0.140310D-01
  0.413300D+01  0.868660D-01
  0.120000D+01  0.290216D+00
  0.382700D+00  0.501008D+00
  0.120900D+00  0.343406D+00
   p     1 1.00
  0.382700D+00  0.100000D+01
   p     1 1.00
  0.120900D+00  0.100000D+01
   d     1 1.00
  0.109700D+01  0.100000D+01
   d     1 1.00
  0.318000D+00  0.100000D+01
   f     1 1.00
  0.761000D+00  0.100000D+01
  
  6  0
   s    10 1.00
  0.823600D+04  0.531000D-03
  0.123500D+04  0.410800D-02
  0.280800D+03  0.210870D-01
  0.792700D+02  0.818530D-01
  0.255900D+02  0.234817D+00
  0.899700D+01  0.434401D+00
  0.331900D+01  0.346129D+00
  0.905900D+00  0.393780D-01
  0.364300D+00 -0.898300D-02
  0.128500D+00  0.238500D-02
   s    10 1.00
  0.823600D+04 -0.113000D-03
  0.123500D+04 -0.878000D-03
  0.280800D+03 -0.454000D-02
  0.792700D+02 -0.181330D-01
  0.255900D+02 -0.557600D-01
  0.899700D+01 -0.126895D+00
  0.331900D+01 -0.170352D+00
  0.905900D+00  0.140382D+00
  0.364300D+00  0.598684D+00
  0.128500D+00  0.395389D+00
   s     1 1.00
  0.905900D+00  0.100000D+01
   s     1 1.00
  0.364300D+00  0.100000D+01
   p     5 1.00
  0.187100D+02  0.140310D-01
  0.413300D+01  0.868660D-01
  0.120000D+01  0.290216D+00
  0.382700D+00  0.501008D+00
  0.120900D+00  0.343406D+00
   p     1 1.00
  0.382700D+00  0.100000D+01
   p     1 1.00
  0.120900D+00  0.100000D+01
   d     1 1.00
  0.109700D+01  0.100000D+01
   d     1 1.00
  0.318000D+00  0.100000D+01
   f     1 1.00
  0.761000D+00  0.100000D+01
  
  7  0
   s    10 1.00
  0.823600D+04  0.531000D-03
  0.123500D+04  0.410800D-02
  0.280800D+03  0.210870D-01
  0.792700D+02  0.818530D-01
  0.255900D+02  0.234817D+00
  0.899700D+01  0.434401D+00
  0.331900D+01  0.346129D+00
  0.905900D+00  0.393780D-01
  0.364300D+00 -0.898300D-02
  0.128500D+00  0.238500D-02
   s    10 1.00
  0.823600D+04 -0.113000D-03
  0.123500D+04 -0.878000D-03
  0.280800D+03 -0.454000D-02
  0.792700D+02 -0.181330D-01
  0.255900D+02 -0.557600D-01
  0.899700D+01 -0.126895D+00
  0.331900D+01 -0.170352D+00
  0.905900D+00  0.140382D+00
  0.364300D+00  0.598684D+00
  0.128500D+00  0.395389D+00
   s     1 1.00
  0.905900D+00  0.100000D+01
   s     1 1.00
  0.364300D+00  0.100000D+01
   p     5 1.00
  0.187100D+02  0.140310D-01
  0.413300D+01  0.868660D-01
  0.120000D+01  0.290216D+00
  0.382700D+00  0.501008D+00
  0.120900D+00  0.343406D+00
   p     1 1.00
  0.382700D+00  0.100000D+01
   p     1 1.00
  0.120900D+00  0.100000D+01
   d     1 1.00
  0.109700D+01  0.100000D+01
   d     1 1.00
  0.318000D+00  0.100000D+01
   f     1 1.00
  0.761000D+00  0.100000D+01
  
  8  0
   s     4 1.00
  0.130100D+02  0.196850D-01
  0.196200D+01  0.137977D+00
  0.444600D+00  0.478148D+00
  0.122000D+00  0.501240D+00
   s     1 1.00
  0.122000D+00  0.100000D+01
   p     1 1.00
  0.727000D+00  0.100000D+01
  
  9  0
   s     4 1.00
  0.130100D+02  0.196850D-01
  0.196200D+01  0.137977D+00
  0.444600D+00  0.478148D+00
  0.122000D+00  0.501240D+00
   s     1 1.00
  0.122000D+00  0.100000D+01
   p     1 1.00
  0.727000D+00  0.100000D+01
  
 10  0
   s     4 1.00
  0.130100D+02  0.196850D-01
  0.196200D+01  0.137977D+00
  0.444600D+00  0.478148D+00
  0.122000D+00  0.501240D+00
   s     1 1.00
  0.122000D+00  0.100000D+01
   p     1 1.00
  0.727000D+00  0.100000D+01
  
 11  0
   s     4 1.00
  0.130100D+02  0.196850D-01
  0.196200D+01  0.137977D+00
  0.444600D+00  0.478148D+00
  0.122000D+00  0.501240D+00
   s     1 1.00
  0.122000D+00  0.100000D+01
   p     1 1.00
  0.727000D+00  0.100000D+01
  
 12  0
   s     4 1.00
  0.130100D+02  0.196850D-01
  0.196200D+01  0.137977D+00
  0.444600D+00  0.478148D+00
  0.122000D+00  0.501240D+00
   s     1 1.00
  0.122000D+00  0.100000D+01
   p     1 1.00
  0.727000D+00  0.100000D+01
  
 13  0
   s     4 1.00
  0.130100D+02  0.196850D-01
  0.196200D+01  0.137977D+00
  0.444600D+00  0.478148D+00
  0.122000D+00  0.501240D+00
   s     1 1.00
  0.122000D+00  0.100000D+01
   p     1 1.00
  0.727000D+00  0.100000D+01
  
 14  0
   s     4 1.00
  0.130100D+02  0.196850D-01
  0.196200D+01  0.137977D+00
  0.444600D+00  0.478148D+00
  0.122000D+00  0.501240D+00
   s     1 1.00
  0.122000D+00  0.100000D+01
   p     1 1.00
  0.727000D+00  0.100000D+01
  
[MO]
 Sym= __1_A__
 Ene=   1.00000000000000     
 Spin= Alpha
 Occup=    1.00000000000000     
                     1 -4.876520991245251E-004
                     2  0.998033342776275     
                     3 -3.287103642112410E-002
                     4  1.532921190405629E-003
                     5  4.368274821491797E-003
                     6  1.275800305800532E-002
                     7 -2.594896124849033E-003
                     8  2.489325816326651E-002
                     9 -1.439174974825577E-003
                    10  1.731244660422047E-004
                    11 -1.804481015091657E-003
                    12 -3.721201141252085E-003
                    13  5.824012499445350E-004
                    14 -5.796659292037069E-003
                    15  1.336500619555495E-004
                    16  5.621741695030032E-005
                    17 -3.299209214324692E-005
                    18  5.527881760499140E-005
                    19 -3.368403204944600E-006
                    20  5.748412386780420E-004
                    21  8.336655257036674E-004
                    22 -1.164145661847762E-004
                    23  1.736925602040077E-004
                    24 -8.889938751135619E-005
                    25  4.173900471201681E-005
                    26 -5.105923276694464E-005
                    27  6.918296522438330E-007
                    28  5.217873804654896E-005
                    29  1.792293478825289E-005
                    30  3.372373140012439E-005
                    31 -1.073168060582476E-005
                    32 -3.993839491916306E-004
                    33  5.601587220428328E-004
                    34  2.375379749010255E-004
                    35  1.850657504295996E-004
                    36  1.335526370051796E-003
                    37  1.852683888158437E-004
                    38 -1.228424642125598E-003
                    39 -6.011046123300408E-004
                    40 -8.682731308800649E-005
                    41  5.817665411792675E-004
                    42  2.921602753902632E-003
                    43  2.905895674055686E-004
                    44 -1.724726945477418E-003
                    45  5.668121639271230E-005
                    46 -3.379610602349001E-004
                    47 -1.398879397759301E-005
                    48 -6.608950841965862E-005
                    49  3.650350752340027E-005
                    50  8.996655163641747E-005
                    51  8.644352958364235E-005
                    52 -5.872207273386836E-006
                    53 -8.568563980204948E-005
                    54 -1.528368824401210E-005
                    55  1.098518833165621E-004
                    56 -6.404426729969982E-006
                    57  8.806796321546735E-006
                    58  1.235530716610815E-004
                    59 -1.194111302081913E-006
                    60 -6.588593923211141E-005
                    61 -1.224405349039612E-005
                    62 -8.299128349882271E-004
                    63  3.228662354641118E-004
                    64 -1.663898371959525E-004
                    65  3.066146363312220E-003
                    66 -3.867898707530266E-003
                    67 -2.368648619996532E-004
                    68  1.042655091279860E-003
                    69  6.952696824329617E-004
                    70 -5.346773701961041E-005
                    71  6.185741255867254E-004
                    72  1.492062000560184E-003
                    73  3.248008631021885E-004
                    74 -2.361111044219531E-003
                    75  1.232820809222398E-004
                    76 -8.785254180892850E-005
                    77 -3.072223757868816E-005
                    78  1.881859624428353E-005
                    79  1.168113049694503E-005
                    80  2.065420144773979E-004
                    81 -2.703976295410996E-004
                    82 -4.657788140823405E-005
                    83 -3.936264295466942E-005
                    84  3.011656523506349E-005
                    85 -3.002245469171326E-005
                    86 -1.741380438492515E-004
                    87 -1.445341905892923E-005
                    88  1.888164944769829E-007
                    89  2.255334168511218E-005
                    90 -7.293376836015365E-005
                    91  6.077978766835462E-006
                    92  4.514804060367120E-005
                    93 -7.321957813687740E-004
                    94  3.099348094073077E-004
                    95 -1.266069809210549E-003
                    96 -2.819087641526656E-004
                    97 -1.347875479604053E-004
                    98  1.062232889176620E-003
                    99  7.975212197547897E-005
                   100 -3.121680427056870E-005
                   101  2.814578718807383E-004
                   102 -1.521264831279128E-003
                   103  1.973873152493642E-005
                   104 -5.373417190562598E-004
                   105 -4.330592412054786E-005
                   106 -1.650730953920847E-005
                   107  3.908158904878842E-006
                   108  3.852193228697970E-005
                   109  4.200284253315806E-006
                   110 -3.026888506233765E-005
                   111  2.810752386020017E-004
                   112  2.991943106809938E-005
                   113 -1.252235537860930E-004
                   114 -4.092425781744388E-005
                   115 -3.378922688201527E-005
                   116  2.376105254903849E-005
                   117 -6.643222701289309E-006
                   118 -1.453910296639313E-005
                   119 -3.203248869262051E-006
                   120  1.464548440478032E-005
                   121  8.079508162610104E-007
                   122 -2.913621343957061E-004
                   123 -2.041118288347858E-003
                   124  1.612872200232546E-004
                   125  6.006724743277134E-004
                   126  1.909242861270789E-003
                   127  7.849297582512668E-005
                   128 -1.921969248666906E-004
                   129  4.292781222100797E-004
                   130 -2.753850433516851E-005
                   131  3.359835658252213E-004
                   132  1.076435055394244E-003
                   133 -8.184107470997668E-005
                   134  9.498133437232997E-004
                   135  7.458820168849190E-005
                   136 -2.821455510889270E-005
                   137 -8.136804307351831E-006
                   138 -6.875502598569891E-005
                   139 -6.138183493100994E-007
                   140  2.271887715786247E-004
                   141  1.207208390402196E-004
                   142 -4.049635771459340E-006
                   143 -3.295272621901214E-004
                   144 -3.358939203206646E-005
                   145 -1.117227196211912E-005
                   146 -4.336707199443961E-005
                   147 -7.441075383962386E-006
                   148  1.448127114068791E-005
                   149 -4.235388320613908E-006
                   150 -9.034953542609091E-005
                   151  5.766669500449286E-006
                   152 -1.180574364994105E-004
                   153 -2.576304376420689E-004
                   154 -6.690307078102066E-005
                   155  6.858528177256491E-004
                   156  4.399441862912067E-004
                   157 -6.292489882846789E-007
                   158  1.127742504859114E-004
                   159 -3.544195927519285E-004
                   160 -1.193101321754367E-005
                   161  1.352687625102108E-005
                   162 -4.476609072203090E-004
                   163 -1.334477762089359E-004
                   164  1.010492163443899E-003
                   165 -2.742801913057934E-006
                   166 -1.371946987265064E-005
                   167 -1.820269050158574E-006
                   168  1.637999334084965E-005
                   169  2.597107985328338E-006
                   170 -6.414520870361086E-005
                   171  6.492435281835788E-005
                   172  2.344071208840438E-005
                   173 -6.661001661786405E-005
                   174 -1.170607291196586E-005
                   175 -3.509484246690227E-006
                   176 -1.701654819228190E-005
                   177 -6.200138238863890E-007
                   178 -4.952620920592668E-006
                   179  3.080481517168462E-006
                   180  8.046531317109919E-007
                   181  6.277999592334268E-007
                   182 -1.171973191382357E-004
                   183 -1.622476538465674E-004
                   184  2.366287992615027E-005
                   185  2.386916538564879E-004
                   186 -2.493093763573362E-004
                   187  5.128769797722023E-006
                   188 -1.039562640728250E-004
                   189  1.415330487374743E-004
                   190 -4.325550670690087E-005
                   191  3.975785858528747E-004
                   192 -4.772066513796361E-004
                   193 -1.417230009900041E-004
                   194  1.072715680559656E-003
                   195  3.018485748413627E-005
                   196 -1.209996058656330E-005
                   197 -4.744385369352244E-006
                   198 -1.600444899987907E-005
                   199  5.267730692737065E-007
                   200 -2.595721314649309E-005
                   201 -2.469143665578995E-004
                   202 -2.009917796212182E-006
                   203  3.926267732265228E-007
                   204  2.947799051549062E-005
                   205  8.021407747453832E-007
                   206  3.396110401965018E-006
                   207 -2.415720195842670E-006
                   208  1.406523338471223E-005
                   209 -5.049062891202909E-007
                   210 -4.808446055439502E-006
                   211 -1.659115676475148E-006
                   212 -1.068597710402070E-003
                   213  1.464465170253784E-003
                   214  1.562383260076499E-004
                   215 -2.114639992789234E-005
                   216  2.024685686998438E-004
                   217 -1.068597636136641E-003
                   218  1.464465046338583E-003
                   219  1.561483183841533E-004
                   220 -1.805555745070528E-005
                   221  2.028369018527307E-004
                   222  1.634968522889619E-003
                   223 -1.858077448390910E-003
                   224 -1.961582783614554E-005
                   225 -1.795250301662057E-005
                   226  1.458618246375661E-004
                   227  6.249625748064089E-004
                   228  6.270036327952299E-005
                   229 -2.655916648038847E-005
                   230  1.250099047635360E-005
                   231 -1.113950271370772E-004
                   232  9.047089917641823E-004
                   233 -3.264288082369298E-006
                   234  9.160359446433182E-007
                   235 -6.105509349956988E-006
                   236  5.146067498042931E-005
                   237  1.458870143873817E-004
                   238 -6.122631288008838E-004
                   239 -2.715279507003946E-005
                   240  1.167915180760145E-006
                   241 -1.643604742240005E-005
                   242 -3.795119922217728E-004
                   243  2.409874430206517E-004
                   244  3.583795073739108E-005
                   245  1.600278200816133E-006
                   246 -4.672950082329411E-006
 Sym= __2_A__
 Ene=   2.00000000000000     
 Spin= Alpha
 Occup=    1.00000000000000     
                     1 -3.558436431074648E-005
                     2  1.151806461177470E-005
                     3 -4.175042197142545E-004
                     4 -2.310782038525180E-005
                     5  9.242304809743913E-004
                     6  1.595838431193341E-003
                     7 -8.396607044783298E-005
                     8  1.094556865290716E-003
                     9 -1.507422507672877E-004
                    10  8.883405895045288E-006
                    11 -1.113805076982387E-004
                    12  1.377192326705804E-004
                    13  2.146183914029982E-005
                    14 -1.464545334653899E-004
                    15 -4.634401650451666E-005
                    16  2.903454657031798E-005
                    17  4.158219423210251E-006
                    18  5.297598365270732E-005
                    19 -3.896684731326430E-007
                    20  4.934128757658817E-005
                    21 -5.201813155970008E-005
                    22 -2.381421649659481E-005
                    23  9.848676787904620E-005
                    24  1.202646368886693E-005
                    25 -2.495343017548021E-005
                    26  1.244203167776932E-004
                    27  8.757970402141942E-006
                    28 -6.389090235573650E-005
                    29 -1.196395056960578E-005
                    30  1.057220747183536E-004
                    31  2.566132845492041E-007
                    32   1.00083167085150     
                    33  8.555777142307187E-003
                    34  2.843583283711041E-003
                    35 -8.433710112879519E-003
                    36 -1.325254507640164E-003
                    37 -4.502225303273685E-005
                    38  5.400787068871708E-005
                    39  7.363782036335497E-004
                    40  6.993279437946903E-005
                    41 -4.069388700762587E-004
                    42  2.441988785578964E-003
                    43  2.467104675217155E-005
                    44  3.896376728643546E-004
                    45  3.190643760403705E-004
                    46 -1.247688887375550E-005
                    47 -1.047255650388197E-004
                    48  3.100977619453594E-004
                    49  1.992478388313626E-005
                    50 -1.013712321821555E-003
                    51 -3.833691170339971E-004
                    52  2.142117650030113E-004
                    53 -1.111057875412218E-004
                    54  3.850288063176010E-005
                    55 -2.661874313110357E-005
                    56  2.539283549396085E-004
                    57  5.924662557272494E-006
                    58 -3.120255597059760E-005
                    59 -4.007683422088614E-005
                    60  6.996976753151894E-005
                    61 -1.224421841152580E-006
                    62  1.686388082891657E-002
                    63 -1.358519883667639E-003
                    64 -2.889580773965033E-004
                    65  2.749648353252157E-003
                    66 -4.112583701254161E-004
                    67 -6.643846544017423E-005
                    68  4.570553892846076E-004
                    69  2.503275979147725E-005
                    70 -3.347641718613088E-005
                    71  2.870457230109647E-004
                    72  2.043921184605809E-004
                    73  2.182642046523239E-004
                    74 -1.781700890463281E-003
                    75  1.515156667227676E-005
                    76  2.369548694658545E-005
                    77  3.378364261979474E-006
                    78 -4.823685009451780E-005
                    79 -5.649115285454814E-006
                    80 -5.608447547185435E-004
                    81 -3.797980480762236E-004
                    82  7.787851895842009E-006
                    83  8.114864512432876E-004
                    84  9.256491438788450E-005
                    85  3.478705646106057E-005
                    86  1.072208944609758E-004
                    87  1.978868464078332E-005
                    88 -2.970390180158778E-005
                    89 -2.631075678330951E-005
                    90 -2.619778418908504E-005
                    91  7.025365822414659E-006
                    92  1.862612522198912E-002
                    93 -1.751670510786595E-003
                    94 -3.391414346828986E-004
                    95  3.393247186372290E-003
                    96 -2.488381592290343E-004
                    97  2.882565655654001E-005
                    98 -3.027013876929913E-004
                    99 -1.211351558111230E-004
                   100  9.330106033046722E-005
                   101 -8.125671114478558E-004
                   102  3.439411543064503E-004
                   103 -1.646655029238758E-004
                   104  1.465888122034952E-003
                   105  6.361430237226609E-006
                   106 -2.319111376340044E-006
                   107  1.209094136689427E-006
                   108 -2.155825777584660E-005
                   109 -9.840621632736597E-007
                   110 -1.426070972451410E-004
                   111  5.334917922248086E-004
                   112 -2.808429536260247E-005
                   113  6.104967728387220E-004
                   114 -2.794871078817491E-005
                   115 -4.373433039976606E-005
                   116  8.202165409690787E-005
                   117 -1.404591856319892E-005
                   118  1.735927427789362E-005
                   119 -1.874681975783720E-005
                   120 -2.809093933112061E-005
                   121 -7.661177394728054E-008
                   122 -3.113299480199390E-005
                   123 -7.438624056813461E-004
                   124  2.445893731237037E-004
                   125 -4.282564735664028E-004
                   126 -3.330878385761490E-005
                   127  5.894729764989417E-006
                   128 -5.760881532145194E-005
                   129  6.266550875476651E-004
                   130  1.120713734060150E-005
                   131  5.907428004631257E-005
                   132  2.765555065395738E-004
                   133 -4.355826072974539E-005
                   134  4.331118386125842E-004
                   135  2.702621828473691E-006
                   136  3.505480624371061E-005
                   137  5.413855120611934E-006
                   138 -4.071167951837494E-005
                   139 -6.572376447635801E-006
                   140  1.868463794673423E-004
                   141 -2.968968263139825E-004
                   142 -2.135713464568222E-005
                   143 -2.201414784891156E-004
                   144  2.265409157292407E-005
                   145 -7.998273646079456E-006
                   146  1.156950446023841E-005
                   147 -1.849606198643029E-006
                   148 -8.933394690818824E-007
                   149 -5.141733311440141E-006
                   150 -1.938899420916577E-005
                   151  1.852020250570135E-006
                   152  4.625066716214705E-005
                   153 -7.578264436955226E-004
                   154  2.284649816162260E-004
                   155 -1.288804338914965E-004
                   156 -9.641965693801650E-005
                   157 -7.650035061872479E-006
                   158  4.064017779843441E-005
                   159  4.740859277803741E-004
                   160  1.497690699839076E-005