[Molden Format]
[Atoms] AU
  N     1    7     0.0000000000   -4.2907334100    0.0000000000        
  C     2    6     0.0000000000   -1.7772236300    0.0000000000        
  C     3    6    -2.3389203600   -0.4111016300    0.0000000000        
  C     4    6     2.3389203600   -0.4111016300    0.0000000000        
  C     5    6    -2.2998668500    2.1639215300    0.0000000000        
  C     6    6     2.2998668500    2.1639215300    0.0000000000        
  C     7    6     0.0000000000    3.4755251800    0.0000000000        
  H     8    1    -3.8599214500   -6.6719809800    0.0000000000        
  H     9    1     1.6528040300   -5.3103747800    0.0000000000        
  H    10    1    -4.0745407300   -1.4447408500    0.0000000000        
  H    11    1     4.0745407300   -1.4447408500    0.0000000000        
  H    12    1    -4.0420632100    3.1963889500    0.0000000000        
  H    13    1     4.0420632100    3.1963889500    0.0000000000        
  H    14    1     0.0000000000    5.5020335600    0.0000000000        
[5D]
[7F]
[GTO]
  1  0
   s    12 1.00
  0.114200D+05  0.172695D-04
  0.171200D+04  0.134411D-03
  0.389300D+03  0.694561D-03
  0.110000D+03  0.278531D-02
  0.355700D+02  0.863457D-02
  0.125400D+02  0.199805D-01
  0.464400D+01  0.262908D-01
  0.129300D+01 -0.243845D-01
  0.511800D+00 -0.924934D-01
  0.178700D+00 -0.339683D+00
  0.246240D-01  0.345111D+00
  0.112530D-01  0.752750D+00
   s    10 1.00
  0.114200D+05  0.523000D-03
  0.171200D+04  0.404500D-02
  0.389300D+03  0.207750D-01
  0.110000D+03  0.807269D-01
  0.355700D+02  0.233074D+00
  0.125400D+02  0.433501D+00
  0.464400D+01  0.347472D+00
  0.129300D+01  0.412620D-01
  0.511800D+00 -0.850799D-02
  0.178700D+00  0.238400D-02
   s    10 1.00
  0.114200D+05 -0.115000D-03
  0.171200D+04 -0.895000D-03
  0.389300D+03 -0.462400D-02
  0.110000D+03 -0.185280D-01
  0.355700D+02 -0.573390D-01
  0.125400D+02 -0.132076D+00
  0.464400D+01 -0.172510D+00
  0.129300D+01  0.151814D+00
  0.511800D+00  0.599944D+00
  0.178700D+00  0.387462D+00
   s     1 1.00
  0.129300D+01  0.100000D+01
   s     1 1.00
  0.178700D+00  0.100000D+01
   p     5 1.00
  0.266300D+02  0.146700D-01
  0.594800D+01  0.917640D-01
  0.174200D+01  0.298683D+00
  0.555000D+00  0.498487D+00
  0.172500D+00  0.337023D+00
   p     1 1.00
  0.174200D+01  0.100000D+01
   p     1 1.00
  0.555000D+00  0.100000D+01
   d     1 1.00
  0.165400D+01  0.100000D+01
   d     1 1.00
  0.469000D+00  0.100000D+01
   f     1 1.00
  0.109300D+01  0.100000D+01
  
  2  0
   s    10 1.00
  0.823600D+04  0.531000D-03
  0.123500D+04  0.410800D-02
  0.280800D+03  0.210870D-01
  0.792700D+02  0.818530D-01
  0.255900D+02  0.234817D+00
  0.899700D+01  0.434401D+00
  0.331900D+01  0.346129D+00
  0.905900D+00  0.393780D-01
  0.364300D+00 -0.898300D-02
  0.128500D+00  0.238500D-02
   s    10 1.00
  0.823600D+04 -0.113000D-03
  0.123500D+04 -0.878000D-03
  0.280800D+03 -0.454000D-02
  0.792700D+02 -0.181330D-01
  0.255900D+02 -0.557600D-01
  0.899700D+01 -0.126895D+00
  0.331900D+01 -0.170352D+00
  0.905900D+00  0.140382D+00
  0.364300D+00  0.598684D+00
  0.128500D+00  0.395389D+00
   s     1 1.00
  0.905900D+00  0.100000D+01
   s     1 1.00
  0.364300D+00  0.100000D+01
   p     5 1.00
  0.187100D+02  0.140310D-01
  0.413300D+01  0.868660D-01
  0.120000D+01  0.290216D+00
  0.382700D+00  0.501008D+00
  0.120900D+00  0.343406D+00
   p     1 1.00
  0.382700D+00  0.100000D+01
   p     1 1.00
  0.120900D+00  0.100000D+01
   d     1 1.00
  0.109700D+01  0.100000D+01
   d     1 1.00
  0.318000D+00  0.100000D+01
   f     1 1.00
  0.761000D+00  0.100000D+01
  
  3  0
   s    10 1.00
  0.823600D+04  0.531000D-03
  0.123500D+04  0.410800D-02
  0.280800D+03  0.210870D-01
  0.792700D+02  0.818530D-01
  0.255900D+02  0.234817D+00
  0.899700D+01  0.434401D+00
  0.331900D+01  0.346129D+00
  0.905900D+00  0.393780D-01
  0.364300D+00 -0.898300D-02
  0.128500D+00  0.238500D-02
   s    10 1.00
  0.823600D+04 -0.113000D-03
  0.123500D+04 -0.878000D-03
  0.280800D+03 -0.454000D-02
  0.792700D+02 -0.181330D-01
  0.255900D+02 -0.557600D-01
  0.899700D+01 -0.126895D+00
  0.331900D+01 -0.170352D+00
  0.905900D+00  0.140382D+00
  0.364300D+00  0.598684D+00
  0.128500D+00  0.395389D+00
   s     1 1.00
  0.905900D+00  0.100000D+01
   s     1 1.00
  0.364300D+00  0.100000D+01
   p     5 1.00
  0.187100D+02  0.140310D-01
  0.413300D+01  0.868660D-01
  0.120000D+01  0.290216D+00
  0.382700D+00  0.501008D+00
  0.120900D+00  0.343406D+00
   p     1 1.00
  0.382700D+00  0.100000D+01
   p     1 1.00
  0.120900D+00  0.100000D+01
   d     1 1.00
  0.109700D+01  0.100000D+01
   d     1 1.00
  0.318000D+00  0.100000D+01
   f     1 1.00
  0.761000D+00  0.100000D+01
  
  4  0
   s    10 1.00
  0.823600D+04  0.531000D-03
  0.123500D+04  0.410800D-02
  0.280800D+03  0.210870D-01
  0.792700D+02  0.818530D-01
  0.255900D+02  0.234817D+00
  0.899700D+01  0.434401D+00
  0.331900D+01  0.346129D+00
  0.905900D+00  0.393780D-01
  0.364300D+00 -0.898300D-02
  0.128500D+00  0.238500D-02
   s    10 1.00
  0.823600D+04 -0.113000D-03
  0.123500D+04 -0.878000D-03
  0.280800D+03 -0.454000D-02
  0.792700D+02 -0.181330D-01
  0.255900D+02 -0.557600D-01
  0.899700D+01 -0.126895D+00
  0.331900D+01 -0.170352D+00
  0.905900D+00  0.140382D+00
  0.364300D+00  0.598684D+00
  0.128500D+00  0.395389D+00
   s     1 1.00
  0.905900D+00  0.100000D+01
   s     1 1.00
  0.364300D+00  0.100000D+01
   p     5 1.00
  0.187100D+02  0.140310D-01
  0.413300D+01  0.868660D-01
  0.120000D+01  0.290216D+00
  0.382700D+00  0.501008D+00
  0.120900D+00  0.343406D+00
   p     1 1.00
  0.382700D+00  0.100000D+01
   p     1 1.00
  0.120900D+00  0.100000D+01
   d     1 1.00
  0.109700D+01  0.100000D+01
   d     1 1.00
  0.318000D+00  0.100000D+01
   f     1 1.00
  0.761000D+00  0.100000D+01
  
  5  0
   s    10 1.00
  0.823600D+04  0.531000D-03
  0.123500D+04  0.410800D-02
  0.280800D+03  0.210870D-01
  0.792700D+02  0.818530D-01
  0.255900D+02  0.234817D+00
  0.899700D+01  0.434401D+00
  0.331900D+01  0.346129D+00
  0.905900D+00  0.393780D-01
  0.364300D+00 -0.898300D-02
  0.128500D+00  0.238500D-02
   s    10 1.00
  0.823600D+04 -0.113000D-03
  0.123500D+04 -0.878000D-03
  0.280800D+03 -0.454000D-02
  0.792700D+02 -0.181330D-01
  0.255900D+02 -0.557600D-01
  0.899700D+01 -0.126895D+00
  0.331900D+01 -0.170352D+00
  0.905900D+00  0.140382D+00
  0.364300D+00  0.598684D+00
  0.128500D+00  0.395389D+00
   s     1 1.00
  0.905900D+00  0.100000D+01
   s     1 1.00
  0.364300D+00  0.100000D+01
   p     5 1.00
  0.187100D+02  0.140310D-01
  0.413300D+01  0.868660D-01
  0.120000D+01  0.290216D+00
  0.382700D+00  0.501008D+00
  0.120900D+00  0.343406D+00
   p     1 1.00
  0.382700D+00  0.100000D+01
   p     1 1.00
  0.120900D+00  0.100000D+01
   d     1 1.00
  0.109700D+01  0.100000D+01
   d     1 1.00
  0.318000D+00  0.100000D+01
   f     1 1.00
  0.761000D+00  0.100000D+01
  
  6  0
   s    10 1.00
  0.823600D+04  0.531000D-03
  0.123500D+04  0.410800D-02
  0.280800D+03  0.210870D-01
  0.792700D+02  0.818530D-01
  0.255900D+02  0.234817D+00
  0.899700D+01  0.434401D+00
  0.331900D+01  0.346129D+00
  0.905900D+00  0.393780D-01
  0.364300D+00 -0.898300D-02
  0.128500D+00  0.238500D-02
   s    10 1.00
  0.823600D+04 -0.113000D-03
  0.123500D+04 -0.878000D-03
  0.280800D+03 -0.454000D-02
  0.792700D+02 -0.181330D-01
  0.255900D+02 -0.557600D-01
  0.899700D+01 -0.126895D+00
  0.331900D+01 -0.170352D+00
  0.905900D+00  0.140382D+00
  0.364300D+00  0.598684D+00
  0.128500D+00  0.395389D+00
   s     1 1.00
  0.905900D+00  0.100000D+01
   s     1 1.00
  0.364300D+00  0.100000D+01
   p     5 1.00
  0.187100D+02  0.140310D-01
  0.413300D+01  0.868660D-01
  0.120000D+01  0.290216D+00
  0.382700D+00  0.501008D+00
  0.120900D+00  0.343406D+00
   p     1 1.00
  0.382700D+00  0.100000D+01
   p     1 1.00
  0.120900D+00  0.100000D+01
   d     1 1.00
  0.109700D+01  0.100000D+01
   d     1 1.00
  0.318000D+00  0.100000D+01
   f     1 1.00
  0.761000D+00  0.100000D+01
  
  7  0
   s    10 1.00
  0.823600D+04  0.531000D-03
  0.123500D+04  0.410800D-02
  0.280800D+03  0.210870D-01
  0.792700D+02  0.818530D-01
  0.255900D+02  0.234817D+00
  0.899700D+01  0.434401D+00
  0.331900D+01  0.346129D+00
  0.905900D+00  0.393780D-01
  0.364300D+00 -0.898300D-02
  0.128500D+00  0.238500D-02
   s    10 1.00
  0.823600D+04 -0.113000D-03
  0.123500D+04 -0.878000D-03
  0.280800D+03 -0.454000D-02
  0.792700D+02 -0.181330D-01
  0.255900D+02 -0.557600D-01
  0.899700D+01 -0.126895D+00
  0.331900D+01 -0.170352D+00
  0.905900D+00  0.140382D+00
  0.364300D+00  0.598684D+00
  0.128500D+00  0.395389D+00
   s     1 1.00
  0.905900D+00  0.100000D+01
   s     1 1.00
  0.364300D+00  0.100000D+01
   p     5 1.00
  0.187100D+02  0.140310D-01
  0.413300D+01  0.868660D-01
  0.120000D+01  0.290216D+00
  0.382700D+00  0.501008D+00
  0.120900D+00  0.343406D+00
   p     1 1.00
  0.382700D+00  0.100000D+01
   p     1 1.00
  0.120900D+00  0.100000D+01
   d     1 1.00
  0.109700D+01  0.100000D+01
   d     1 1.00
  0.318000D+00  0.100000D+01
   f     1 1.00
  0.761000D+00  0.100000D+01
  
  8  0
   s     4 1.00
  0.130100D+02  0.196850D-01
  0.196200D+01  0.137977D+00
  0.444600D+00  0.478148D+00
  0.122000D+00  0.501240D+00
   s     1 1.00
  0.122000D+00  0.100000D+01
   p     1 1.00
  0.727000D+00  0.100000D+01
  
  9  0
   s     4 1.00
  0.130100D+02  0.196850D-01
  0.196200D+01  0.137977D+00
  0.444600D+00  0.478148D+00
  0.122000D+00  0.501240D+00
   s     1 1.00
  0.122000D+00  0.100000D+01
   p     1 1.00
  0.727000D+00  0.100000D+01
  
 10  0
   s     4 1.00
  0.130100D+02  0.196850D-01
  0.196200D+01  0.137977D+00
  0.444600D+00  0.478148D+00
  0.122000D+00  0.501240D+00
   s     1 1.00
  0.122000D+00  0.100000D+01
   p     1 1.00
  0.727000D+00  0.100000D+01
  
 11  0
   s     4 1.00
  0.130100D+02  0.196850D-01
  0.196200D+01  0.137977D+00
  0.444600D+00  0.478148D+00
  0.122000D+00  0.501240D+00
   s     1 1.00
  0.122000D+00  0.100000D+01
   p     1 1.00
  0.727000D+00  0.100000D+01
  
 12  0
   s     4 1.00
  0.130100D+02  0.196850D-01
  0.196200D+01  0.137977D+00
  0.444600D+00  0.478148D+00
  0.122000D+00  0.501240D+00
   s     1 1.00
  0.122000D+00  0.100000D+01
   p     1 1.00
  0.727000D+00  0.100000D+01
  
 13  0
   s     4 1.00
  0.130100D+02  0.196850D-01
  0.196200D+01  0.137977D+00
  0.444600D+00  0.478148D+00
  0.122000D+00  0.501240D+00
   s     1 1.00
  0.122000D+00  0.100000D+01
   p     1 1.00
  0.727000D+00  0.100000D+01
  
 14  0
   s     4 1.00
  0.130100D+02  0.196850D-01
  0.196200D+01  0.137977D+00
  0.444600D+00  0.478148D+00
  0.122000D+00  0.501240D+00
   s     1 1.00
  0.122000D+00  0.100000D+01
   p     1 1.00
  0.727000D+00  0.100000D+01
  
[MO]
 Sym= __1_A__
 Ene=   1.00000000000000     
 Spin= Alpha
 Occup=    1.00000000000000     
                     1  9.807992539310014E-005
                     2  0.998364372686986     
                     3 -4.892527644555836E-003
                     4  1.972162083581020E-003
                     5  6.421727662185198E-003
                     6  2.667528115501369E-003
                     7  5.283074592565688E-003
                     8  0.000000000000000E+000
                     9 -7.687899423811240E-004
                    10 -5.735944820424866E-004
                    11  0.000000000000000E+000
                    12 -2.517057391249824E-003
                    13 -1.594432769382264E-003
                    14  0.000000000000000E+000
                    15 -4.154040110611437E-005
                    16  0.000000000000000E+000
                    17  0.000000000000000E+000
                    18 -1.715524594558677E-004
                    19 -6.803315970044931E-005
                    20  1.674609232929909E-004
                    21  0.000000000000000E+000
                    22  0.000000000000000E+000
                    23 -1.024752937050258E-004
                    24  5.637735181727976E-004
                    25  0.000000000000000E+000
                    26  5.569627489793681E-006
                    27 -4.250458726993178E-005
                    28  0.000000000000000E+000
                    29  0.000000000000000E+000
                    30  1.672524582666128E-005
                    31 -8.707678204484569E-005
                    32 -2.313278074404611E-004
                    33  2.159016009010402E-004
                    34  2.917119869205328E-004
                    35 -3.671334689182053E-005
                    36 -7.103369224785742E-005
                    37 -1.732911254842416E-003
                    38  0.000000000000000E+000
                    39  4.846290859732793E-004
                    40 -1.142370374006670E-005
                    41  0.000000000000000E+000
                    42 -2.213874329593672E-003
                    43  4.623500098186185E-003
                    44  0.000000000000000E+000
                    45  1.125283712666051E-005
                    46  0.000000000000000E+000
                    47  0.000000000000000E+000
                    48 -9.402736008300648E-005
                    49  1.256195695386173E-005
                    50 -1.655301068342656E-004
                    51  0.000000000000000E+000
                    52  0.000000000000000E+000
                    53  1.244947970287551E-004
                    54  8.064474058730135E-004
                    55  0.000000000000000E+000
                    56 -9.926740401547655E-006
                    57 -8.943512111813741E-005
                    58  0.000000000000000E+000
                    59  0.000000000000000E+000
                    60 -2.149555194151045E-005
                    61 -1.484140524503875E-004
                    62 -5.387755285119380E-004
                    63 -1.938755549399469E-003
                    64 -1.094994012469611E-004
                    65  2.241313416970970E-003
                    66 -2.812156104491384E-004
                    67 -1.179331354246937E-004
                    68  0.000000000000000E+000
                    69  4.541978803886963E-004
                    70  8.559939982297725E-004
                    71  0.000000000000000E+000
                    72 -1.717379049952011E-003
                    73  6.594989996170330E-004
                    74  0.000000000000000E+000
                    75 -5.009066643656840E-005
                    76  0.000000000000000E+000
                    77  0.000000000000000E+000
                    78 -5.025329994063384E-005
                    79 -3.425383043387132E-005
                    80 -1.601733447862165E-004
                    81  0.000000000000000E+000
                    82  0.000000000000000E+000
                    83  1.003226737658690E-004
                    84  2.632311121603193E-005
                    85  0.000000000000000E+000
                    86  5.135102523661488E-006
                    87 -4.066262392620532E-005
                    88  0.000000000000000E+000
                    89  0.000000000000000E+000
                    90 -1.929488528351461E-005
                    91 -1.621319228866989E-004
                    92 -1.049074353761041E-004
                    93 -2.292878155203641E-004
                    94  1.865931918289140E-004
                    95 -3.579729128268614E-004
                    96  1.068214417389552E-005
                    97 -2.001984654686967E-004
                    98  0.000000000000000E+000
                    99  4.019284782818869E-004
                   100  3.001979552560502E-004
                   101  0.000000000000000E+000
                   102  5.767654451251828E-004
                   103 -1.394063754430628E-003
                   104  0.000000000000000E+000
                   105 -1.585510627840056E-005
                   106  0.000000000000000E+000
                   107  0.000000000000000E+000
                   108 -1.845472858203122E-005
                   109 -1.042202741337209E-005
                   110  1.416965192754002E-004
                   111  0.000000000000000E+000
                   112  0.000000000000000E+000
                   113 -7.338983158825899E-005
                   114  2.742260144775938E-005
                   115  0.000000000000000E+000
                   116 -1.896155341697890E-005
                   117 -2.478142866533211E-005
                   118  0.000000000000000E+000
                   119  0.000000000000000E+000
                   120  2.543823700677982E-005
                   121 -3.197837650231202E-005
                   122 -2.573129560053717E-004
                   123 -7.512031321520148E-004
                   124  1.756623100672006E-004
                   125  3.489352529812141E-004
                   126 -3.844114345007195E-005
                   127 -1.519463146278035E-004
                   128  0.000000000000000E+000
                   129  2.200904191550736E-004
                   130  6.036154590574782E-004
                   131  0.000000000000000E+000
                   132  3.301332031709054E-004
                   133  1.870839455255103E-003
                   134  0.000000000000000E+000
                   135  1.514320515262069E-005
                   136  0.000000000000000E+000
                   137  0.000000000000000E+000
                   138  5.302816506725652E-005
                   139 -8.133459486153534E-006
                   140  2.170272927961500E-004
                   141  0.000000000000000E+000
                   142  0.000000000000000E+000
                   143  3.777506356760572E-004
                   144  2.178393393110140E-004
                   145  0.000000000000000E+000
                   146 -1.131240285140423E-005
                   147 -6.337295345601496E-005
                   148  0.000000000000000E+000
                   149  0.000000000000000E+000
                   150 -1.330305184595526E-005
                   151 -5.985064779268860E-005
                   152 -1.623156414495617E-004
                   153 -5.502606618216140E-004
                   154  2.419187052481359E-005
                   155  4.110752789322586E-004
                   156  5.961976800211795E-006
                   157  5.391385416824266E-005
                   158  0.000000000000000E+000
                   159  2.279123367592817E-007
                   160 -1.975797091467812E-005
                   161  0.000000000000000E+000
                   162  6.836857921953981E-004
                   163 -3.150495798786232E-004
                   164  0.000000000000000E+000
                   165 -4.473925849588312E-007
                   166  0.000000000000000E+000
                   167  0.000000000000000E+000
                   168  6.034494037574460E-007
                   169  1.798900223862850E-005
                   170  6.295093535556820E-005
                   171  0.000000000000000E+000
                   172  0.000000000000000E+000
                   173  1.474673398020589E-005
                   174  1.229558565801580E-005
                   175  0.000000000000000E+000
                   176  6.781200915704872E-006
                   177 -9.351824401569015E-006
                   178  0.000000000000000E+000
                   179  0.000000000000000E+000
                   180 -3.293443482293703E-005
                   181 -1.686001245008975E-005
                   182 -1.541262661427863E-004
                   183 -4.590395638375223E-004
                   184  3.896300245398507E-005
                   185  2.470753789291022E-004
                   186 -3.702929881611125E-005
                   187 -5.277749531662713E-005
                   188  0.000000000000000E+000
                   189  2.088613632849029E-004
                   190  8.528315427212581E-005
                   191  0.000000000000000E+000
                   192  1.220612048592190E-003
                   193 -2.502492381690088E-004
                   194  0.000000000000000E+000
                   195 -7.831712899627301E-007
                   196  0.000000000000000E+000
                   197  0.000000000000000E+000
                   198 -3.682072843227534E-006
                   199  7.912668429738854E-006
                   200  1.056719035517479E-005
                   201  0.000000000000000E+000
                   202  0.000000000000000E+000
                   203 -7.490353598167901E-005
                   204 -1.814560041484484E-004
                   205  0.000000000000000E+000
                   206 -5.778161002195737E-006
                   207 -3.998263721682285E-006
                   208  0.000000000000000E+000
                   209  0.000000000000000E+000
                   210  1.042899913977113E-005
                   211 -2.663956978408059E-006
                   212 -2.529242622501656E-005
                   213  1.261953385924246E-004
                   214  1.597465465258555E-005
                   215  2.793966805709353E-005
                   216  0.000000000000000E+000
                   217 -1.830376012398120E-003
                   218 -1.659679094065646E-004
                   219 -1.963662890284312E-004
                   220  2.467992288469896E-005
                   221  0.000000000000000E+000
                   222 -1.739069677694877E-004
                   223 -6.573881152576016E-004
                   224  2.635165981588930E-005
                   225 -6.902664863526440E-005
                   226  0.000000000000000E+000
                   227  1.238708243497429E-004
                   228 -6.166338728531255E-004
                   229 -3.493356527996302E-005
                   230 -1.616694580522368E-005
                   231  0.000000000000000E+000
                   232  9.092392376259158E-005
                   233 -5.345769790703847E-004
                   234  1.746877055776334E-005
                   235 -3.520962201215982E-006
                   236  0.000000000000000E+000
                   237  4.404731821928703E-005
                   238 -3.639195884526771E-004
                   239 -3.670821807966079E-006
                   240  4.200958114814046E-006
                   241  0.000000000000000E+000
                   242 -6.422790687951958E-005
                   243  2.351765054400770E-005
                   244  4.490549959424204E-007
                   245  2.490348821264855E-005
                   246  0.000000000000000E+000
 Sym= __2_A__
 Ene=   2.00000000000000     
 Spin= Alpha
 Occup=    1.00000000000000     
                     1  4.613417089374825E-005
                     2  3.883388832586414E-004
                     3 -2.939651652575450E-003
                     4 -1.366986758983130E-004
                     5 -1.353115683006265E-003
                     6  3.009225560112211E-004
                     7 -2.833540715558107E-003
                     8  0.000000000000000E+000
                     9  8.587714506614088E-005
                    10  1.012256010629928E-004
                    11  0.000000000000000E+000
                    12 -9.223950526956681E-005
                    13  3.989698801688901E-004
                    14  0.000000000000000E+000
                    15 -2.706935193600285E-005
                    16  0.000000000000000E+000
                    17  0.000000000000000E+000
                    18  4.058216375700458E-005
                    19 -9.821644604440536E-006
                    20  1.155585057690402E-004
                    21  0.000000000000000E+000
                    22  0.000000000000000E+000
                    23 -1.572806187303677E-004
                    24  3.747504887260461E-005
                    25  0.000000000000000E+000
                    26  2.277290561373250E-005
                    27 -8.654001501377068E-005
                    28  0.000000000000000E+000
                    29  0.000000000000000E+000
                    30  2.456451587151539E-005
                    31 -1.457361482082585E-004
                    32  -1.00092284245650     
                    33 -9.192556418274270E-003
                    34 -2.799519281274051E-003
                    35  8.180101328882887E-003
                    36  2.766134679498372E-004
                    37  3.537788138003218E-003
                    38  0.000000000000000E+000
                    39 -2.041289278169902E-004
                    40 -3.746556152607825E-004
                    41  0.000000000000000E+000
                    42 -3.451856894711374E-005
                    43 -4.185963717160009E-003
                    44  0.000000000000000E+000
                    45  5.391180358177768E-004
                    46  0.000000000000000E+000
                    47  0.000000000000000E+000
                    48  1.984084364258698E-004
                    49  1.498285183941950E-005
                    50 -5.636464177135694E-004
                    51  0.000000000000000E+000
                    52  0.000000000000000E+000
                    53  9.020756177514820E-004
                    54 -6.604174593061133E-005
                    55  0.000000000000000E+000
                    56  4.730994470854416E-006
                    57 -1.031967229428225E-004
                    58  0.000000000000000E+000
                    59  0.000000000000000E+000
                    60 -5.117989545522084E-006
                    61 -3.906695982703927E-004
                    62 -1.258848095365245E-002
                    63  2.048159594604838E-003
                    64  2.970973632329989E-004
                    65 -3.068317246249447E-003
                    66  2.264291533571400E-005
                    67 -1.594139051997660E-004
                    68  0.000000000000000E+000
                    69 -7.581711067584377E-004
                    70 -2.782054357627626E-006
                    71  0.000000000000000E+000
                    72  2.072169932537515E-003
                    73 -5.674818728639214E-005
                    74  0.000000000000000E+000
                    75 -2.281410411861695E-005
                    76  0.000000000000000E+000
                    77  0.000000000000000E+000
                    78  3.664253446518742E-006
                    79  1.703481302685139E-006
                    80  4.237976743690132E-004
                    81  0.000000000000000E+000
                    82  0.000000000000000E+000
                    83  5.919100547791918E-004
                    84  3.729647367020477E-004
                    85  0.000000000000000E+000
                    86 -3.268755937130165E-005
                    87  6.090957062028767E-005
                    88  0.000000000000000E+000
                    89  0.000000000000000E+000
                    90 -5.011757528003717E-005
                    91 -1.397371518515225E-004
                    92 -1.409438902246889E-002
                    93  2.093403448103515E-003
                    94  2.669873793831078E-004
                    95 -2.970011337531753E-003
                    96 -1.445458216898379E-004
                    97 -2.195837110221194E-004
                    98  0.000000000000000E+000
                    99  6.579714745541757E-004
                   100 -5.148672613672901E-005
                   101  0.000000000000000E+000
                   102 -1.984443372374905E-003
                   103 -5.835637918861229E-006
                   104  0.000000000000000E+000
                   105 -3.095884536396361E-005
                   106  0.000000000000000E+000
                   107  0.000000000000000E+000
                   108  9.731688700175202E-006
                   109  1.216778968998528E-005
                   110  4.096809904553354E-004
                   111  0.000000000000000E+000
                   112  0.000000000000000E+000
                   113  6.208346356823265E-004
                   114 -3.485429537533254E-004
                   115  0.000000000000000E+000
                   116  3.441927181963059E-005
                   117  6.263926483033946E-005
                   118  0.000000000000000E+000
                   119  0.000000000000000E+000
                   120  4.731407759718187E-005
                   121 -1.381177356995750E-004
                   122  4.316806504123020E-005
                   123  6.330891161330588E-004
                   124 -2.292394773881559E-004
                   125  1.265538644277237E-004
                   126  4.011844993490392E-006
                   127  3.894549509867204E-004
                   128  0.000000000000000E+000
                   129  6.657294063961045E-005
                   130 -5.580878795503346E-004
                   131  0.000000000000000E+000
                   132 -3.368808453546419E-004
                   133 -7.755672974430463E-004
                   134  0.000000000000000E+000
                   135 -1.910071154795612E-005
                   136  0.000000000000000E+000
                   137  0.000000000000000E+000
                   138 -3.961477603732554E-006
                   139 -5.264433369361872E-005
                   140 -1.396307994694688E-004
                   141  0.000000000000000E+000
                   142  0.000000000000000E+000
                   143 -2.459264316832684E-004
                   144  1.772268909269079E-004
                   145  0.000000000000000E+000
                   146 -7.423982836441185E-006
                   147  3.510731672651655E-005
                   148  0.000000000000000E+000
                   149  0.000000000000000E+000
                   150  4.831128904050038E-005
                   151 -2.840315327191038E-005
                   152 -6.549535131858353E-005
                   153  6.238053421778305E-004
                   154 -2.295482845588617E-004
                   155  1.417870480646397E-004
                   156  1.312537954394517E-005
                   157  4.181506358052513E-004
                   158  0.000000000000000E+000
                   159 -5.241796548936417E-005
                   160 -5.760525071123793E-004