[Molden Format]
[Atoms] AU
  N     1    7    -4.4634953500    0.1400043900   -0.1426300500        
  C     2    6    -1.7692630400   -0.0199025000   -0.0625193400        
  C     3    6    -0.4001112500    0.0645920800   -2.3157882900        
  C     4    6    -0.4564035100   -0.0803973700    2.2175520800        
  C     5    6     2.2109147700    0.0492411400   -2.2732662500        
  C     6    6     2.1639920300   -0.0547719700    2.2398577200        
  C     7    6     3.5109104400   -0.0003004000    0.0020021500        
  H     8    1    -5.1877279800   -1.2942198400   -1.2223031400        
  H     9    1    -5.1703080800   -0.1005624300    1.6436648900        
  H    10    1    -1.3906971000    0.1538552800   -4.0824262400        
  H    11    1    -1.4786531700   -0.1552233500    3.9681036200        
  H    12    1     3.2372584600    0.1005309700   -4.0229330000        
  H    13    1     3.1452640400   -0.0973954700    4.0155311100        
  H    14    1     5.5388725900    0.0053992300    0.0238675800        
[5D]
[7F]
[GTO]
  1  0
   s    12 1.00
  0.114200D+05  0.172695D-04
  0.171200D+04  0.134411D-03
  0.389300D+03  0.694561D-03
  0.110000D+03  0.278531D-02
  0.355700D+02  0.863457D-02
  0.125400D+02  0.199805D-01
  0.464400D+01  0.262908D-01
  0.129300D+01 -0.243845D-01
  0.511800D+00 -0.924934D-01
  0.178700D+00 -0.339683D+00
  0.246240D-01  0.345111D+00
  0.112530D-01  0.752750D+00
   s    10 1.00
  0.114200D+05  0.523000D-03
  0.171200D+04  0.404500D-02
  0.389300D+03  0.207750D-01
  0.110000D+03  0.807269D-01
  0.355700D+02  0.233074D+00
  0.125400D+02  0.433501D+00
  0.464400D+01  0.347472D+00
  0.129300D+01  0.412620D-01
  0.511800D+00 -0.850799D-02
  0.178700D+00  0.238400D-02
   s    10 1.00
  0.114200D+05 -0.115000D-03
  0.171200D+04 -0.895000D-03
  0.389300D+03 -0.462400D-02
  0.110000D+03 -0.185280D-01
  0.355700D+02 -0.573390D-01
  0.125400D+02 -0.132076D+00
  0.464400D+01 -0.172510D+00
  0.129300D+01  0.151814D+00
  0.511800D+00  0.599944D+00
  0.178700D+00  0.387462D+00
   s     1 1.00
  0.129300D+01  0.100000D+01
   s     1 1.00
  0.178700D+00  0.100000D+01
   p     5 1.00
  0.266300D+02  0.146700D-01
  0.594800D+01  0.917640D-01
  0.174200D+01  0.298683D+00
  0.555000D+00  0.498487D+00
  0.172500D+00  0.337023D+00
   p     1 1.00
  0.174200D+01  0.100000D+01
   p     1 1.00
  0.555000D+00  0.100000D+01
   d     1 1.00
  0.165400D+01  0.100000D+01
   d     1 1.00
  0.469000D+00  0.100000D+01
   f     1 1.00
  0.109300D+01  0.100000D+01
  
  2  0
   s    10 1.00
  0.823600D+04  0.531000D-03
  0.123500D+04  0.410800D-02
  0.280800D+03  0.210870D-01
  0.792700D+02  0.818530D-01
  0.255900D+02  0.234817D+00
  0.899700D+01  0.434401D+00
  0.331900D+01  0.346129D+00
  0.905900D+00  0.393780D-01
  0.364300D+00 -0.898300D-02
  0.128500D+00  0.238500D-02
   s    10 1.00
  0.823600D+04 -0.113000D-03
  0.123500D+04 -0.878000D-03
  0.280800D+03 -0.454000D-02
  0.792700D+02 -0.181330D-01
  0.255900D+02 -0.557600D-01
  0.899700D+01 -0.126895D+00
  0.331900D+01 -0.170352D+00
  0.905900D+00  0.140382D+00
  0.364300D+00  0.598684D+00
  0.128500D+00  0.395389D+00
   s     1 1.00
  0.905900D+00  0.100000D+01
   s     1 1.00
  0.364300D+00  0.100000D+01
   p     5 1.00
  0.187100D+02  0.140310D-01
  0.413300D+01  0.868660D-01
  0.120000D+01  0.290216D+00
  0.382700D+00  0.501008D+00
  0.120900D+00  0.343406D+00
   p     1 1.00
  0.382700D+00  0.100000D+01
   p     1 1.00
  0.120900D+00  0.100000D+01
   d     1 1.00
  0.109700D+01  0.100000D+01
   d     1 1.00
  0.318000D+00  0.100000D+01
   f     1 1.00
  0.761000D+00  0.100000D+01
  
  3  0
   s    10 1.00
  0.823600D+04  0.531000D-03
  0.123500D+04  0.410800D-02
  0.280800D+03  0.210870D-01
  0.792700D+02  0.818530D-01
  0.255900D+02  0.234817D+00
  0.899700D+01  0.434401D+00
  0.331900D+01  0.346129D+00
  0.905900D+00  0.393780D-01
  0.364300D+00 -0.898300D-02
  0.128500D+00  0.238500D-02
   s    10 1.00
  0.823600D+04 -0.113000D-03
  0.123500D+04 -0.878000D-03
  0.280800D+03 -0.454000D-02
  0.792700D+02 -0.181330D-01
  0.255900D+02 -0.557600D-01
  0.899700D+01 -0.126895D+00
  0.331900D+01 -0.170352D+00
  0.905900D+00  0.140382D+00
  0.364300D+00  0.598684D+00
  0.128500D+00  0.395389D+00
   s     1 1.00
  0.905900D+00  0.100000D+01
   s     1 1.00
  0.364300D+00  0.100000D+01
   p     5 1.00
  0.187100D+02  0.140310D-01
  0.413300D+01  0.868660D-01
  0.120000D+01  0.290216D+00
  0.382700D+00  0.501008D+00
  0.120900D+00  0.343406D+00
   p     1 1.00
  0.382700D+00  0.100000D+01
   p     1 1.00
  0.120900D+00  0.100000D+01
   d     1 1.00
  0.109700D+01  0.100000D+01
   d     1 1.00
  0.318000D+00  0.100000D+01
   f     1 1.00
  0.761000D+00  0.100000D+01
  
  4  0
   s    10 1.00
  0.823600D+04  0.531000D-03
  0.123500D+04  0.410800D-02
  0.280800D+03  0.210870D-01
  0.792700D+02  0.818530D-01
  0.255900D+02  0.234817D+00
  0.899700D+01  0.434401D+00
  0.331900D+01  0.346129D+00
  0.905900D+00  0.393780D-01
  0.364300D+00 -0.898300D-02
  0.128500D+00  0.238500D-02
   s    10 1.00
  0.823600D+04 -0.113000D-03
  0.123500D+04 -0.878000D-03
  0.280800D+03 -0.454000D-02
  0.792700D+02 -0.181330D-01
  0.255900D+02 -0.557600D-01
  0.899700D+01 -0.126895D+00
  0.331900D+01 -0.170352D+00
  0.905900D+00  0.140382D+00
  0.364300D+00  0.598684D+00
  0.128500D+00  0.395389D+00
   s     1 1.00
  0.905900D+00  0.100000D+01
   s     1 1.00
  0.364300D+00  0.100000D+01
   p     5 1.00
  0.187100D+02  0.140310D-01
  0.413300D+01  0.868660D-01
  0.120000D+01  0.290216D+00
  0.382700D+00  0.501008D+00
  0.120900D+00  0.343406D+00
   p     1 1.00
  0.382700D+00  0.100000D+01
   p     1 1.00
  0.120900D+00  0.100000D+01
   d     1 1.00
  0.109700D+01  0.100000D+01
   d     1 1.00
  0.318000D+00  0.100000D+01
   f     1 1.00
  0.761000D+00  0.100000D+01
  
  5  0
   s    10 1.00
  0.823600D+04  0.531000D-03
  0.123500D+04  0.410800D-02
  0.280800D+03  0.210870D-01
  0.792700D+02  0.818530D-01
  0.255900D+02  0.234817D+00
  0.899700D+01  0.434401D+00
  0.331900D+01  0.346129D+00
  0.905900D+00  0.393780D-01
  0.364300D+00 -0.898300D-02
  0.128500D+00  0.238500D-02
   s    10 1.00
  0.823600D+04 -0.113000D-03
  0.123500D+04 -0.878000D-03
  0.280800D+03 -0.454000D-02
  0.792700D+02 -0.181330D-01
  0.255900D+02 -0.557600D-01
  0.899700D+01 -0.126895D+00
  0.331900D+01 -0.170352D+00
  0.905900D+00  0.140382D+00
  0.364300D+00  0.598684D+00
  0.128500D+00  0.395389D+00
   s     1 1.00
  0.905900D+00  0.100000D+01
   s     1 1.00
  0.364300D+00  0.100000D+01
   p     5 1.00
  0.187100D+02  0.140310D-01
  0.413300D+01  0.868660D-01
  0.120000D+01  0.290216D+00
  0.382700D+00  0.501008D+00
  0.120900D+00  0.343406D+00
   p     1 1.00
  0.382700D+00  0.100000D+01
   p     1 1.00
  0.120900D+00  0.100000D+01
   d     1 1.00
  0.109700D+01  0.100000D+01
   d     1 1.00
  0.318000D+00  0.100000D+01
   f     1 1.00
  0.761000D+00  0.100000D+01
  
  6  0
   s    10 1.00
  0.823600D+04  0.531000D-03
  0.123500D+04  0.410800D-02
  0.280800D+03  0.210870D-01
  0.792700D+02  0.818530D-01
  0.255900D+02  0.234817D+00
  0.899700D+01  0.434401D+00
  0.331900D+01  0.346129D+00
  0.905900D+00  0.393780D-01
  0.364300D+00 -0.898300D-02
  0.128500D+00  0.238500D-02
   s    10 1.00
  0.823600D+04 -0.113000D-03
  0.123500D+04 -0.878000D-03
  0.280800D+03 -0.454000D-02
  0.792700D+02 -0.181330D-01
  0.255900D+02 -0.557600D-01
  0.899700D+01 -0.126895D+00
  0.331900D+01 -0.170352D+00
  0.905900D+00  0.140382D+00
  0.364300D+00  0.598684D+00
  0.128500D+00  0.395389D+00
   s     1 1.00
  0.905900D+00  0.100000D+01
   s     1 1.00
  0.364300D+00  0.100000D+01
   p     5 1.00
  0.187100D+02  0.140310D-01
  0.413300D+01  0.868660D-01
  0.120000D+01  0.290216D+00
  0.382700D+00  0.501008D+00
  0.120900D+00  0.343406D+00
   p     1 1.00
  0.382700D+00  0.100000D+01
   p     1 1.00
  0.120900D+00  0.100000D+01
   d     1 1.00
  0.109700D+01  0.100000D+01
   d     1 1.00
  0.318000D+00  0.100000D+01
   f     1 1.00
  0.761000D+00  0.100000D+01
  
  7  0
   s    10 1.00
  0.823600D+04  0.531000D-03
  0.123500D+04  0.410800D-02
  0.280800D+03  0.210870D-01
  0.792700D+02  0.818530D-01
  0.255900D+02  0.234817D+00
  0.899700D+01  0.434401D+00
  0.331900D+01  0.346129D+00
  0.905900D+00  0.393780D-01
  0.364300D+00 -0.898300D-02
  0.128500D+00  0.238500D-02
   s    10 1.00
  0.823600D+04 -0.113000D-03
  0.123500D+04 -0.878000D-03
  0.280800D+03 -0.454000D-02
  0.792700D+02 -0.181330D-01
  0.255900D+02 -0.557600D-01
  0.899700D+01 -0.126895D+00
  0.331900D+01 -0.170352D+00
  0.905900D+00  0.140382D+00
  0.364300D+00  0.598684D+00
  0.128500D+00  0.395389D+00
   s     1 1.00
  0.905900D+00  0.100000D+01
   s     1 1.00
  0.364300D+00  0.100000D+01
   p     5 1.00
  0.187100D+02  0.140310D-01
  0.413300D+01  0.868660D-01
  0.120000D+01  0.290216D+00
  0.382700D+00  0.501008D+00
  0.120900D+00  0.343406D+00
   p     1 1.00
  0.382700D+00  0.100000D+01
   p     1 1.00
  0.120900D+00  0.100000D+01
   d     1 1.00
  0.109700D+01  0.100000D+01
   d     1 1.00
  0.318000D+00  0.100000D+01
   f     1 1.00
  0.761000D+00  0.100000D+01
  
  8  0
   s     4 1.00
  0.130100D+02  0.196850D-01
  0.196200D+01  0.137977D+00
  0.444600D+00  0.478148D+00
  0.122000D+00  0.501240D+00
   s     1 1.00
  0.122000D+00  0.100000D+01
   p     1 1.00
  0.727000D+00  0.100000D+01
  
  9  0
   s     4 1.00
  0.130100D+02  0.196850D-01
  0.196200D+01  0.137977D+00
  0.444600D+00  0.478148D+00
  0.122000D+00  0.501240D+00
   s     1 1.00
  0.122000D+00  0.100000D+01
   p     1 1.00
  0.727000D+00  0.100000D+01
  
 10  0
   s     4 1.00
  0.130100D+02  0.196850D-01
  0.196200D+01  0.137977D+00
  0.444600D+00  0.478148D+00
  0.122000D+00  0.501240D+00
   s     1 1.00
  0.122000D+00  0.100000D+01
   p     1 1.00
  0.727000D+00  0.100000D+01
  
 11  0
   s     4 1.00
  0.130100D+02  0.196850D-01
  0.196200D+01  0.137977D+00
  0.444600D+00  0.478148D+00
  0.122000D+00  0.501240D+00
   s     1 1.00
  0.122000D+00  0.100000D+01
   p     1 1.00
  0.727000D+00  0.100000D+01
  
 12  0
   s     4 1.00
  0.130100D+02  0.196850D-01
  0.196200D+01  0.137977D+00
  0.444600D+00  0.478148D+00
  0.122000D+00  0.501240D+00
   s     1 1.00
  0.122000D+00  0.100000D+01
   p     1 1.00
  0.727000D+00  0.100000D+01
  
 13  0
   s     4 1.00
  0.130100D+02  0.196850D-01
  0.196200D+01  0.137977D+00
  0.444600D+00  0.478148D+00
  0.122000D+00  0.501240D+00
   s     1 1.00
  0.122000D+00  0.100000D+01
   p     1 1.00
  0.727000D+00  0.100000D+01
  
 14  0
   s     4 1.00
  0.130100D+02  0.196850D-01
  0.196200D+01  0.137977D+00
  0.444600D+00  0.478148D+00
  0.122000D+00  0.501240D+00
   s     1 1.00
  0.122000D+00  0.100000D+01
   p     1 1.00
  0.727000D+00  0.100000D+01
  
[MO]
 Sym= __1_a__
 Ene=  0.000000000000000E+000
 Spin= Alpha
 Occup=    2.00000000000000     
                     1  2.287807620691870E-004
                     2  0.998075623888095     
                     3  3.063977523411310E-003
                     4  1.926531532601800E-003
                     5  5.788772270067300E-003
                     6  5.596188019295290E-003
                     7 -4.536818015375360E-003
                     8  2.524395531102220E-003
                     9 -8.017026092658260E-004
                    10  2.681612601412830E-004
                    11 -2.905277797335730E-004
                    12 -1.485871189449950E-003
                    13  2.967624995981930E-003
                    14 -1.514840292484480E-003
                    15 -7.488934756024205E-006
                    16 -3.987533374935940E-005
                    17 -3.992190908766190E-006
                    18  6.463185407599340E-005
                    19  5.726123946504470E-005
                    20 -3.275762661102252E-004
                    21  2.907781128237910E-004
                    22 -1.431396193330170E-004
                    23  7.965927024421060E-005
                    24 -4.450780987622720E-004
                    25 -5.140549551988923E-005
                    26 -1.290697325258090E-004
                    27 -1.955338263510220E-005
                    28  5.965251345786700E-005
                    29 -2.127886691696080E-005
                    30 -1.041738037977247E-004
                    31 -3.852883880623044E-005
                    32 -3.734426669704380E-004
                    33  8.525725326559490E-004
                    34  2.445709123558980E-004
                    35 -9.494548759894501E-005
                    36 -4.141651090364720E-003
                    37 -5.663009506192350E-005
                    38 -1.477544218218860E-004
                    39  2.094361131943110E-004
                    40 -3.029448171742800E-005
                    41  4.484502816059890E-004
                    42  4.826854768779970E-003
                    43  7.761811399286370E-004
                    44 -2.075456409185420E-003
                    45 -2.132807596281931E-004
                    46  2.164395510229150E-005
                    47  6.962218933956850E-006
                    48  2.006551408587860E-004
                    49  4.641194903259510E-005
                    50  4.862355979102093E-004
                    51  3.447589263824750E-004
                    52 -4.813942217901940E-005
                    53 -7.303050208417080E-005
                    54 -3.464059569111560E-004
                    55  2.322552863946630E-005
                    56 -5.637828740006860E-005
                    57  5.875371011034062E-006
                    58  1.847674454135684E-005
                    59  1.941610317118730E-006
                    60 -3.460948174743514E-005
                    61  3.163559792945321E-005
                    62 -5.525216819573540E-004
                    63 -2.378634124922520E-003
                    64  1.475389031381990E-005
                    65  1.759976102013090E-003
                    66  4.548518056901960E-004
                    67 -9.887186395626800E-005
                    68 -6.158242390702240E-004
                    69  7.956914652117260E-004
                    70  6.203817517678290E-005
                    71  3.697915964926860E-004
                    72  8.117450769103501E-004
                    73 -2.760713054587710E-004
                    74 -1.287121343676910E-003
                    75 -7.245445109998028E-005
                    76 -2.214655851115930E-005
                    77  1.875307671920740E-005
                    78  7.349757090282700E-005
                    79 -6.876819786646660E-006
                    80  3.004862397733242E-004
                    81  1.911458185025050E-004
                    82 -4.473685776868390E-005
                    83 -6.042865428497200E-005
                    84  3.170944851630870E-005
                    85 -1.710687449065565E-005
                    86 -1.038979176676515E-004
                    87  1.977999529062045E-005
                    88 -2.397968105916020E-006
                    89  1.316832000943890E-005
                    90 -6.356810837753804E-005
                    91 -1.161686792592617E-005
                    92 -1.643561133035670E-004
                    93 -1.107502797180200E-003
                    94  1.891214689669060E-004
                    95 -1.202681866119600E-004
                    96  5.885150950478100E-004
                    97 -1.039474110940500E-004
                    98  4.901168311360830E-004
                    99  3.798949264359890E-004
                   100  8.200169614466900E-005
                   101  1.605240050230750E-004
                   102 -1.692611762946870E-003
                   103 -3.161468653001200E-004
                   104  3.142603015511820E-004
                   105 -6.989217831802731E-005
                   106  5.138727935884810E-006
                   107 -1.321060620419690E-005
                   108  4.905517105894100E-005
                   109 -9.609077690717970E-006
                   110  5.628628704461496E-005
                   111 -1.956209235841140E-004
                   112  1.233604482359010E-005
                   113 -1.938325709243280E-004
                   114  5.847621275331510E-005
                   115 -6.326122709346903E-006
                   116 -4.152848124789095E-006
                   117  1.915221528063312E-005
                   118  1.696572807115694E-005
                   119 -1.116737628216840E-005
                   120 -2.674508479674533E-005
                   121 -7.673687292483062E-006
                   122 -2.543681677075110E-004
                   123 -5.449420258815709E-004
                   124  9.270758952022860E-005
                   125  7.033352144757650E-004
                   126 -5.338440575970230E-004
                   127 -4.250019694845410E-005
                   128 -7.130770666019730E-006
                   129  4.575801737659810E-004
                   130 -2.215506301743670E-005
                   131  1.728254492130550E-004
                   132  2.086215262699670E-003
                   133  1.353013465249810E-004
                   134  2.306300727964610E-004
                   135  1.944912844986024E-005
                   136  1.839670442672870E-006
                   137 -4.268223366506620E-006
                   138 -1.038870649481890E-005
                   139  9.462807869740219E-006
                   140  1.913910295954211E-004
                   141  2.955986066897600E-004
                   142  8.941380248751421E-006
                   143 -3.081605936390480E-004
                   144 -2.348779664737330E-005
                   145 -2.611120526250492E-005
                   146 -1.934806568918182E-005
                   147  7.291135708304476E-007
                   148 -9.282020639632139E-006
                   149 -3.171728822900310E-006
                   150 -6.760014184411518E-005
                   151 -1.060628917504912E-006
                   152 -1.455409006636900E-004
                   153 -1.916499148898790E-004
                   154  6.190089698677980E-006
                   155  4.762219520740230E-004
                   156 -4.734247903061020E-004
                   157 -3.629654677305460E-005
                   158 -5.175633466829230E-005
                   159 -3.381788982757830E-005
                   160 -3.133671740056220E-005
                   161  1.545910787419370E-004
                   162 -3.997822561151770E-004
                   163  9.777782220166940E-005
                   164  7.400408152068210E-004
                   165 -9.970683199739394E-006
                   166  4.829956102917510E-006
                   167  3.119009462013110E-006
                   168  1.054976860381712E-005
                   169  7.017234202881350E-006
                   170 -3.562370054026843E-005
                   171 -9.201409992439169E-005
                   172 -2.187976859022460E-007
                   173 -5.075722505515180E-005
                   174  1.747739529963050E-007
                   175 -3.231271876608059E-006
                   176 -9.799401524470682E-006
                   177  2.544459082934629E-006
                   178 -1.267571017887098E-006
                   179  5.705412421315690E-007
                   180 -1.996803350566058E-005
                   181 -3.395986282395876E-006
                   182 -1.354267285838180E-004
                   183 -4.191704182960560E-004
                   184  3.047355441166880E-005
                   185  1.690720124385480E-004
                   186 -1.756004398438790E-005
                   187 -3.904133776845920E-005
                   188 -5.778962849573680E-005
                   189  9.160164502020099E-005
                   190  1.341154659124980E-005
                   191  2.506282689424000E-004
                   192 -3.847935038736560E-004
                   193 -1.190990489761240E-004
                   194  1.366337604103540E-003
                   195 -9.259511915698886E-006
                   196  2.248756474551510E-006
                   197 -1.292417121757990E-008
                   198  3.505884181663000E-006
                   199 -1.525855293178530E-006
                   200 -1.202996620730274E-004
                   201 -2.062957484870310E-004
                   202  3.649209357199460E-006
                   203  6.518712187073080E-005
                   204  1.824281845441110E-005
                   205  2.423478183854416E-006
                   206  1.499314602743298E-006
                   207  2.117323247070343E-006
                   208  1.633717155183936E-005
                   209 -8.122098914045470E-007
                   210 -5.272146936673741E-006
                   211 -2.590005931477743E-006
                   212  2.281297393307560E-003
                   213 -1.957929409762480E-003
                   214  1.508779130900370E-004
                   215  3.857454442979430E-004
                   216  1.929313372569150E-004
                   217  2.692932953877370E-003
                   218 -2.159162686624400E-003
                   219  1.878741025498890E-004
                   220  1.367345536709580E-004
                   221 -4.680411074004440E-004
                   222 -5.118260517154140E-004
                   223 -2.639668045866840E-004
                   224 -7.851981035534950E-005
                   225  8.008546004310690E-006
                   226  3.504775704100450E-005
                   227 -4.188279597829510E-004
                   228 -3.847144134313520E-004
                   229 -4.442914630073550E-005
                   230  1.338383956750090E-005
                   231 -4.413265378592480E-005
                   232 -6.864852297321710E-005
                   233 -5.959227721360300E-004
                   234  3.944541479590860E-007
                   235 -1.081915101469310E-006
                   236 -2.995453709284480E-006
                   237 -1.354311598839770E-004
                   238 -3.476545973996310E-004
                   239  1.260612075069840E-005
                   240 -2.741537975402060E-006
                   241  1.625520110086760E-005
                   242  8.964389544546010E-006
                   243  1.164588027984080E-004
                   244  2.992095145568540E-005
                   245  1.750196458776290E-006
                   246  1.458510268306060E-006
 Sym= __2_a__
 Ene=  0.000000000000000E+000
 Spin= Alpha
 Occup=    2.00000000000000     
                     1 -1.458300398671810E-005
                     2 -8.436033743537200E-005
                     3  1.881068744332340E-003
                     4 -1.587113348561630E-005
                     5  1.226088361362140E-003
                     6  1.840817528455030E-003
                     7  1.992906706368130E-004
                     8 -1.790340025962230E-004
                     9 -1.520047664171390E-004
                    10  9.984876528297821E-005
                    11 -1.987534780304420E-005
                    12  7.981281538653301E-005
                    13  8.608520830565629E-005
                    14  5.746365002118190E-005
                    15 -6.868652137617772E-005
                    16  1.079398699630410E-005
                    17 -7.742622965208670E-006
                    18  4.220913991656700E-005
                    19 -2.020413371859090E-006
                    20  1.627158091788624E-004
                    21 -5.911468543953140E-005
                    22  2.694463174905040E-005
                    23  1.081252550760786E-004
                    24 -5.229937037033230E-005
                    25 -5.193015430192862E-005
                    26  1.351684467003636E-004
                    27 -3.130575232622462E-005
                    28 -2.446550168700160E-006
                    29  2.449411289440690E-007
                    30  1.282275842690734E-004
                    31  3.560489211645699E-005
                    32   1.00095184922993     
                    33  8.761621414870959E-003
                    34  2.799959761576650E-003
                    35 -8.268139207061660E-003
                    36 -2.471698361725740E-003
                    37  6.224449483810100E-004
                    38  1.535515743624000E-005
                    39  1.095046890903300E-003
                    40 -2.116278356997030E-004
                    41 -8.783523046697169E-005
                    42  3.318569277606920E-003
                    43 -1.178119821070530E-004
                    44 -1.663937316154750E-004
                    45  2.993047890897209E-004
                    46  1.710946341035650E-005
                    47 -1.575308790444290E-005
                    48  4.031664287076740E-004
                    49 -1.776152984024040E-005
                    50 -1.030006363406492E-003
                    51 -1.282512218410590E-004
                    52  6.565369309982390E-005
                    53 -1.260349725374606E-004
                    54  2.451787591313170E-005
                    55 -8.614798986989769E-006
                    56  3.030727248848410E-004
                    57 -8.979537033870842E-006
                    58 -1.295868465393454E-005
                    59 -4.334852209060200E-006
                    60  7.871727063209346E-005
                    61  1.596828116958811E-005
                    62  1.276359155830780E-002
                    63 -1.854713017535340E-003
                    64 -2.922880610566410E-004
                    65  3.030017856741750E-003
                    66 -1.465271549877210E-004
                    67  9.503590388135690E-005
                    68  2.810105036787000E-004
                    69  3.269063323743560E-005
                    70 -1.235540580236100E-005
                    71  4.334443045725100E-004
                    72  3.579121597570690E-004
                    73  3.852310113255230E-005
                    74 -1.848980351043120E-003
                    75 -9.251252202811329E-006
                    76  2.606282756722130E-005
                    77  8.831635483057460E-006
                    78 -3.802804550476880E-005
                    79 -4.225966711562430E-006
                    80 -4.508072606918787E-004
                    81 -4.321659670070760E-004
                    82  8.651132786467379E-006
                    83  7.795470920446240E-004
                    84  3.808569747042110E-006
                    85  4.773169250543031E-005
                    86  1.106070148584271E-004
                    87  8.014919793749627E-006
                    88 -1.643861150484052E-005
                    89 -1.334266630174680E-005
                    90 -2.550595700410715E-005
                    91  3.156697842324323E-006
                    92  1.388447562506480E-002
                    93 -1.783972645849320E-003
                    94 -3.318774794653650E-004
                    95  3.235721183234240E-003
                    96 -1.784847928950980E-004
                    97  1.150177388240290E-004
                    98 -2.696408906728810E-004
                    99  6.524135231959340E-007
                   100  2.262474809973550E-005
                   101 -6.055096950937940E-004
                   102  2.252366552436490E-005
                   103 -7.402575154665820E-005
                   104  1.763151661685640E-003
                   105 -5.115609639135802E-006
                   106 -1.976743189252120E-005
                   107 -4.872071982831780E-006
                   108 -3.374484456887860E-005
                   109 -4.000660269011520E-006
                   110 -3.675385411715071E-004
                   111  4.874005545013450E-004
                   112 -7.997108524098560E-006
                   113  7.260966401864800E-004
                   114 -1.130176559526600E-005
                   115 -5.157641706399044E-005
                   116  1.006198127098927E-004
                   117 -3.566695820935389E-006
                   118  1.929932837916580E-005
                   119  7.191188945183770E-007
                   120 -3.277624714542837E-005
                   121  4.662774621772435E-006
                   122 -1.475737441727950E-004
                   123 -7.482700553534850E-004
                   124  2.438335023424980E-004
                   125 -2.781416070372870E-004
                   126 -1.844884827336920E-004
                   127  2.246362730815880E-005
                   128 -5.079516162828740E-005
                   129  6.047972762483660E-004
                   130 -8.987096691029949E-006
                   131  7.239962277749980E-005
                   132  7.056481267657150E-004
                   133 -8.729760000326660E-006
                   134  3.968212201518140E-004
                   135  1.569007191372369E-007
                   136  4.139171016550950E-005
                   137  3.750802069633980E-007
                   138 -3.247076813372100E-005
                   139 -2.316183700346640E-006
                   140  1.978037404610370E-004
                   141 -2.608826960389280E-004
                   142  2.505157773498360E-006
                   143 -2.588775460073320E-004
                   144  6.558315069353380E-006
                   145 -1.836111868383632E-005
                   146  1.539072395121873E-005
                   147 -8.930982383933992E-007
                   148 -1.173452969855646E-005
                   149 -2.807344729894480E-006
                   150 -2.311807357307155E-005
                   151  2.056748176934886E-007
                   152 -1.199961706282140E-004
                   153 -7.060667551947190E-004
                   154  2.559128593085910E-004
                   155 -3.414865535557680E-004
                   156 -1.712824502972560E-004
                   157  1.079952178847860E-005
                   158  3.503442523564080E-005
                   159  5.784140973410120E-004
                   160  6.067392391385370E-006