[Molden Format]
[Atoms] AU
  N     1    7     0.0000000000    0.0000000000   -4.2907334100        
  C     2    6     0.0000000000    0.0000000000   -1.7772236300        
  C     3    6     0.0000000000   -2.3389203600   -0.4111016300        
  C     4    6     0.0000000000    2.3389203600   -0.4111016300        
  C     5    6     0.0000000000   -2.2998668500    2.1639215300        
  C     6    6     0.0000000000    2.2998668500    2.1639215300        
  C     7    6     0.0000000000    0.0000000000    3.4755251800        
  H     8    1     0.0000000000   -1.7691306600   -5.3821385500        
  H     9    1     0.0000000000    1.6528040300   -5.3103747800        
  H    10    1     0.0000000000   -4.0745407300   -1.4447408500        
  H    11    1     0.0000000000    4.0745407300   -1.4447408500        
  H    12    1     0.0000000000   -4.0420632100    3.1963889500        
  H    13    1     0.0000000000    4.0420632100    3.1963889500        
  H    14    1     0.0000000000    0.0000000000    5.5020335600        
[5D]
[7F]
[GTO]
  1  0
   s    12 1.00
  0.114200D+05  0.172695D-04
  0.171200D+04  0.134411D-03
  0.389300D+03  0.694561D-03
  0.110000D+03  0.278531D-02
  0.355700D+02  0.863457D-02
  0.125400D+02  0.199805D-01
  0.464400D+01  0.262908D-01
  0.129300D+01 -0.243845D-01
  0.511800D+00 -0.924934D-01
  0.178700D+00 -0.339683D+00
  0.246240D-01  0.345111D+00
  0.112530D-01  0.752750D+00
   s    10 1.00
  0.114200D+05  0.523000D-03
  0.171200D+04  0.404500D-02
  0.389300D+03  0.207750D-01
  0.110000D+03  0.807269D-01
  0.355700D+02  0.233074D+00
  0.125400D+02  0.433501D+00
  0.464400D+01  0.347472D+00
  0.129300D+01  0.412620D-01
  0.511800D+00 -0.850799D-02
  0.178700D+00  0.238400D-02
   s    10 1.00
  0.114200D+05 -0.115000D-03
  0.171200D+04 -0.895000D-03
  0.389300D+03 -0.462400D-02
  0.110000D+03 -0.185280D-01
  0.355700D+02 -0.573390D-01
  0.125400D+02 -0.132076D+00
  0.464400D+01 -0.172510D+00
  0.129300D+01  0.151814D+00
  0.511800D+00  0.599944D+00
  0.178700D+00  0.387462D+00
   s     1 1.00
  0.129300D+01  0.100000D+01
   s     1 1.00
  0.178700D+00  0.100000D+01
   p     5 1.00
  0.266300D+02  0.146700D-01
  0.594800D+01  0.917640D-01
  0.174200D+01  0.298683D+00
  0.555000D+00  0.498487D+00
  0.172500D+00  0.337023D+00
   p     1 1.00
  0.174200D+01  0.100000D+01
   p     1 1.00
  0.555000D+00  0.100000D+01
   d     1 1.00
  0.165400D+01  0.100000D+01
   d     1 1.00
  0.469000D+00  0.100000D+01
   f     1 1.00
  0.109300D+01  0.100000D+01
  
  2  0
   s    10 1.00
  0.823600D+04  0.531000D-03
  0.123500D+04  0.410800D-02
  0.280800D+03  0.210870D-01
  0.792700D+02  0.818530D-01
  0.255900D+02  0.234817D+00
  0.899700D+01  0.434401D+00
  0.331900D+01  0.346129D+00
  0.905900D+00  0.393780D-01
  0.364300D+00 -0.898300D-02
  0.128500D+00  0.238500D-02
   s    10 1.00
  0.823600D+04 -0.113000D-03
  0.123500D+04 -0.878000D-03
  0.280800D+03 -0.454000D-02
  0.792700D+02 -0.181330D-01
  0.255900D+02 -0.557600D-01
  0.899700D+01 -0.126895D+00
  0.331900D+01 -0.170352D+00
  0.905900D+00  0.140382D+00
  0.364300D+00  0.598684D+00
  0.128500D+00  0.395389D+00
   s     1 1.00
  0.905900D+00  0.100000D+01
   s     1 1.00
  0.364300D+00  0.100000D+01
   p     5 1.00
  0.187100D+02  0.140310D-01
  0.413300D+01  0.868660D-01
  0.120000D+01  0.290216D+00
  0.382700D+00  0.501008D+00
  0.120900D+00  0.343406D+00
   p     1 1.00
  0.382700D+00  0.100000D+01
   p     1 1.00
  0.120900D+00  0.100000D+01
   d     1 1.00
  0.109700D+01  0.100000D+01
   d     1 1.00
  0.318000D+00  0.100000D+01
   f     1 1.00
  0.761000D+00  0.100000D+01
  
  3  0
   s    10 1.00
  0.823600D+04  0.531000D-03
  0.123500D+04  0.410800D-02
  0.280800D+03  0.210870D-01
  0.792700D+02  0.818530D-01
  0.255900D+02  0.234817D+00
  0.899700D+01  0.434401D+00
  0.331900D+01  0.346129D+00
  0.905900D+00  0.393780D-01
  0.364300D+00 -0.898300D-02
  0.128500D+00  0.238500D-02
   s    10 1.00
  0.823600D+04 -0.113000D-03
  0.123500D+04 -0.878000D-03
  0.280800D+03 -0.454000D-02
  0.792700D+02 -0.181330D-01
  0.255900D+02 -0.557600D-01
  0.899700D+01 -0.126895D+00
  0.331900D+01 -0.170352D+00
  0.905900D+00  0.140382D+00
  0.364300D+00  0.598684D+00
  0.128500D+00  0.395389D+00
   s     1 1.00
  0.905900D+00  0.100000D+01
   s     1 1.00
  0.364300D+00  0.100000D+01
   p     5 1.00
  0.187100D+02  0.140310D-01
  0.413300D+01  0.868660D-01
  0.120000D+01  0.290216D+00
  0.382700D+00  0.501008D+00
  0.120900D+00  0.343406D+00
   p     1 1.00
  0.382700D+00  0.100000D+01
   p     1 1.00
  0.120900D+00  0.100000D+01
   d     1 1.00
  0.109700D+01  0.100000D+01
   d     1 1.00
  0.318000D+00  0.100000D+01
   f     1 1.00
  0.761000D+00  0.100000D+01
  
  4  0
   s    10 1.00
  0.823600D+04  0.531000D-03
  0.123500D+04  0.410800D-02
  0.280800D+03  0.210870D-01
  0.792700D+02  0.818530D-01
  0.255900D+02  0.234817D+00
  0.899700D+01  0.434401D+00
  0.331900D+01  0.346129D+00
  0.905900D+00  0.393780D-01
  0.364300D+00 -0.898300D-02
  0.128500D+00  0.238500D-02
   s    10 1.00
  0.823600D+04 -0.113000D-03
  0.123500D+04 -0.878000D-03
  0.280800D+03 -0.454000D-02
  0.792700D+02 -0.181330D-01
  0.255900D+02 -0.557600D-01
  0.899700D+01 -0.126895D+00
  0.331900D+01 -0.170352D+00
  0.905900D+00  0.140382D+00
  0.364300D+00  0.598684D+00
  0.128500D+00  0.395389D+00
   s     1 1.00
  0.905900D+00  0.100000D+01
   s     1 1.00
  0.364300D+00  0.100000D+01
   p     5 1.00
  0.187100D+02  0.140310D-01
  0.413300D+01  0.868660D-01
  0.120000D+01  0.290216D+00
  0.382700D+00  0.501008D+00
  0.120900D+00  0.343406D+00
   p     1 1.00
  0.382700D+00  0.100000D+01
   p     1 1.00
  0.120900D+00  0.100000D+01
   d     1 1.00
  0.109700D+01  0.100000D+01
   d     1 1.00
  0.318000D+00  0.100000D+01
   f     1 1.00
  0.761000D+00  0.100000D+01
  
  5  0
   s    10 1.00
  0.823600D+04  0.531000D-03
  0.123500D+04  0.410800D-02
  0.280800D+03  0.210870D-01
  0.792700D+02  0.818530D-01
  0.255900D+02  0.234817D+00
  0.899700D+01  0.434401D+00
  0.331900D+01  0.346129D+00
  0.905900D+00  0.393780D-01
  0.364300D+00 -0.898300D-02
  0.128500D+00  0.238500D-02
   s    10 1.00
  0.823600D+04 -0.113000D-03
  0.123500D+04 -0.878000D-03
  0.280800D+03 -0.454000D-02
  0.792700D+02 -0.181330D-01
  0.255900D+02 -0.557600D-01
  0.899700D+01 -0.126895D+00
  0.331900D+01 -0.170352D+00
  0.905900D+00  0.140382D+00
  0.364300D+00  0.598684D+00
  0.128500D+00  0.395389D+00
   s     1 1.00
  0.905900D+00  0.100000D+01
   s     1 1.00
  0.364300D+00  0.100000D+01
   p     5 1.00
  0.187100D+02  0.140310D-01
  0.413300D+01  0.868660D-01
  0.120000D+01  0.290216D+00
  0.382700D+00  0.501008D+00
  0.120900D+00  0.343406D+00
   p     1 1.00
  0.382700D+00  0.100000D+01
   p     1 1.00
  0.120900D+00  0.100000D+01
   d     1 1.00
  0.109700D+01  0.100000D+01
   d     1 1.00
  0.318000D+00  0.100000D+01
   f     1 1.00
  0.761000D+00  0.100000D+01
  
  6  0
   s    10 1.00
  0.823600D+04  0.531000D-03
  0.123500D+04  0.410800D-02
  0.280800D+03  0.210870D-01
  0.792700D+02  0.818530D-01
  0.255900D+02  0.234817D+00
  0.899700D+01  0.434401D+00
  0.331900D+01  0.346129D+00
  0.905900D+00  0.393780D-01
  0.364300D+00 -0.898300D-02
  0.128500D+00  0.238500D-02
   s    10 1.00
  0.823600D+04 -0.113000D-03
  0.123500D+04 -0.878000D-03
  0.280800D+03 -0.454000D-02
  0.792700D+02 -0.181330D-01
  0.255900D+02 -0.557600D-01
  0.899700D+01 -0.126895D+00
  0.331900D+01 -0.170352D+00
  0.905900D+00  0.140382D+00
  0.364300D+00  0.598684D+00
  0.128500D+00  0.395389D+00
   s     1 1.00
  0.905900D+00  0.100000D+01
   s     1 1.00
  0.364300D+00  0.100000D+01
   p     5 1.00
  0.187100D+02  0.140310D-01
  0.413300D+01  0.868660D-01
  0.120000D+01  0.290216D+00
  0.382700D+00  0.501008D+00
  0.120900D+00  0.343406D+00
   p     1 1.00
  0.382700D+00  0.100000D+01
   p     1 1.00
  0.120900D+00  0.100000D+01
   d     1 1.00
  0.109700D+01  0.100000D+01
   d     1 1.00
  0.318000D+00  0.100000D+01
   f     1 1.00
  0.761000D+00  0.100000D+01
  
  7  0
   s    10 1.00
  0.823600D+04  0.531000D-03
  0.123500D+04  0.410800D-02
  0.280800D+03  0.210870D-01
  0.792700D+02  0.818530D-01
  0.255900D+02  0.234817D+00
  0.899700D+01  0.434401D+00
  0.331900D+01  0.346129D+00
  0.905900D+00  0.393780D-01
  0.364300D+00 -0.898300D-02
  0.128500D+00  0.238500D-02
   s    10 1.00
  0.823600D+04 -0.113000D-03
  0.123500D+04 -0.878000D-03
  0.280800D+03 -0.454000D-02
  0.792700D+02 -0.181330D-01
  0.255900D+02 -0.557600D-01
  0.899700D+01 -0.126895D+00
  0.331900D+01 -0.170352D+00
  0.905900D+00  0.140382D+00
  0.364300D+00  0.598684D+00
  0.128500D+00  0.395389D+00
   s     1 1.00
  0.905900D+00  0.100000D+01
   s     1 1.00
  0.364300D+00  0.100000D+01
   p     5 1.00
  0.187100D+02  0.140310D-01
  0.413300D+01  0.868660D-01
  0.120000D+01  0.290216D+00
  0.382700D+00  0.501008D+00
  0.120900D+00  0.343406D+00
   p     1 1.00
  0.382700D+00  0.100000D+01
   p     1 1.00
  0.120900D+00  0.100000D+01
   d     1 1.00
  0.109700D+01  0.100000D+01
   d     1 1.00
  0.318000D+00  0.100000D+01
   f     1 1.00
  0.761000D+00  0.100000D+01
  
  8  0
   s     4 1.00
  0.130100D+02  0.196850D-01
  0.196200D+01  0.137977D+00
  0.444600D+00  0.478148D+00
  0.122000D+00  0.501240D+00
   s     1 1.00
  0.122000D+00  0.100000D+01
   p     1 1.00
  0.727000D+00  0.100000D+01
  
  9  0
   s     4 1.00
  0.130100D+02  0.196850D-01
  0.196200D+01  0.137977D+00
  0.444600D+00  0.478148D+00
  0.122000D+00  0.501240D+00
   s     1 1.00
  0.122000D+00  0.100000D+01
   p     1 1.00
  0.727000D+00  0.100000D+01
  
 10  0
   s     4 1.00
  0.130100D+02  0.196850D-01
  0.196200D+01  0.137977D+00
  0.444600D+00  0.478148D+00
  0.122000D+00  0.501240D+00
   s     1 1.00
  0.122000D+00  0.100000D+01
   p     1 1.00
  0.727000D+00  0.100000D+01
  
 11  0
   s     4 1.00
  0.130100D+02  0.196850D-01
  0.196200D+01  0.137977D+00
  0.444600D+00  0.478148D+00
  0.122000D+00  0.501240D+00
   s     1 1.00
  0.122000D+00  0.100000D+01
   p     1 1.00
  0.727000D+00  0.100000D+01
  
 12  0
   s     4 1.00
  0.130100D+02  0.196850D-01
  0.196200D+01  0.137977D+00
  0.444600D+00  0.478148D+00
  0.122000D+00  0.501240D+00
   s     1 1.00
  0.122000D+00  0.100000D+01
   p     1 1.00
  0.727000D+00  0.100000D+01
  
 13  0
   s     4 1.00
  0.130100D+02  0.196850D-01
  0.196200D+01  0.137977D+00
  0.444600D+00  0.478148D+00
  0.122000D+00  0.501240D+00
   s     1 1.00
  0.122000D+00  0.100000D+01
   p     1 1.00
  0.727000D+00  0.100000D+01
  
 14  0
   s     4 1.00
  0.130100D+02  0.196850D-01
  0.196200D+01  0.137977D+00
  0.444600D+00  0.478148D+00
  0.122000D+00  0.501240D+00
   s     1 1.00
  0.122000D+00  0.100000D+01
   p     1 1.00
  0.727000D+00  0.100000D+01
  
[MO]
 Sym= __1_a__
 Ene=  0.000000000000000E+000
 Spin= Alpha
 Occup=    2.00000000000000     
                     1  2.972481324026970E-005
                     2  0.998184521377068     
                     3  8.584368630894609E-003
                     4  1.958751748525920E-003
                     5  1.741641471548430E-003
                     6 -1.564790578340770E-011
                     7  1.611688157350010E-004
                     8  4.573666852047710E-003
                     9  3.378042028354680E-012
                    10  7.769002482566810E-005
                    11 -9.022834160492180E-005
                    12  1.052700217588540E-011
                    13  7.039550121783710E-006
                    14 -1.538753822372840E-004
                    15  2.704121691631748E-004
                    16 -1.742871301481230E-012
                    17 -3.708861670108370E-005
                    18 -8.199360472594820E-005
                    19  5.284020738121740E-013
                    20  1.464206108588606E-004
                    21 -2.744304834710390E-012
                    22 -1.157458101342720E-005
                    23  5.732927512195820E-004
                    24 -1.083306032820610E-012
                    25 -1.677398536817971E-004
                    26  5.069055206578063E-013
                    27  5.415144630113827E-006
                    28  6.478822645890880E-005
                    29 -1.144576774963910E-012
                    30  6.903577224137039E-013
                    31 -1.620350862996646E-005
                    32 -3.610551836241950E-004
                    33  2.652205308227140E-003
                    34  1.370187228590960E-004
                    35 -2.254314171215260E-004
                    36 -8.958899972461080E-012
                    37 -2.545094432347760E-005
                    38 -6.931278631041830E-003
                    39  4.892158682193230E-012
                    40  6.098039688853040E-006
                    41  3.385782887579170E-004
                    42 -4.499510997226740E-013
                    43 -6.244540838767420E-005
                    44  4.504965472865970E-003
                    45  3.438781082864219E-004
                    46 -1.368863269791280E-012
                    47 -7.301640527237930E-006
                    48  1.358201680023674E-004
                    49 -1.633387693712350E-013
                    50  7.771154352623379E-005
                    51 -2.285146071388560E-012
                    52 -3.088110751502910E-006
                    53 -4.406106783721900E-004
                    54 -4.196570861334180E-013
                    55 -1.039453020912701E-004
                    56  5.652924496550155E-013
                    57  5.847333847803001E-006
                    58  7.258072277870200E-005
                    59  6.329335351241680E-013
                    60 -1.954718429388494E-012
                    61  1.269367850615093E-006
                    62 -2.074686963950480E-004
                    63 -1.605926923794570E-003
                    64  5.629677448908910E-005
                    65  5.580770939000540E-004
                    66  7.170658545840410E-012
                    67 -8.090835163320180E-004
                    68  9.486655506703310E-004
                    69 -6.825260435475490E-012
                    70 -3.030503366574830E-005
                    71  6.156920573548870E-004
                    72  2.239612385353870E-012
                    73 -6.588786028364420E-004
                    74 -9.307312947835650E-005
                    75  8.944348773879242E-005
                    76 -1.416816520074760E-012
                    77 -7.368372922910080E-006
                    78  3.939794534607140E-005
                    79  2.160083850573500E-013
                    80 -1.556097304737471E-005
                    81  9.759960405491830E-013
                    82  1.936455455643380E-004
                    83 -2.454216961425620E-005
                    84 -5.089590098969810E-014
                    85 -9.334335654565916E-005
                    86  6.774261869316356E-013
                    87 -3.096407765152301E-005
                    88  1.927092834347890E-005
                    89 -5.217899264199140E-013
                    90 -1.930862796384469E-012
                    91  1.241709269779278E-005
                    92 -2.177727956396190E-004
                    93 -1.697891187154690E-003
                    94  6.111652746108200E-005
                    95  5.676940888310830E-004
                    96 -1.739514083786360E-012
                    97  8.407917868630570E-004
                    98  1.002996030427920E-003
                    99  3.327329986163210E-012
                   100  3.800883381852420E-005
                   101  6.209530957437450E-004
                   102  6.435704762366110E-012
                   103  5.599849704972650E-004
                   104 -2.311148761675960E-004
                   105  9.135775940419247E-005
                   106  1.993202379678080E-012
                   107  6.385421976608210E-006
                   108  4.239882999788860E-005
                   109 -6.550957277203870E-014
                   110 -8.077445994322915E-006
                   111  5.948470975153690E-012
                   112 -1.896242906021560E-004
                   113 -2.655175653027860E-005
                   114 -4.132939660285370E-012
                   115 -9.260066062512215E-005
                   116 -3.642065438797740E-013
                   117  2.752501748382966E-005
                   118  2.027956113069000E-005
                   119  2.450046358201290E-012
                   120 -3.249378107821069E-012
                   121 -1.309900177441987E-005
                   122 -1.480903214721460E-004
                   123 -1.822030022989930E-005
                   124  1.087918943811900E-004
                   125  1.381941552386370E-004
                   126 -1.567658686004080E-011
                   127  3.731368722062970E-005
                   128 -7.642723905949430E-004
                   129  8.877881205232729E-012
                   130  3.471139395880190E-005
                   131  3.534296564137100E-004
                   132 -8.419218136335180E-013
                   133 -1.368800674142700E-004
                   134  7.791648650302620E-004
                   135 -1.756740918239982E-005
                   136  3.017861674173160E-014
                   137  1.215434430289640E-006
                   138  9.512573721736760E-007
                   139 -1.702133721277360E-012
                   140 -1.948300252067190E-004
                   141 -5.903000404123240E-013
                   142  1.664946556707500E-004
                   143  1.005030936224864E-005
                   144 -2.099949456477220E-012
                   145 -3.906049493314377E-005
                   146 -1.512980868596613E-012
                   147  2.178081971099273E-006
                   148 -1.039978603219012E-005
                   149 -2.538728404312410E-012
                   150 -3.310217239244577E-013
                   151 -3.988147541056198E-006
                   152 -1.481782898295140E-004
                   153 -9.281363268925070E-008
                   154  1.119559203560870E-004
                   155  1.239018195776080E-004
                   156  1.086886738829420E-011
                   157 -3.948539526459540E-005
                   158 -7.867364517339630E-004
                   159 -1.094703815515200E-011
                   160 -2.861510738634440E-005
                   161  3.524189850131360E-004
                   162 -1.178085232496700E-011
                   163  2.229273575303620E-004
                   164  6.629893969159930E-004
                   165 -1.788624126231033E-005
                   166 -6.266006422381600E-013
                   167 -2.200412791648500E-006
                   168  7.427200069135860E-007
                   169 -3.301675705537680E-012
                   170 -1.900302825868557E-004
                   171  5.746104618388510E-012
                   172 -1.623095142878420E-004
                   173  1.735769409964636E-005
                   174  6.540464453151790E-012
                   175 -3.964962491227712E-005
                   176 -1.940768972769018E-012
                   177 -1.693224442620417E-006
                   178 -9.356772945561360E-006
                   179  1.608469083092650E-012
                   180 -6.566797702853588E-013
                   181  3.573618818359798E-006
                   182 -1.195224152975300E-004
                   183 -3.185400162093980E-004
                   184  3.356891469071640E-005
                   185  1.413740696815770E-004
                   186 -1.101100921272260E-011
                   187 -1.365356632517100E-006
                   188 -4.296692660524750E-005
                   189  7.634619242194739E-012
                   190  8.018243815110141E-006
                   191  2.185668088406610E-005
                   192  8.257072609977310E-012
                   193  7.095213021257740E-005
                   194  3.941658051393670E-005
                   195  1.892672559910823E-005
                   196  9.482244526794249E-013
                   197 -4.279829115573810E-007
                   198  8.907390700480281E-006
                   199  3.359693451882150E-012
                   200  5.743996775814838E-005
                   201 -4.916967393713950E-012
                   202 -6.090064430220310E-006
                   203  5.216875181259560E-005
                   204 -9.465445767139481E-013
                   205 -1.092573974985712E-005
                   206 -1.072275601497849E-012
                   207  3.908596581490865E-007
                   208  2.112841213051060E-006
                   209  5.267083477513910E-013
                   210  1.909072806447824E-012
                   211 -3.268748450535762E-007
                   212  2.928159766326740E-003
                   213 -1.814781686710010E-003
                   214 -8.108623167982800E-014
                   215  4.605153332532240E-004
                   216  3.640251973986100E-004
                   217  3.748965537192960E-003
                   218 -2.276761492288020E-003
                   219  8.531677603936800E-013
                   220 -4.501566234458110E-004
                   221  3.763456277044700E-004
                   222 -6.231701428569350E-004
                   223 -1.893714500802200E-004
                   224 -1.045497438696420E-012
                   225 -1.552987622859230E-005
                   226 -4.296580732537360E-005
                   227 -6.479013253550059E-004
                   228 -1.419262426779210E-004
                   229  2.653021746052090E-012
                   230  1.570695860446610E-005
                   231 -4.244720757689360E-005
                   232 -2.228479296750450E-004
                   233 -4.150558416143850E-004
                   234 -1.164377905362070E-012
                   235 -5.318519384557190E-006
                   236  5.204149961697190E-006
                   237 -2.290325769854630E-004
                   238 -4.219386546566080E-004
                   239  3.615977331036760E-013
                   240  4.589649300547860E-006
                   241  4.458626507655110E-006
                   242  6.644120656926070E-005
                   243 -1.257822322916840E-004
                   244  1.123368318995600E-012
                   245 -2.420026358214790E-007
                   246  1.444731260539960E-005
 Sym= __2_a__
 Ene=  0.000000000000000E+000
 Spin= Alpha
 Occup=    2.00000000000000     
                     1 -4.825811945294550E-005
                     2 -2.266560853257860E-004
                     3  2.379665589458270E-003
                     4  1.074381024717990E-004
                     5  1.257938930470700E-003
                     6  2.102687213702730E-012
                     7 -4.130667757540560E-005
                     8  3.025443280798710E-003
                     9 -8.110027955174080E-013
                    10 -8.485450302847010E-006
                    11 -5.496448075782070E-005
                    12 -7.992847079951940E-012
                    13  2.381952586783030E-005
                    14 -5.368557653033090E-004
                    15  4.297099573562818E-005
                    16  1.851728273848720E-014
                    17 -3.570425026506210E-006
                    18  6.582187488353420E-005
                    19 -4.927694241546710E-013
                    20 -2.593957569478954E-004
                    21 -5.686578968532110E-012
                    22  2.151951887296040E-005
                    23 -3.190985579195020E-004
                    24  3.426916735556280E-012
                    25  1.811841970835886E-004
                    26 -9.265596255712302E-013
                    27 -5.590697492152647E-006
                    28 -1.729053399087324E-006
                    29 -5.553461994980320E-013
                    30 -5.241112076442767E-013
                    31 -2.917882074284726E-006
                    32   1.00105966854054     
                    33  9.301546353278709E-003
                    34  2.632836160819770E-003
                    35 -7.780539747266320E-003
                    36 -1.663324419105240E-012
                    37 -5.866293041657620E-007
                    38 -4.178492638436940E-003
                    39 -1.011610600920690E-011
                    40 -5.895203147762990E-006
                    41  1.012725661924020E-003
                    42 -1.249677265067820E-011
                    43  2.390536537073940E-005
                    44  4.440375362135670E-003
                    45  4.774255044661316E-004
                    46  4.193196088507110E-013
                    47 -2.644323920937750E-006
                    48 -4.299560706011140E-004
                    49  1.611375451937110E-012
                    50  5.709887472821248E-004
                    51 -1.310595977524500E-011
                    52  2.796549408323640E-005
                    53  9.326866670572540E-004
                    54 -4.534343844755060E-012
                    55  3.864003626018984E-004
                    56  3.011941164528617E-012
                    57 -2.540221377284630E-006
                    58 -2.049918314425060E-004
                    59  1.378381542056870E-012
                    60 -1.972747541690251E-012
                    61  1.652127102685258E-007
                    62  7.199896663845490E-003
                    63 -2.059306665047300E-003
                    64 -2.752321128970350E-004
                    65  3.037994623170430E-003
                    66 -6.414886785164890E-012
                    67  8.646338250550749E-005
                    68  1.703486368759230E-006
                    69  7.810465695863600E-012
                    70  6.095511799901441E-004
                    71  1.898816120381250E-005
                    72  1.149410682314800E-011
                    73 -2.081527626497330E-003
                    74  8.623520844981021E-005
                    75 -1.405215237238257E-005
                    76  1.118513784915890E-012
                    77  1.296805121641190E-005
                    78  2.945218232247400E-005
                    79 -4.463964765323130E-012
                    80  7.529913366735010E-004
                    81 -2.685125483005380E-012
                    82 -4.154619466084560E-004
                    83 -1.538025037222124E-005
                    84  1.169905100805930E-011
                    85  7.335619778459555E-005
                    86 -2.812507894297400E-012
                    87  4.586689553147548E-005
                    88 -1.277048193489848E-004
                    89 -2.593705194735720E-012
                    90  1.239138035204316E-012
                    91  5.057249627262735E-005
                    92  7.221313067099200E-003
                    93 -2.068125442197850E-003
                    94 -2.755226181178320E-004
                    95  3.029236553460080E-003
                    96 -7.474592610773911E-012
                    97 -8.500695568342869E-005
                    98  3.341316062290070E-006
                    99  1.007290976439840E-011
                   100 -5.931692720166780E-004
                   101  2.227995823697350E-005
                   102  1.231529669068400E-011
                   103  2.103276607488020E-003
                   104  1.131420392917360E-004
                   105 -1.502167412697508E-005
                   106  3.773350166256300E-012
                   107 -1.420146687897690E-005
                   108  2.948201846491220E-005
                   109  9.348754147526270E-013
                   110  7.692102591486899E-004
                   111 -7.209361826215000E-012
                   112  4.201361567509270E-004
                   113 -1.012316190841536E-005
                   114 -9.468251258114160E-012
                   115  7.367047989093637E-005
                   116 -3.687277060094627E-013
                   117 -4.629639297373920E-005
                   118 -1.271266214434248E-004
                   119 -8.386881791478070E-013
                   120  5.854661599635276E-012
                   121 -4.945274676770820E-005
                   122 -2.320735996418280E-004
                   123 -7.475303356407220E-004
                   124  2.242901693574120E-004
                   125 -1.080757908753770E-004
                   126  1.951776259040840E-011
                   127 -1.647295246310750E-005
                   128 -2.631459630917810E-004
                   129 -1.300724169881590E-011
                   130 -1.614260596938600E-005
                   131  5.314710978600111E-004
                   132 -1.285466152112040E-011
                   133  3.205583345938890E-004
                   134  7.379465294810540E-004
                   135 -1.377646931964143E-005
                   136  2.171460471397010E-012
                   137  5.181620341809530E-005
                   138  1.410389945329648E-005
                   139 -4.094098494459580E-012
                   140 -2.871219914337545E-004
                   141 -6.309063947713200E-012
                   142 -2.160018881492200E-004
                   143 -1.216775505103812E-005
                   144 -1.387893482452710E-014
                   145  1.157784922888748E-006
                   146 -3.485134217474273E-013
                   147 -4.169547737145186E-005
                   148 -3.980039799808500E-005
                   149  9.571692305230930E-013
                   150  1.497387705243668E-013
                   151 -5.463184279705987E-006
                   152 -2.309160800423150E-004
                   153 -7.501583065272860E-004
                   154  2.250069115475170E-004
                   155 -1.139836913698450E-004
                   156 -1.987419676032700E-012
                   157  1.748643025541370E-005
                   158 -2.630097682694490E-004
                   159  1.063187774397320E-011
                   160  8.619652421751791E-006