[Molden Format]
[Atoms] AU
  N     1    7    -4.4519150800    0.1645695100   -0.0000004400        
  C     2    6    -1.7695092000   -0.0145096000   -0.0000001700        
  C     3    6    -0.4270927200   -0.0061402300   -2.2691546100        
  C     4    6    -0.4270931100   -0.0061391100    2.2691544900        
  C     5    6     2.1889955900   -0.0004823800   -2.2566388900        
  C     6    6     2.1889952100   -0.0004812700    2.2566392100        
  C     7    6     3.5149715000    0.0022090000    0.0000002700        
  H     8    1    -5.4565260000   -1.0366484800   -2.1323980000        
  H     9    1    -5.3130104600   -0.8650450100    1.8277692600        
  H    10    1    -1.4305344500   -0.0005073500   -4.0318143700        
  H    11    1    -1.4305351200   -0.0005053700    4.0318140800        
  H    12    1     3.1914120400   -0.0010699000   -4.0209976100        
  H    13    1     3.1914113700   -0.0010679200    4.0209980900        
  H    14    1     5.5428332300    0.0050250700    0.0000004400        
[5D]
[7F]
[GTO]
  1  0
   s    12 1.00
  0.114200D+05  0.172695D-04
  0.171200D+04  0.134411D-03
  0.389300D+03  0.694561D-03
  0.110000D+03  0.278531D-02
  0.355700D+02  0.863457D-02
  0.125400D+02  0.199805D-01
  0.464400D+01  0.262908D-01
  0.129300D+01 -0.243845D-01
  0.511800D+00 -0.924934D-01
  0.178700D+00 -0.339683D+00
  0.246240D-01  0.345111D+00
  0.112530D-01  0.752750D+00
   s    10 1.00
  0.114200D+05  0.523000D-03
  0.171200D+04  0.404500D-02
  0.389300D+03  0.207750D-01
  0.110000D+03  0.807269D-01
  0.355700D+02  0.233074D+00
  0.125400D+02  0.433501D+00
  0.464400D+01  0.347472D+00
  0.129300D+01  0.412620D-01
  0.511800D+00 -0.850799D-02
  0.178700D+00  0.238400D-02
   s    10 1.00
  0.114200D+05 -0.115000D-03
  0.171200D+04 -0.895000D-03
  0.389300D+03 -0.462400D-02
  0.110000D+03 -0.185280D-01
  0.355700D+02 -0.573390D-01
  0.125400D+02 -0.132076D+00
  0.464400D+01 -0.172510D+00
  0.129300D+01  0.151814D+00
  0.511800D+00  0.599944D+00
  0.178700D+00  0.387462D+00
   s     1 1.00
  0.129300D+01  0.100000D+01
   s     1 1.00
  0.178700D+00  0.100000D+01
   p     5 1.00
  0.266300D+02  0.146700D-01
  0.594800D+01  0.917640D-01
  0.174200D+01  0.298683D+00
  0.555000D+00  0.498487D+00
  0.172500D+00  0.337023D+00
   p     1 1.00
  0.174200D+01  0.100000D+01
   p     1 1.00
  0.555000D+00  0.100000D+01
   d     1 1.00
  0.165400D+01  0.100000D+01
   d     1 1.00
  0.469000D+00  0.100000D+01
   f     1 1.00
  0.109300D+01  0.100000D+01
  
  2  0
   s    10 1.00
  0.823600D+04  0.531000D-03
  0.123500D+04  0.410800D-02
  0.280800D+03  0.210870D-01
  0.792700D+02  0.818530D-01
  0.255900D+02  0.234817D+00
  0.899700D+01  0.434401D+00
  0.331900D+01  0.346129D+00
  0.905900D+00  0.393780D-01
  0.364300D+00 -0.898300D-02
  0.128500D+00  0.238500D-02
   s    10 1.00
  0.823600D+04 -0.113000D-03
  0.123500D+04 -0.878000D-03
  0.280800D+03 -0.454000D-02
  0.792700D+02 -0.181330D-01
  0.255900D+02 -0.557600D-01
  0.899700D+01 -0.126895D+00
  0.331900D+01 -0.170352D+00
  0.905900D+00  0.140382D+00
  0.364300D+00  0.598684D+00
  0.128500D+00  0.395389D+00
   s     1 1.00
  0.905900D+00  0.100000D+01
   s     1 1.00
  0.364300D+00  0.100000D+01
   p     5 1.00
  0.187100D+02  0.140310D-01
  0.413300D+01  0.868660D-01
  0.120000D+01  0.290216D+00
  0.382700D+00  0.501008D+00
  0.120900D+00  0.343406D+00
   p     1 1.00
  0.382700D+00  0.100000D+01
   p     1 1.00
  0.120900D+00  0.100000D+01
   d     1 1.00
  0.109700D+01  0.100000D+01
   d     1 1.00
  0.318000D+00  0.100000D+01
   f     1 1.00
  0.761000D+00  0.100000D+01
  
  3  0
   s    10 1.00
  0.823600D+04  0.531000D-03
  0.123500D+04  0.410800D-02
  0.280800D+03  0.210870D-01
  0.792700D+02  0.818530D-01
  0.255900D+02  0.234817D+00
  0.899700D+01  0.434401D+00
  0.331900D+01  0.346129D+00
  0.905900D+00  0.393780D-01
  0.364300D+00 -0.898300D-02
  0.128500D+00  0.238500D-02
   s    10 1.00
  0.823600D+04 -0.113000D-03
  0.123500D+04 -0.878000D-03
  0.280800D+03 -0.454000D-02
  0.792700D+02 -0.181330D-01
  0.255900D+02 -0.557600D-01
  0.899700D+01 -0.126895D+00
  0.331900D+01 -0.170352D+00
  0.905900D+00  0.140382D+00
  0.364300D+00  0.598684D+00
  0.128500D+00  0.395389D+00
   s     1 1.00
  0.905900D+00  0.100000D+01
   s     1 1.00
  0.364300D+00  0.100000D+01
   p     5 1.00
  0.187100D+02  0.140310D-01
  0.413300D+01  0.868660D-01
  0.120000D+01  0.290216D+00
  0.382700D+00  0.501008D+00
  0.120900D+00  0.343406D+00
   p     1 1.00
  0.382700D+00  0.100000D+01
   p     1 1.00
  0.120900D+00  0.100000D+01
   d     1 1.00
  0.109700D+01  0.100000D+01
   d     1 1.00
  0.318000D+00  0.100000D+01
   f     1 1.00
  0.761000D+00  0.100000D+01
  
  4  0
   s    10 1.00
  0.823600D+04  0.531000D-03
  0.123500D+04  0.410800D-02
  0.280800D+03  0.210870D-01
  0.792700D+02  0.818530D-01
  0.255900D+02  0.234817D+00
  0.899700D+01  0.434401D+00
  0.331900D+01  0.346129D+00
  0.905900D+00  0.393780D-01
  0.364300D+00 -0.898300D-02
  0.128500D+00  0.238500D-02
   s    10 1.00
  0.823600D+04 -0.113000D-03
  0.123500D+04 -0.878000D-03
  0.280800D+03 -0.454000D-02
  0.792700D+02 -0.181330D-01
  0.255900D+02 -0.557600D-01
  0.899700D+01 -0.126895D+00
  0.331900D+01 -0.170352D+00
  0.905900D+00  0.140382D+00
  0.364300D+00  0.598684D+00
  0.128500D+00  0.395389D+00
   s     1 1.00
  0.905900D+00  0.100000D+01
   s     1 1.00
  0.364300D+00  0.100000D+01
   p     5 1.00
  0.187100D+02  0.140310D-01
  0.413300D+01  0.868660D-01
  0.120000D+01  0.290216D+00
  0.382700D+00  0.501008D+00
  0.120900D+00  0.343406D+00
   p     1 1.00
  0.382700D+00  0.100000D+01
   p     1 1.00
  0.120900D+00  0.100000D+01
   d     1 1.00
  0.109700D+01  0.100000D+01
   d     1 1.00
  0.318000D+00  0.100000D+01
   f     1 1.00
  0.761000D+00  0.100000D+01
  
  5  0
   s    10 1.00
  0.823600D+04  0.531000D-03
  0.123500D+04  0.410800D-02
  0.280800D+03  0.210870D-01
  0.792700D+02  0.818530D-01
  0.255900D+02  0.234817D+00
  0.899700D+01  0.434401D+00
  0.331900D+01  0.346129D+00
  0.905900D+00  0.393780D-01
  0.364300D+00 -0.898300D-02
  0.128500D+00  0.238500D-02
   s    10 1.00
  0.823600D+04 -0.113000D-03
  0.123500D+04 -0.878000D-03
  0.280800D+03 -0.454000D-02
  0.792700D+02 -0.181330D-01
  0.255900D+02 -0.557600D-01
  0.899700D+01 -0.126895D+00
  0.331900D+01 -0.170352D+00
  0.905900D+00  0.140382D+00
  0.364300D+00  0.598684D+00
  0.128500D+00  0.395389D+00
   s     1 1.00
  0.905900D+00  0.100000D+01
   s     1 1.00
  0.364300D+00  0.100000D+01
   p     5 1.00
  0.187100D+02  0.140310D-01
  0.413300D+01  0.868660D-01
  0.120000D+01  0.290216D+00
  0.382700D+00  0.501008D+00
  0.120900D+00  0.343406D+00
   p     1 1.00
  0.382700D+00  0.100000D+01
   p     1 1.00
  0.120900D+00  0.100000D+01
   d     1 1.00
  0.109700D+01  0.100000D+01
   d     1 1.00
  0.318000D+00  0.100000D+01
   f     1 1.00
  0.761000D+00  0.100000D+01
  
  6  0
   s    10 1.00
  0.823600D+04  0.531000D-03
  0.123500D+04  0.410800D-02
  0.280800D+03  0.210870D-01
  0.792700D+02  0.818530D-01
  0.255900D+02  0.234817D+00
  0.899700D+01  0.434401D+00
  0.331900D+01  0.346129D+00
  0.905900D+00  0.393780D-01
  0.364300D+00 -0.898300D-02
  0.128500D+00  0.238500D-02
   s    10 1.00
  0.823600D+04 -0.113000D-03
  0.123500D+04 -0.878000D-03
  0.280800D+03 -0.454000D-02
  0.792700D+02 -0.181330D-01
  0.255900D+02 -0.557600D-01
  0.899700D+01 -0.126895D+00
  0.331900D+01 -0.170352D+00
  0.905900D+00  0.140382D+00
  0.364300D+00  0.598684D+00
  0.128500D+00  0.395389D+00
   s     1 1.00
  0.905900D+00  0.100000D+01
   s     1 1.00
  0.364300D+00  0.100000D+01
   p     5 1.00
  0.187100D+02  0.140310D-01
  0.413300D+01  0.868660D-01
  0.120000D+01  0.290216D+00
  0.382700D+00  0.501008D+00
  0.120900D+00  0.343406D+00
   p     1 1.00
  0.382700D+00  0.100000D+01
   p     1 1.00
  0.120900D+00  0.100000D+01
   d     1 1.00
  0.109700D+01  0.100000D+01
   d     1 1.00
  0.318000D+00  0.100000D+01
   f     1 1.00
  0.761000D+00  0.100000D+01
  
  7  0
   s    10 1.00
  0.823600D+04  0.531000D-03
  0.123500D+04  0.410800D-02
  0.280800D+03  0.210870D-01
  0.792700D+02  0.818530D-01
  0.255900D+02  0.234817D+00
  0.899700D+01  0.434401D+00
  0.331900D+01  0.346129D+00
  0.905900D+00  0.393780D-01
  0.364300D+00 -0.898300D-02
  0.128500D+00  0.238500D-02
   s    10 1.00
  0.823600D+04 -0.113000D-03
  0.123500D+04 -0.878000D-03
  0.280800D+03 -0.454000D-02
  0.792700D+02 -0.181330D-01
  0.255900D+02 -0.557600D-01
  0.899700D+01 -0.126895D+00
  0.331900D+01 -0.170352D+00
  0.905900D+00  0.140382D+00
  0.364300D+00  0.598684D+00
  0.128500D+00  0.395389D+00
   s     1 1.00
  0.905900D+00  0.100000D+01
   s     1 1.00
  0.364300D+00  0.100000D+01
   p     5 1.00
  0.187100D+02  0.140310D-01
  0.413300D+01  0.868660D-01
  0.120000D+01  0.290216D+00
  0.382700D+00  0.501008D+00
  0.120900D+00  0.343406D+00
   p     1 1.00
  0.382700D+00  0.100000D+01
   p     1 1.00
  0.120900D+00  0.100000D+01
   d     1 1.00
  0.109700D+01  0.100000D+01
   d     1 1.00
  0.318000D+00  0.100000D+01
   f     1 1.00
  0.761000D+00  0.100000D+01
  
  8  0
   s     4 1.00
  0.130100D+02  0.196850D-01
  0.196200D+01  0.137977D+00
  0.444600D+00  0.478148D+00
  0.122000D+00  0.501240D+00
   s     1 1.00
  0.122000D+00  0.100000D+01
   p     1 1.00
  0.727000D+00  0.100000D+01
  
  9  0
   s     4 1.00
  0.130100D+02  0.196850D-01
  0.196200D+01  0.137977D+00
  0.444600D+00  0.478148D+00
  0.122000D+00  0.501240D+00
   s     1 1.00
  0.122000D+00  0.100000D+01
   p     1 1.00
  0.727000D+00  0.100000D+01
  
 10  0
   s     4 1.00
  0.130100D+02  0.196850D-01
  0.196200D+01  0.137977D+00
  0.444600D+00  0.478148D+00
  0.122000D+00  0.501240D+00
   s     1 1.00
  0.122000D+00  0.100000D+01
   p     1 1.00
  0.727000D+00  0.100000D+01
  
 11  0
   s     4 1.00
  0.130100D+02  0.196850D-01
  0.196200D+01  0.137977D+00
  0.444600D+00  0.478148D+00
  0.122000D+00  0.501240D+00
   s     1 1.00
  0.122000D+00  0.100000D+01
   p     1 1.00
  0.727000D+00  0.100000D+01
  
 12  0
   s     4 1.00
  0.130100D+02  0.196850D-01
  0.196200D+01  0.137977D+00
  0.444600D+00  0.478148D+00
  0.122000D+00  0.501240D+00
   s     1 1.00
  0.122000D+00  0.100000D+01
   p     1 1.00
  0.727000D+00  0.100000D+01
  
 13  0
   s     4 1.00
  0.130100D+02  0.196850D-01
  0.196200D+01  0.137977D+00
  0.444600D+00  0.478148D+00
  0.122000D+00  0.501240D+00
   s     1 1.00
  0.122000D+00  0.100000D+01
   p     1 1.00
  0.727000D+00  0.100000D+01
  
 14  0
   s     4 1.00
  0.130100D+02  0.196850D-01
  0.196200D+01  0.137977D+00
  0.444600D+00  0.478148D+00
  0.122000D+00  0.501240D+00
   s     1 1.00
  0.122000D+00  0.100000D+01
   p     1 1.00
  0.727000D+00  0.100000D+01
  
[MO]
 Sym= __1_A__
 Ene=   1.00000000000000     
 Spin= Alpha
 Occup=    1.00000000000000     
                     1  1.489316175215532E-004
                     2  0.998651638267350     
                     3 -1.720336199629940E-003
                     4  1.300211935914781E-003
                     5  6.503434811083888E-003
                     6  6.462350020227586E-003
                     7 -3.835240414361383E-003
                     8  1.141003881673002E-003
                     9 -9.988901019214217E-004
                    10  3.803463284241938E-004
                    11 -2.090498579229336E-004
                    12 -2.453826669059711E-003
                    13  2.753814954822835E-003
                    14 -9.062225493251388E-004
                    15 -9.360978521322751E-005
                    16 -1.904221152683632E-005
                    17  4.608153602962504E-006
                    18  6.276587550649656E-005
                    19  2.080734572731515E-006
                    20 -2.656576497746400E-004
                    21  1.566995174421525E-004
                    22  1.723459783565381E-005
                    23  4.851772767808460E-005
                    24 -3.933607773762637E-004
                    25  9.288267593957560E-006
                    26 -7.368042501705595E-005
                    27  4.997715484341446E-006
                    28  2.673891501086392E-006
                    29 -5.707393836974486E-006
                    30 -4.896666336965767E-005
                    31 -5.082897381241474E-005
                    32 -3.202877719106356E-004
                    33  2.251597050656761E-004
                    34  2.772163140986470E-004
                    35 -2.060260706389989E-004
                    36 -2.413337439896890E-003
                    37 -7.628055034411281E-005
                    38 -6.701143940980898E-005
                    39 -8.874256188830020E-005
                    40 -7.322678367727517E-007
                    41  2.323303328879417E-004
                    42  5.250315745776975E-003
                    43  6.492468940116370E-004
                    44 -6.885875575090086E-004
                    45 -1.519011603006451E-004
                    46  3.165395837416397E-008
                    47  4.501038526368497E-006
                    48  1.324869008262783E-004
                    49  3.247223895824640E-005
                    50  2.335484360378086E-004
                    51  2.493695484180190E-004
                    52 -2.377904181545276E-005
                    53 -5.813022010569892E-007
                    54 -3.101962831502017E-004
                    55 -1.801978355083663E-006
                    56 -5.929986969826308E-005
                    57  4.410564741538536E-006
                    58  7.595506812502254E-006
                    59 -1.217907604885368E-006
                    60 -4.161870029238785E-005
                    61  3.985453218904757E-005
                    62 -4.750519655152243E-004
                    63 -1.804512841150925E-003
                    64  1.395090620748511E-005
                    65  1.512380692140448E-003
                    66  1.291370369681123E-004
                    67 -1.351557742051977E-004
                    68 -3.432519320512299E-004
                    69  5.606676251635339E-004
                    70  4.583473235870133E-005
                    71  2.952796892159533E-004
                    72 -1.934491753463615E-004
                    73 -2.640580975235626E-004
                    74 -1.302152503943628E-003
                    75 -3.708927708318642E-005
                    76 -2.164123628685331E-005
                    77  1.415418826497484E-005
                    78  6.133052297518469E-005
                    79 -8.514273764980014E-006
                    80  1.794922636111917E-004
                    81  1.114463325512901E-005
                    82 -3.395811075968859E-005
                    83 -3.635788568358150E-005
                    84  5.219319575332909E-005
                    85 -1.445672461674713E-005
                    86 -9.027539149511054E-005
                    87  1.511996022239023E-005
                    88 -4.937893524806812E-006
                    89  1.335354028052114E-005
                    90 -5.622396977204572E-005
                    91 -8.901390664832550E-006
                    92 -3.396553462736571E-004
                    93 -1.344985901262970E-003
                    94  1.167347097132010E-004
                    95  6.620542952945949E-004
                    96  1.714153749980250E-004
                    97 -1.608134198720165E-004
                    98  3.020525649951326E-004
                    99  4.562322788300692E-004
                   100  9.874041751030379E-005
                   101  1.780440294761429E-005
                   102 -9.062747315054527E-004
                   103 -3.202167247415545E-004
                   104  9.751815281463118E-004
                   105 -4.066892581171476E-005
                   106  3.760058267623316E-006
                   107 -1.684956903643122E-005
                   108  4.911653487769492E-005
                   109 -1.267368706556736E-005
                   110  5.513033605825621E-005
                   111 -2.635574249649239E-005
                   112  2.602929507619507E-005
                   113 -8.144247517023858E-005
                   114  5.389267770174375E-005
                   115  9.345342686755601E-006
                   116 -4.868569945267971E-005
                   117  1.608541865195144E-005
                   118  1.040716644519912E-005
                   119 -8.614772927235488E-006
                   120 -4.306371839466545E-005
                   121 -9.317323578027415E-006
                   122 -2.492921941391637E-004
                   123 -6.687207722707303E-004
                   124  8.264909869983887E-005
                   125  6.578248443226144E-004
                   126 -2.690429956691951E-004
                   127 -9.713757710147649E-005
                   128 -1.582583717168637E-005
                   129  3.129882762761482E-004
                   130 -2.128543683379740E-005
                   131  1.309674286089518E-004
                   132  1.240893542969078E-003
                   133  1.228693525521507E-004
                   134 -1.152352170063623E-004
                   135  1.822075090941479E-005
                   136 -2.577213771611516E-006
                   137 -5.138387562936878E-006
                   138 -8.664573613047751E-006
                   139  7.282991498297931E-006
                   140  1.139308745703474E-004
                   141  1.705675452615967E-004
                   142  7.643517958074700E-006
                   143 -2.524767955886568E-004
                   144 -6.048009081172568E-006
                   145 -1.327756673557526E-005
                   146 -2.190169821358104E-005
                   147  1.791166276614271E-006
                   148 -1.233860755183802E-006
                   149 -2.108091428255694E-006
                   150 -5.611251535843406E-005
                   151 -2.519899566756957E-006
                   152 -2.156298705673308E-004
                   153 -5.685985468816571E-004
                   154  4.329190182173399E-005
                   155  6.147471273377600E-004
                   156 -2.401182615211367E-004
                   157 -9.307672908211813E-005
                   158  2.552910778549774E-006
                   159  1.520283618843328E-004
                   160 -3.360652730959984E-005
                   161 -5.043749633519144E-005
                   162  5.180678054441691E-004
                   163  1.555275434405764E-004
                   164  4.062198291952903E-004
                   165  6.652361014433972E-006
                   166  5.047820584383324E-006
                   167  5.302050545867159E-006
                   168  1.374845082983199E-006
                   169  1.065290831802711E-005
                   170  5.226471834603811E-005
                   171 -1.019924597096378E-004
                   172 -9.655234361226555E-006
                   173 -1.645592442253845E-004
                   174 -9.378271879572630E-006
                   175  1.173597066337340E-006
                   176 -1.544580549588859E-005
                   177  2.968721870222312E-006
                   178 -6.647080721900022E-006
                   179  1.930309387739513E-006
                   180 -3.769478986871591E-005
                   181 -4.414840953404484E-006
                   182 -1.484799344089534E-004
                   183 -4.573273500085035E-004
                   184  3.990447857482699E-005
                   185  2.172601614224518E-004
                   186 -3.369299977703232E-005
                   187 -1.021277047062365E-004
                   188 -1.268028224602054E-005
                   189  1.181251123418393E-004
                   190  1.509917126863741E-005
                   191  6.662598019733078E-005
                   192 -4.021184072624297E-004
                   193 -8.998926241404603E-005
                   194  4.004009789987048E-004
                   195 -4.855240785617970E-006
                   196  1.685617451604255E-006
                   197  1.178803480083780E-006
                   198  1.883587480924399E-006
                   199 -4.411224129989394E-007
                   200 -1.085045638220758E-004
                   201 -5.937227678832041E-005
                   202 -3.540729119642988E-006
                   203  4.292468771266686E-005
                   204  1.780848333618456E-005
                   205  1.746398887155131E-006
                   206  6.718210282387174E-006
                   207  1.951773761197510E-006
                   208  4.360094214678102E-006
                   209  2.751584888730978E-007
                   210 -6.081386669796713E-006
                   211 -3.272856906343920E-006
                   212 -1.532242861887686E-004
                   213 -2.506200094088968E-004
                   214  6.720036213800393E-005
                   215  1.645760605439051E-004
                   216  1.057439100014599E-004
                   217  2.347339518724590E-005
                   218 -7.141275829540754E-004
                   219  9.987263948200322E-005
                   220  2.052312106024125E-004
                   221 -2.243697256799283E-004
                   222 -2.381520431641896E-004
                   223 -6.102011090537640E-004
                   224 -6.281427853058302E-005
                   225  7.439880924352317E-006
                   226  4.307447328496527E-005
                   227 -1.737238801114378E-004
                   228 -5.903321363632852E-004
                   229 -4.511691465207688E-005
                   230  9.882587112759456E-006
                   231 -4.624340161082385E-005
                   232  4.742561075892667E-006
                   233 -5.159179727405714E-004
                   234 -3.142448774145760E-006
                   235 -1.764120086007594E-006
                   236  5.684329847706702E-007
                   237 -2.587816686605336E-005
                   238 -4.491681741935549E-004
                   239  7.573560506737209E-007
                   240 -2.755621951215428E-006
                   241  3.815717267599920E-006
                   242 -3.036406720315061E-005
                   243  1.194772986509300E-004
                   244  3.115911648840350E-005
                   245  6.795660404708702E-007
                   246 -6.962344162603336E-008
 Sym= __2_A__
 Ene=   2.00000000000000     
 Spin= Alpha
 Occup=    1.00000000000000     
                     1 -3.665052675884120E-005
                     2 -1.545338148415490E-004
                     3  2.403772384912136E-003
                     4  1.506076420436307E-005
                     5  1.165190051633324E-003
                     6  2.184695271631702E-003
                     7 -5.513498920309899E-005
                     8 -1.115469565229997E-004
                     9 -1.326152124767843E-004
                    10  8.965796022643645E-005
                    11 -1.444342636919576E-005
                    12 -1.768140696052248E-005
                    13  4.390302274622929E-005
                    14  1.982166087344967E-005
                    15 -7.360647007182638E-005
                    16 -2.779824847031828E-007
                    17  1.563455787793413E-006
                    18  4.187167476327020E-005
                    19 -1.088999314038819E-005
                    20  1.224990925731597E-004
                    21  8.838773031141058E-006
                    22 -5.595155405574875E-006
                    23  1.053780063059625E-004
                    24 -1.313451149786763E-005
                    25 -3.258995098559386E-006
                    26  1.361005813766366E-004
                    27 -4.440311191094988E-005
                    28 -2.180518186436220E-006
                    29  3.537059950133090E-007
                    30  1.183045171251035E-004
                    31  2.863861068311238E-005
                    32   1.00091136109580     
                    33  8.940227543381507E-003
                    34  2.799282118715437E-003
                    35 -8.267976725186187E-003
                    36 -2.635669652958740E-003
                    37  5.357777468561239E-004
                    38  8.026985520651956E-006
                    39  7.824873292090207E-004
                    40 -2.514474645384364E-004
                    41 -2.008513917108685E-005
                    42  3.486347858790119E-003
                    43 -1.240077399385982E-004
                    44  1.683794195444615E-005
                    45  2.780821272510158E-004
                    46 -3.504932223321104E-006
                    47 -1.993910339711446E-006
                    48  4.271610528758394E-004
                    49 -2.812256365159584E-005
                    50 -1.054999850489005E-003
                    51  8.881645337581525E-006
                    52  2.462841635382262E-006
                    53 -9.779905928891132E-005
                    54  5.217174075579818E-005
                    55  6.833610827346024E-007
                    56  3.119518529400566E-004
                    57 -8.828109077337392E-006
                    58 -1.377492846022824E-006
                    59 -2.522401168174706E-006
                    60  9.908554401002348E-005
                    61  1.338398735802585E-005
                    62  1.373166732209014E-002
                    63 -1.920010521539365E-003
                    64 -3.078786298787943E-004
                    65  3.153879775723189E-003
                    66 -6.864300846695622E-005
                    67  4.903171626566661E-005
                    68  1.879168955173948E-004
                    69  2.184460650443280E-005
                    70 -1.159981718268744E-006
                    71  5.670301830927868E-004
                    72  1.409283725650376E-004
                    73 -2.389004258184256E-005
                    74 -1.828749629566027E-003
                    75 -1.476042922415895E-005
                    76  2.035721793278243E-005
                    77  5.923209019655715E-006
                    78 -3.213389261338130E-005
                    79 -3.095275062399099E-006
                    80 -3.960771681266467E-004
                    81 -4.354862255070414E-004
                    82 -6.178073775551199E-006
                    83  7.472503395291614E-004
                    84 -3.734589863457559E-006
                    85  4.956487175187871E-005
                    86  1.142115725874352E-004
                    87 -8.030288247281994E-007
                    88 -1.702048021817347E-005
                    89 -6.565092386913906E-006
                    90 -3.075360411233953E-005
                    91  4.192718596088855E-006
                    92  1.479172385112376E-002
                    93 -1.918781882640749E-003
                    94 -3.058654956657559E-004
                    95  3.152775704698419E-003
                    96 -6.808664799207612E-005
                    97  4.647309279363574E-005
                    98 -1.772644402635780E-004
                    99  1.619000231224659E-005
                   100 -1.862521563539900E-006
                   101 -5.709317183515834E-004
                   102  1.501312495754415E-004
                   103 -2.344455037932453E-005
                   104  1.827516354494365E-003
                   105 -1.385587970554959E-005
                   106 -2.068643109399578E-005
                   107 -6.062098561386697E-006
                   108 -3.213735845306274E-005
                   109 -3.108680345439416E-006
                   110 -3.962997071979938E-004
                   111  4.428789675567640E-004
                   112  6.905668789803564E-006
                   113  7.498608004902732E-004
                   114 -3.251822170034956E-006
                   115 -4.906256580928693E-005
                   116  1.135579549345587E-004
                   117 -2.946522880711119E-007
                   118  1.595950546698968E-005
                   119  6.474219625127881E-006
                   120 -3.031997913383854E-005
                   121  4.002825972218301E-006
                   122 -8.927328935941754E-005
                   123 -6.749113100083931E-004
                   124  2.497845076539762E-004
                   125 -2.968646619983856E-004
                   126 -2.543723367975516E-004
                   127  1.457672470178516E-006
                   128 -3.337984059541869E-005
                   129  6.036811258616064E-004
                   130  3.356065972886921E-007
                   131  1.962802232519684E-005
                   132  5.961917288783776E-004
                   133  1.006903848025664E-005
                   134  3.183724847522217E-004
                   135 -7.297660663672784E-007
                   136  4.236503671079359E-005
                   137  1.219884443188556E-007
                   138 -3.244663065297684E-005
                   139 -3.754029417866589E-007
                   140  1.861226431718956E-004
                   141 -2.321197847916428E-004
                   142  1.177102956855552E-006
                   143 -2.612196935707760E-004
                   144 -3.927932390953073E-006
                   145 -1.980798504279132E-005
                   146  1.672582046303578E-005
                   147 -1.498253379644888E-007
                   148 -1.581297561204052E-005
                   149 -1.956491619676819E-006
                   150 -2.670625972425594E-005
                   151 -7.480427968511555E-007
                   152 -6.204608457893806E-005
                   153 -6.791343886225654E-004
                   154  2.496229160836930E-004
                   155 -2.935421889070999E-004
                   156 -2.512732264210644E-004
                   157 -3.118253520028882E-007
                   158  3.346495887215096E-005
                   159  6.022452776170768E-004
                   160  3.412296272362764E-007