[Molden Format]
[Atoms] AU
  N     1    7    -0.1011941400   -4.3512494900    0.0000000000        
  C     2    6     0.0282391700   -1.8267526300    0.0000000000        
  C     3    6    -2.2960367100   -0.4276691000    0.0000000000        
  C     4    6     2.3308041600   -0.4033549200    0.0000000000        
  C     5    6    -2.2775585500    2.1564588500    0.0000000000        
  C     6    6     2.2976090300    2.1837394900    0.0000000000        
  C     7    6     0.0037433700    3.4920195700    0.0000000000        
  H     8    1    -3.2406084800   -6.4556109400    0.0000000000        
  H     9    1     1.6946459800   -5.0888234800    0.0000000000        
  H    10    1    -4.0315738300   -1.4686194800    0.0000000000        
  H    11    1     4.0947164300   -1.4072360400    0.0000000000        
  H    12    1    -4.0306803300    3.1787199600    0.0000000000        
  H    13    1     4.0427565200    3.2191342000    0.0000000000        
  H    14    1    -0.0072089500    5.5197149700    0.0000000000        
[5D]
[7F]
[GTO]
  1  0
   s    12 1.00
  0.114200D+05  0.172695D-04
  0.171200D+04  0.134411D-03
  0.389300D+03  0.694561D-03
  0.110000D+03  0.278531D-02
  0.355700D+02  0.863457D-02
  0.125400D+02  0.199805D-01
  0.464400D+01  0.262908D-01
  0.129300D+01 -0.243845D-01
  0.511800D+00 -0.924934D-01
  0.178700D+00 -0.339683D+00
  0.246240D-01  0.345111D+00
  0.112530D-01  0.752750D+00
   s    10 1.00
  0.114200D+05  0.523000D-03
  0.171200D+04  0.404500D-02
  0.389300D+03  0.207750D-01
  0.110000D+03  0.807269D-01
  0.355700D+02  0.233074D+00
  0.125400D+02  0.433501D+00
  0.464400D+01  0.347472D+00
  0.129300D+01  0.412620D-01
  0.511800D+00 -0.850799D-02
  0.178700D+00  0.238400D-02
   s    10 1.00
  0.114200D+05 -0.115000D-03
  0.171200D+04 -0.895000D-03
  0.389300D+03 -0.462400D-02
  0.110000D+03 -0.185280D-01
  0.355700D+02 -0.573390D-01
  0.125400D+02 -0.132076D+00
  0.464400D+01 -0.172510D+00
  0.129300D+01  0.151814D+00
  0.511800D+00  0.599944D+00
  0.178700D+00  0.387462D+00
   s     1 1.00
  0.129300D+01  0.100000D+01
   s     1 1.00
  0.178700D+00  0.100000D+01
   p     5 1.00
  0.266300D+02  0.146700D-01
  0.594800D+01  0.917640D-01
  0.174200D+01  0.298683D+00
  0.555000D+00  0.498487D+00
  0.172500D+00  0.337023D+00
   p     1 1.00
  0.174200D+01  0.100000D+01
   p     1 1.00
  0.555000D+00  0.100000D+01
   d     1 1.00
  0.165400D+01  0.100000D+01
   d     1 1.00
  0.469000D+00  0.100000D+01
   f     1 1.00
  0.109300D+01  0.100000D+01
  
  2  0
   s    10 1.00
  0.823600D+04  0.531000D-03
  0.123500D+04  0.410800D-02
  0.280800D+03  0.210870D-01
  0.792700D+02  0.818530D-01
  0.255900D+02  0.234817D+00
  0.899700D+01  0.434401D+00
  0.331900D+01  0.346129D+00
  0.905900D+00  0.393780D-01
  0.364300D+00 -0.898300D-02
  0.128500D+00  0.238500D-02
   s    10 1.00
  0.823600D+04 -0.113000D-03
  0.123500D+04 -0.878000D-03
  0.280800D+03 -0.454000D-02
  0.792700D+02 -0.181330D-01
  0.255900D+02 -0.557600D-01
  0.899700D+01 -0.126895D+00
  0.331900D+01 -0.170352D+00
  0.905900D+00  0.140382D+00
  0.364300D+00  0.598684D+00
  0.128500D+00  0.395389D+00
   s     1 1.00
  0.905900D+00  0.100000D+01
   s     1 1.00
  0.364300D+00  0.100000D+01
   p     5 1.00
  0.187100D+02  0.140310D-01
  0.413300D+01  0.868660D-01
  0.120000D+01  0.290216D+00
  0.382700D+00  0.501008D+00
  0.120900D+00  0.343406D+00
   p     1 1.00
  0.382700D+00  0.100000D+01
   p     1 1.00
  0.120900D+00  0.100000D+01
   d     1 1.00
  0.109700D+01  0.100000D+01
   d     1 1.00
  0.318000D+00  0.100000D+01
   f     1 1.00
  0.761000D+00  0.100000D+01
  
  3  0
   s    10 1.00
  0.823600D+04  0.531000D-03
  0.123500D+04  0.410800D-02
  0.280800D+03  0.210870D-01
  0.792700D+02  0.818530D-01
  0.255900D+02  0.234817D+00
  0.899700D+01  0.434401D+00
  0.331900D+01  0.346129D+00
  0.905900D+00  0.393780D-01
  0.364300D+00 -0.898300D-02
  0.128500D+00  0.238500D-02
   s    10 1.00
  0.823600D+04 -0.113000D-03
  0.123500D+04 -0.878000D-03
  0.280800D+03 -0.454000D-02
  0.792700D+02 -0.181330D-01
  0.255900D+02 -0.557600D-01
  0.899700D+01 -0.126895D+00
  0.331900D+01 -0.170352D+00
  0.905900D+00  0.140382D+00
  0.364300D+00  0.598684D+00
  0.128500D+00  0.395389D+00
   s     1 1.00
  0.905900D+00  0.100000D+01
   s     1 1.00
  0.364300D+00  0.100000D+01
   p     5 1.00
  0.187100D+02  0.140310D-01
  0.413300D+01  0.868660D-01
  0.120000D+01  0.290216D+00
  0.382700D+00  0.501008D+00
  0.120900D+00  0.343406D+00
   p     1 1.00
  0.382700D+00  0.100000D+01
   p     1 1.00
  0.120900D+00  0.100000D+01
   d     1 1.00
  0.109700D+01  0.100000D+01
   d     1 1.00
  0.318000D+00  0.100000D+01
   f     1 1.00
  0.761000D+00  0.100000D+01
  
  4  0
   s    10 1.00
  0.823600D+04  0.531000D-03
  0.123500D+04  0.410800D-02
  0.280800D+03  0.210870D-01
  0.792700D+02  0.818530D-01
  0.255900D+02  0.234817D+00
  0.899700D+01  0.434401D+00
  0.331900D+01  0.346129D+00
  0.905900D+00  0.393780D-01
  0.364300D+00 -0.898300D-02
  0.128500D+00  0.238500D-02
   s    10 1.00
  0.823600D+04 -0.113000D-03
  0.123500D+04 -0.878000D-03
  0.280800D+03 -0.454000D-02
  0.792700D+02 -0.181330D-01
  0.255900D+02 -0.557600D-01
  0.899700D+01 -0.126895D+00
  0.331900D+01 -0.170352D+00
  0.905900D+00  0.140382D+00
  0.364300D+00  0.598684D+00
  0.128500D+00  0.395389D+00
   s     1 1.00
  0.905900D+00  0.100000D+01
   s     1 1.00
  0.364300D+00  0.100000D+01
   p     5 1.00
  0.187100D+02  0.140310D-01
  0.413300D+01  0.868660D-01
  0.120000D+01  0.290216D+00
  0.382700D+00  0.501008D+00
  0.120900D+00  0.343406D+00
   p     1 1.00
  0.382700D+00  0.100000D+01
   p     1 1.00
  0.120900D+00  0.100000D+01
   d     1 1.00
  0.109700D+01  0.100000D+01
   d     1 1.00
  0.318000D+00  0.100000D+01
   f     1 1.00
  0.761000D+00  0.100000D+01
  
  5  0
   s    10 1.00
  0.823600D+04  0.531000D-03
  0.123500D+04  0.410800D-02
  0.280800D+03  0.210870D-01
  0.792700D+02  0.818530D-01
  0.255900D+02  0.234817D+00
  0.899700D+01  0.434401D+00
  0.331900D+01  0.346129D+00
  0.905900D+00  0.393780D-01
  0.364300D+00 -0.898300D-02
  0.128500D+00  0.238500D-02
   s    10 1.00
  0.823600D+04 -0.113000D-03
  0.123500D+04 -0.878000D-03
  0.280800D+03 -0.454000D-02
  0.792700D+02 -0.181330D-01
  0.255900D+02 -0.557600D-01
  0.899700D+01 -0.126895D+00
  0.331900D+01 -0.170352D+00
  0.905900D+00  0.140382D+00
  0.364300D+00  0.598684D+00
  0.128500D+00  0.395389D+00
   s     1 1.00
  0.905900D+00  0.100000D+01
   s     1 1.00
  0.364300D+00  0.100000D+01
   p     5 1.00
  0.187100D+02  0.140310D-01
  0.413300D+01  0.868660D-01
  0.120000D+01  0.290216D+00
  0.382700D+00  0.501008D+00
  0.120900D+00  0.343406D+00
   p     1 1.00
  0.382700D+00  0.100000D+01
   p     1 1.00
  0.120900D+00  0.100000D+01
   d     1 1.00
  0.109700D+01  0.100000D+01
   d     1 1.00
  0.318000D+00  0.100000D+01
   f     1 1.00
  0.761000D+00  0.100000D+01
  
  6  0
   s    10 1.00
  0.823600D+04  0.531000D-03
  0.123500D+04  0.410800D-02
  0.280800D+03  0.210870D-01
  0.792700D+02  0.818530D-01
  0.255900D+02  0.234817D+00
  0.899700D+01  0.434401D+00
  0.331900D+01  0.346129D+00
  0.905900D+00  0.393780D-01
  0.364300D+00 -0.898300D-02
  0.128500D+00  0.238500D-02
   s    10 1.00
  0.823600D+04 -0.113000D-03
  0.123500D+04 -0.878000D-03
  0.280800D+03 -0.454000D-02
  0.792700D+02 -0.181330D-01
  0.255900D+02 -0.557600D-01
  0.899700D+01 -0.126895D+00
  0.331900D+01 -0.170352D+00
  0.905900D+00  0.140382D+00
  0.364300D+00  0.598684D+00
  0.128500D+00  0.395389D+00
   s     1 1.00
  0.905900D+00  0.100000D+01
   s     1 1.00
  0.364300D+00  0.100000D+01
   p     5 1.00
  0.187100D+02  0.140310D-01
  0.413300D+01  0.868660D-01
  0.120000D+01  0.290216D+00
  0.382700D+00  0.501008D+00
  0.120900D+00  0.343406D+00
   p     1 1.00
  0.382700D+00  0.100000D+01
   p     1 1.00
  0.120900D+00  0.100000D+01
   d     1 1.00
  0.109700D+01  0.100000D+01
   d     1 1.00
  0.318000D+00  0.100000D+01
   f     1 1.00
  0.761000D+00  0.100000D+01
  
  7  0
   s    10 1.00
  0.823600D+04  0.531000D-03
  0.123500D+04  0.410800D-02
  0.280800D+03  0.210870D-01
  0.792700D+02  0.818530D-01
  0.255900D+02  0.234817D+00
  0.899700D+01  0.434401D+00
  0.331900D+01  0.346129D+00
  0.905900D+00  0.393780D-01
  0.364300D+00 -0.898300D-02
  0.128500D+00  0.238500D-02
   s    10 1.00
  0.823600D+04 -0.113000D-03
  0.123500D+04 -0.878000D-03
  0.280800D+03 -0.454000D-02
  0.792700D+02 -0.181330D-01
  0.255900D+02 -0.557600D-01
  0.899700D+01 -0.126895D+00
  0.331900D+01 -0.170352D+00
  0.905900D+00  0.140382D+00
  0.364300D+00  0.598684D+00
  0.128500D+00  0.395389D+00
   s     1 1.00
  0.905900D+00  0.100000D+01
   s     1 1.00
  0.364300D+00  0.100000D+01
   p     5 1.00
  0.187100D+02  0.140310D-01
  0.413300D+01  0.868660D-01
  0.120000D+01  0.290216D+00
  0.382700D+00  0.501008D+00
  0.120900D+00  0.343406D+00
   p     1 1.00
  0.382700D+00  0.100000D+01
   p     1 1.00
  0.120900D+00  0.100000D+01
   d     1 1.00
  0.109700D+01  0.100000D+01
   d     1 1.00
  0.318000D+00  0.100000D+01
   f     1 1.00
  0.761000D+00  0.100000D+01
  
  8  0
   s     4 1.00
  0.130100D+02  0.196850D-01
  0.196200D+01  0.137977D+00
  0.444600D+00  0.478148D+00
  0.122000D+00  0.501240D+00
   s     1 1.00
  0.122000D+00  0.100000D+01
   p     1 1.00
  0.727000D+00  0.100000D+01
  
  9  0
   s     4 1.00
  0.130100D+02  0.196850D-01
  0.196200D+01  0.137977D+00
  0.444600D+00  0.478148D+00
  0.122000D+00  0.501240D+00
   s     1 1.00
  0.122000D+00  0.100000D+01
   p     1 1.00
  0.727000D+00  0.100000D+01
  
 10  0
   s     4 1.00
  0.130100D+02  0.196850D-01
  0.196200D+01  0.137977D+00
  0.444600D+00  0.478148D+00
  0.122000D+00  0.501240D+00
   s     1 1.00
  0.122000D+00  0.100000D+01
   p     1 1.00
  0.727000D+00  0.100000D+01
  
 11  0
   s     4 1.00
  0.130100D+02  0.196850D-01
  0.196200D+01  0.137977D+00
  0.444600D+00  0.478148D+00
  0.122000D+00  0.501240D+00
   s     1 1.00
  0.122000D+00  0.100000D+01
   p     1 1.00
  0.727000D+00  0.100000D+01
  
 12  0
   s     4 1.00
  0.130100D+02  0.196850D-01
  0.196200D+01  0.137977D+00
  0.444600D+00  0.478148D+00
  0.122000D+00  0.501240D+00
   s     1 1.00
  0.122000D+00  0.100000D+01
   p     1 1.00
  0.727000D+00  0.100000D+01
  
 13  0
   s     4 1.00
  0.130100D+02  0.196850D-01
  0.196200D+01  0.137977D+00
  0.444600D+00  0.478148D+00
  0.122000D+00  0.501240D+00
   s     1 1.00
  0.122000D+00  0.100000D+01
   p     1 1.00
  0.727000D+00  0.100000D+01
  
 14  0
   s     4 1.00
  0.130100D+02  0.196850D-01
  0.196200D+01  0.137977D+00
  0.444600D+00  0.478148D+00
  0.122000D+00  0.501240D+00
   s     1 1.00
  0.122000D+00  0.100000D+01
   p     1 1.00
  0.727000D+00  0.100000D+01
  
[MO]
 Sym= __1_A'_
 Ene=  0.000000000000000E+000
 Spin= Alpha
 Occup=    2.00000000000000     
                     1  8.585467801406950E-005
                     2  0.998314991883867     
                     3  2.631662801037378E-003
                     4  1.713676134033759E-003
                     5  5.580951849143344E-003
                     6  3.611321288842298E-003
                     7  6.227108097975534E-003
                     8  0.000000000000000E+000
                     9 -6.221519062179186E-004
                    10 -6.429787963556780E-004
                    11  0.000000000000000E+000
                    12 -2.479521443608226E-003
                    13 -1.677010429469751E-003
                    14  0.000000000000000E+000
                    15 -1.027496871502546E-004
                    16  0.000000000000000E+000
                    17  0.000000000000000E+000
                    18 -1.745399902039266E-004
                    19 -8.999073963345282E-005
                    20  6.329201859131610E-005
                    21  0.000000000000000E+000
                    22  0.000000000000000E+000
                    23 -3.173674750588190E-004
                    24  5.952016019217987E-004
                    25  0.000000000000000E+000
                    26 -1.681650689352100E-005
                    27 -6.292994350048918E-005
                    28  0.000000000000000E+000
                    29  0.000000000000000E+000
                    30  3.778885917374841E-005
                    31 -1.536517499843537E-004
                    32 -4.134174394048672E-004
                    33  1.003799809963490E-003
                    34  3.409236206021421E-004
                    35 -3.663290059317637E-004
                    36 -3.718036733053768E-004
                    37 -4.888579249703096E-003
                    38  0.000000000000000E+000
                    39  4.919305988749348E-004
                    40  5.434189202346112E-004
                    41  0.000000000000000E+000
                    42 -2.269004344514227E-003
                    43  5.545878694074116E-003
                    44  0.000000000000000E+000
                    45 -1.440875655274973E-005
                    46  0.000000000000000E+000
                    47  0.000000000000000E+000
                    48 -2.245886784974946E-004
                    49 -8.233558475657613E-006
                    50 -2.407815415575380E-004
                    51  0.000000000000000E+000
                    52  0.000000000000000E+000
                    53  5.856984526459278E-005
                    54  8.901264201263279E-004
                    55  0.000000000000000E+000
                    56 -8.635717818073117E-006
                    57 -6.039676038597640E-005
                    58  0.000000000000000E+000
                    59  0.000000000000000E+000
                    60  2.903153433616247E-005
                    61 -1.206976119094367E-004
                    62 -5.181172896299564E-004
                    63 -2.401328310509608E-003
                    64 -8.853222790314682E-005
                    65  2.223569661779554E-003
                    66 -6.704032935103456E-004
                    67  5.522356851149814E-004
                    68  0.000000000000000E+000
                    69  4.525727532232134E-004
                    70  8.599364170186070E-004
                    71  0.000000000000000E+000
                    72 -1.940735970984754E-003
                    73  9.202402984747604E-004
                    74  0.000000000000000E+000
                    75 -4.180875859868692E-005
                    76  0.000000000000000E+000
                    77  0.000000000000000E+000
                    78 -8.779466353782043E-005
                    79 -2.796009940100312E-005
                    80 -1.268150373217289E-004
                    81  0.000000000000000E+000
                    82  0.000000000000000E+000
                    83  6.429750983557102E-005
                    84  8.524789934394719E-005
                    85  0.000000000000000E+000
                    86  1.314321632604767E-005
                    87 -5.046445349854791E-005
                    88  0.000000000000000E+000
                    89  0.000000000000000E+000
                    90 -1.642795807045700E-005
                    91 -1.540099135029562E-004
                    92 -1.760409584904775E-004
                    93 -1.256549469087852E-003
                    94  2.131358681471270E-004
                    95 -2.315185849286952E-004
                    96  6.214982171965618E-004
                    97  8.202858552838443E-004
                    98  0.000000000000000E+000
                    99  4.409118021267241E-004
                   100  3.627310878450686E-004
                   101  0.000000000000000E+000
                   102  4.471754098746453E-004
                   103 -1.925147410802588E-003
                   104  0.000000000000000E+000
                   105  2.930033709377623E-006
                   106  0.000000000000000E+000
                   107  0.000000000000000E+000
                   108 -8.167133104631644E-005
                   109 -2.588896178358388E-005
                   110  1.040309429231761E-004
                   111  0.000000000000000E+000
                   112  0.000000000000000E+000
                   113 -1.968946185358653E-004
                   114 -1.604616486606899E-005
                   115  0.000000000000000E+000
                   116 -2.694839706732148E-005
                   117 -2.621654968278154E-005
                   118  0.000000000000000E+000
                   119  0.000000000000000E+000
                   120 -1.815409754571051E-005
                   121 -2.106624344335878E-005
                   122 -2.574606847892772E-004
                   123 -4.817398314687852E-004
                   124  1.733001102147175E-004
                   125  3.458718311309929E-004
                   126 -1.955717056003003E-005
                   127 -6.140613610385705E-004
                   128  0.000000000000000E+000
                   129  1.968924672526170E-004
                   130  6.508493608431917E-004
                   131  0.000000000000000E+000
                   132  5.989135865213793E-004
                   133  2.228460084300687E-003
                   134  0.000000000000000E+000
                   135  1.277993951578045E-005
                   136  0.000000000000000E+000
                   137  0.000000000000000E+000
                   138  3.873263257847194E-005
                   139  1.824630579715764E-006
                   140  1.975597890115212E-004
                   141  0.000000000000000E+000
                   142  0.000000000000000E+000
                   143  3.999795429559490E-004
                   144  2.548393375494452E-004
                   145  0.000000000000000E+000
                   146 -9.685276959393407E-006
                   147 -6.381516560431920E-005
                   148  0.000000000000000E+000
                   149  0.000000000000000E+000
                   150 -2.152048469612432E-005
                   151 -4.868195039879420E-005
                   152 -1.497137651428877E-004
                   153 -1.273405950715393E-004
                   154  5.309688438375600E-005
                   155  2.155665581330013E-004
                   156 -3.669760807740849E-005
                   157 -5.656223657469626E-004
                   158  0.000000000000000E+000
                   159  5.346706953492863E-005
                   160  5.755290897304892E-005
                   161  0.000000000000000E+000
                   162  8.258331593291091E-004
                   163 -4.721148638935825E-004
                   164  0.000000000000000E+000
                   165 -2.224464968741231E-006
                   166  0.000000000000000E+000
                   167  0.000000000000000E+000
                   168 -1.137537939201600E-005
                   169  1.072761109230054E-006
                   170  8.668559626809172E-005
                   171  0.000000000000000E+000
                   172  0.000000000000000E+000
                   173  1.924935819816838E-005
                   174  2.620498098094792E-006
                   175  0.000000000000000E+000
                   176  1.246611747818094E-006
                   177 -8.277797468973041E-006
                   178  0.000000000000000E+000
                   179  0.000000000000000E+000
                   180 -1.685731248527796E-005
                   181 -1.843727775545293E-005
                   182 -1.604473370460982E-004
                   183 -4.785638506444195E-004
                   184  3.692151060169463E-005
                   185  2.303412738063564E-004
                   186 -4.820291712501224E-005
                   187 -3.958206294028908E-005
                   188  0.000000000000000E+000
                   189  2.682404315665219E-004
                   190  9.482296793471391E-005
                   191  0.000000000000000E+000
                   192  1.543482506550297E-003
                   193 -2.746746701925685E-004
                   194  0.000000000000000E+000
                   195  1.602837428852322E-006
                   196  0.000000000000000E+000
                   197  0.000000000000000E+000
                   198 -1.194810737892829E-005
                   199  3.896366352990204E-006
                   200 -1.402127327525766E-005
                   201  0.000000000000000E+000
                   202  0.000000000000000E+000
                   203 -8.427143535139716E-005
                   204 -2.152301003138036E-004
                   205  0.000000000000000E+000
                   206 -9.343755230016146E-006
                   207 -4.060454318440158E-006
                   208  0.000000000000000E+000
                   209  0.000000000000000E+000
                   210  1.044536436981574E-005
                   211 -7.775618771187965E-006
                   212 -7.988277488818010E-005
                   213  1.161502210520457E-004
                   214  4.189494441093800E-005
                   215  5.785994645072028E-005
                   216  0.000000000000000E+000
                   217  1.756984375551835E-003
                   218 -1.809197665670257E-003
                   219 -4.575391295702269E-004
                   220  1.604774194720750E-004
                   221  0.000000000000000E+000
                   222 -5.077623616823090E-004
                   223 -6.288684891181873E-004
                   224  5.713396061303651E-006
                   225 -7.263613648600751E-005
                   226  0.000000000000000E+000
                   227 -2.998802880675444E-004
                   228 -4.786943719211824E-004
                   229 -1.806937305481370E-005
                   230 -1.449659210763930E-005
                   231  0.000000000000000E+000
                   232 -9.106368651350423E-005
                   233 -4.860298664723966E-004
                   234  2.234209325764770E-006
                   235 -1.765400495565205E-006
                   236  0.000000000000000E+000
                   237 -1.933139917533919E-004
                   238 -3.685690043955890E-004
                   239  5.181847070356614E-006
                   240 -3.409130661782906E-008
                   241  0.000000000000000E+000
                   242  1.147187895771192E-005
                   243  5.735050769056590E-005
                   244 -7.884757487061083E-007
                   245  2.931112141065267E-005
                   246  0.000000000000000E+000
 Sym= __2_A'_
 Ene=  0.000000000000000E+000
 Spin= Alpha
 Occup=    2.00000000000000     
                     1 -4.978822605183259E-005
                     2 -2.739839745893238E-004
                     3  2.703568094142180E-003
                     4  1.253253816314181E-004
                     5  1.361193476443732E-003
                     6 -3.885262499113011E-004
                     7  2.945922465399004E-003
                     8  0.000000000000000E+000
                     9 -4.153414640275739E-005
                    10 -1.152390811854633E-004
                    11  0.000000000000000E+000
                    12 -4.679799953320443E-005
                    13 -3.443296384332506E-004
                    14  0.000000000000000E+000
                    15  3.072918068897617E-005
                    16  0.000000000000000E+000
                    17  0.000000000000000E+000
                    18 -4.486312444634992E-005
                    19  2.402322995591845E-005
                    20 -1.110085950145688E-004
                    21  0.000000000000000E+000
                    22  0.000000000000000E+000
                    23  1.156730025234878E-004
                    24 -1.461875250406389E-004
                    25  0.000000000000000E+000
                    26 -1.670107781212844E-005
                    27  9.359322457572875E-005
                    28  0.000000000000000E+000
                    29  0.000000000000000E+000
                    30 -6.661580382091736E-005
                    31  1.437589303035804E-004
                    32   1.00102516548851     
                    33  9.247525641688986E-003
                    34  2.676232915108271E-003
                    35 -8.054820168291957E-003
                    36 -2.660147346765991E-005
                    37 -3.250570225663788E-003
                    38  0.000000000000000E+000
                    39 -1.976674199661092E-004
                    40  1.946269003361064E-004
                    41  0.000000000000000E+000
                    42 -1.482388338901792E-004
                    43  4.077241206333545E-003
                    44  0.000000000000000E+000
                    45 -5.565356930597319E-004
                    46  0.000000000000000E+000
                    47  0.000000000000000E+000
                    48 -2.055418761465572E-004
                    49  4.506435580404088E-005
                    50  5.311612076576518E-004
                    51  0.000000000000000E+000
                    52  0.000000000000000E+000
                    53 -6.636258520549448E-004
                    54 -3.936382040656975E-004
                    55  0.000000000000000E+000
                    56  1.222209482032395E-005
                    57  9.604537135486456E-005
                    58  0.000000000000000E+000
                    59  0.000000000000000E+000
                    60 -3.426896285137010E-005
                    61  3.914340983961086E-004
                    62  8.825435779620484E-003
                    63 -2.072474878395789E-003
                    64 -2.437055958337942E-004
                    65  2.698398637952333E-003
                    66  1.032985130581236E-005
                    67  8.777374156796302E-005
                    68  0.000000000000000E+000
                    69  5.234557196943684E-004
                    70  1.546288745084647E-004
                    71  0.000000000000000E+000
                    72 -2.115724409783814E-003
                    73  2.975803776301634E-004
                    74  0.000000000000000E+000
                    75  3.672180165984829E-005
                    76  0.000000000000000E+000
                    77  0.000000000000000E+000
                    78 -4.244771849573736E-006
                    79  4.311878895335198E-006
                    80 -4.238062287820938E-004
                    81  0.000000000000000E+000
                    82  0.000000000000000E+000
                    83 -6.539821760906216E-004
                    84 -2.426271463069407E-004
                    85  0.000000000000000E+000
                    86  2.735321588338177E-005
                    87 -5.849410698817851E-005
                    88  0.000000000000000E+000
                    89  0.000000000000000E+000
                    90  3.863748381406186E-005
                    91  1.498432758244936E-004
                    92  1.102434225730918E-002
                    93 -2.072224648992818E-003
                    94 -3.132673145414480E-004
                    95  3.213923939606997E-003
                    96  6.971656963340461E-005
                    97  5.534633309530422E-005
                    98  0.000000000000000E+000
                    99 -9.356191190354137E-004
                   100  1.561183769235769E-005
                   101  0.000000000000000E+000
                   102  1.741682206302477E-003
                   103  2.030365355192825E-005
                   104  0.000000000000000E+000
                   105  2.413844306872191E-005
                   106  0.000000000000000E+000
                   107  0.000000000000000E+000
                   108 -3.702471001752766E-006
                   109  8.907354277868856E-006
                   110 -4.231727220931411E-004
                   111  0.000000000000000E+000
                   112  0.000000000000000E+000
                   113 -3.795738160459198E-004
                   114  2.605201242186613E-004
                   115  0.000000000000000E+000
                   116 -2.917077354271471E-005
                   117 -7.036351379330536E-005
                   118  0.000000000000000E+000
                   119  0.000000000000000E+000
                   120 -7.965399320493658E-006
                   121  1.329166310418261E-004
                   122 -1.750202076383270E-004
                   123 -6.842534370726340E-004
                   124  2.298681621782286E-004
                   125 -1.246428352099766E-004
                   126  3.476926053690549E-006
                   127 -3.620890628310293E-004
                   128  0.000000000000000E+000
                   129 -7.769477630303503E-005
                   130  6.138997600028709E-004
                   131  0.000000000000000E+000
                   132  3.782893342440070E-004
                   133  9.070752645187827E-004
                   134  0.000000000000000E+000
                   135  1.832308376466970E-005
                   136  0.000000000000000E+000
                   137  0.000000000000000E+000
                   138  4.894478828882430E-006
                   139  4.329601138127145E-005
                   140  1.310650038274315E-004
                   141  0.000000000000000E+000
                   142  0.000000000000000E+000
                   143  2.515686229585946E-004
                   144 -1.078928043577409E-004
                   145  0.000000000000000E+000
                   146  9.228533101464634E-006
                   147 -3.702910474544462E-005
                   148  0.000000000000000E+000
                   149  0.000000000000000E+000
                   150 -4.456651774292603E-005
                   151  3.641139351393480E-005
                   152 -1.103912645728320E-004
                   153 -6.775816107765205E-004
                   154  2.304529246249125E-004
                   155 -3.866563052561149E-005
                   156 -3.134222305725028E-005
                   157 -3.565876045613028E-004
                   158  0.000000000000000E+000
                   159  1.357712885878291E-004
                   160  5.358828354202460E-004