[Molden Format]
[Atoms] AU
  N     1    7    -4.4519150800    0.1645695100   -0.0000004400        
  C     2    6    -1.7695092000   -0.0145096000   -0.0000001700        
  C     3    6    -0.4270927200   -0.0061402300   -2.2691546100        
  C     4    6    -0.4270931100   -0.0061391100    2.2691544900        
  C     5    6     2.1889955900   -0.0004823800   -2.2566388900        
  C     6    6     2.1889952100   -0.0004812700    2.2566392100        
  C     7    6     3.5149715000    0.0022090000    0.0000002700        
  H     8    1    -5.3847680700   -0.9508472000   -1.9800838900        
  H     9    1    -5.3847684100   -0.9508462200    1.9800834000        
  H    10    1    -1.4305344500   -0.0005073500   -4.0318143700        
  H    11    1    -1.4305351200   -0.0005053700    4.0318140800        
  H    12    1     3.1914120400   -0.0010699000   -4.0209976100        
  H    13    1     3.1914113700   -0.0010679200    4.0209980900        
  H    14    1     5.5428332300    0.0050250700    0.0000004400        
[5D]
[7F]
[GTO]
  1  0
   s    12 1.00
  0.114200D+05  0.172695D-04
  0.171200D+04  0.134411D-03
  0.389300D+03  0.694561D-03
  0.110000D+03  0.278531D-02
  0.355700D+02  0.863457D-02
  0.125400D+02  0.199805D-01
  0.464400D+01  0.262908D-01
  0.129300D+01 -0.243845D-01
  0.511800D+00 -0.924934D-01
  0.178700D+00 -0.339683D+00
  0.246240D-01  0.345111D+00
  0.112530D-01  0.752750D+00
   s    10 1.00
  0.114200D+05  0.523000D-03
  0.171200D+04  0.404500D-02
  0.389300D+03  0.207750D-01
  0.110000D+03  0.807269D-01
  0.355700D+02  0.233074D+00
  0.125400D+02  0.433501D+00
  0.464400D+01  0.347472D+00
  0.129300D+01  0.412620D-01
  0.511800D+00 -0.850799D-02
  0.178700D+00  0.238400D-02
   s    10 1.00
  0.114200D+05 -0.115000D-03
  0.171200D+04 -0.895000D-03
  0.389300D+03 -0.462400D-02
  0.110000D+03 -0.185280D-01
  0.355700D+02 -0.573390D-01
  0.125400D+02 -0.132076D+00
  0.464400D+01 -0.172510D+00
  0.129300D+01  0.151814D+00
  0.511800D+00  0.599944D+00
  0.178700D+00  0.387462D+00
   s     1 1.00
  0.129300D+01  0.100000D+01
   s     1 1.00
  0.178700D+00  0.100000D+01
   p     5 1.00
  0.266300D+02  0.146700D-01
  0.594800D+01  0.917640D-01
  0.174200D+01  0.298683D+00
  0.555000D+00  0.498487D+00
  0.172500D+00  0.337023D+00
   p     1 1.00
  0.174200D+01  0.100000D+01
   p     1 1.00
  0.555000D+00  0.100000D+01
   d     1 1.00
  0.165400D+01  0.100000D+01
   d     1 1.00
  0.469000D+00  0.100000D+01
   f     1 1.00
  0.109300D+01  0.100000D+01
  
  2  0
   s    10 1.00
  0.823600D+04  0.531000D-03
  0.123500D+04  0.410800D-02
  0.280800D+03  0.210870D-01
  0.792700D+02  0.818530D-01
  0.255900D+02  0.234817D+00
  0.899700D+01  0.434401D+00
  0.331900D+01  0.346129D+00
  0.905900D+00  0.393780D-01
  0.364300D+00 -0.898300D-02
  0.128500D+00  0.238500D-02
   s    10 1.00
  0.823600D+04 -0.113000D-03
  0.123500D+04 -0.878000D-03
  0.280800D+03 -0.454000D-02
  0.792700D+02 -0.181330D-01
  0.255900D+02 -0.557600D-01
  0.899700D+01 -0.126895D+00
  0.331900D+01 -0.170352D+00
  0.905900D+00  0.140382D+00
  0.364300D+00  0.598684D+00
  0.128500D+00  0.395389D+00
   s     1 1.00
  0.905900D+00  0.100000D+01
   s     1 1.00
  0.364300D+00  0.100000D+01
   p     5 1.00
  0.187100D+02  0.140310D-01
  0.413300D+01  0.868660D-01
  0.120000D+01  0.290216D+00
  0.382700D+00  0.501008D+00
  0.120900D+00  0.343406D+00
   p     1 1.00
  0.382700D+00  0.100000D+01
   p     1 1.00
  0.120900D+00  0.100000D+01
   d     1 1.00
  0.109700D+01  0.100000D+01
   d     1 1.00
  0.318000D+00  0.100000D+01
   f     1 1.00
  0.761000D+00  0.100000D+01
  
  3  0
   s    10 1.00
  0.823600D+04  0.531000D-03
  0.123500D+04  0.410800D-02
  0.280800D+03  0.210870D-01
  0.792700D+02  0.818530D-01
  0.255900D+02  0.234817D+00
  0.899700D+01  0.434401D+00
  0.331900D+01  0.346129D+00
  0.905900D+00  0.393780D-01
  0.364300D+00 -0.898300D-02
  0.128500D+00  0.238500D-02
   s    10 1.00
  0.823600D+04 -0.113000D-03
  0.123500D+04 -0.878000D-03
  0.280800D+03 -0.454000D-02
  0.792700D+02 -0.181330D-01
  0.255900D+02 -0.557600D-01
  0.899700D+01 -0.126895D+00
  0.331900D+01 -0.170352D+00
  0.905900D+00  0.140382D+00
  0.364300D+00  0.598684D+00
  0.128500D+00  0.395389D+00
   s     1 1.00
  0.905900D+00  0.100000D+01
   s     1 1.00
  0.364300D+00  0.100000D+01
   p     5 1.00
  0.187100D+02  0.140310D-01
  0.413300D+01  0.868660D-01
  0.120000D+01  0.290216D+00
  0.382700D+00  0.501008D+00
  0.120900D+00  0.343406D+00
   p     1 1.00
  0.382700D+00  0.100000D+01
   p     1 1.00
  0.120900D+00  0.100000D+01
   d     1 1.00
  0.109700D+01  0.100000D+01
   d     1 1.00
  0.318000D+00  0.100000D+01
   f     1 1.00
  0.761000D+00  0.100000D+01
  
  4  0
   s    10 1.00
  0.823600D+04  0.531000D-03
  0.123500D+04  0.410800D-02
  0.280800D+03  0.210870D-01
  0.792700D+02  0.818530D-01
  0.255900D+02  0.234817D+00
  0.899700D+01  0.434401D+00
  0.331900D+01  0.346129D+00
  0.905900D+00  0.393780D-01
  0.364300D+00 -0.898300D-02
  0.128500D+00  0.238500D-02
   s    10 1.00
  0.823600D+04 -0.113000D-03
  0.123500D+04 -0.878000D-03
  0.280800D+03 -0.454000D-02
  0.792700D+02 -0.181330D-01
  0.255900D+02 -0.557600D-01
  0.899700D+01 -0.126895D+00
  0.331900D+01 -0.170352D+00
  0.905900D+00  0.140382D+00
  0.364300D+00  0.598684D+00
  0.128500D+00  0.395389D+00
   s     1 1.00
  0.905900D+00  0.100000D+01
   s     1 1.00
  0.364300D+00  0.100000D+01
   p     5 1.00
  0.187100D+02  0.140310D-01
  0.413300D+01  0.868660D-01
  0.120000D+01  0.290216D+00
  0.382700D+00  0.501008D+00
  0.120900D+00  0.343406D+00
   p     1 1.00
  0.382700D+00  0.100000D+01
   p     1 1.00
  0.120900D+00  0.100000D+01
   d     1 1.00
  0.109700D+01  0.100000D+01
   d     1 1.00
  0.318000D+00  0.100000D+01
   f     1 1.00
  0.761000D+00  0.100000D+01
  
  5  0
   s    10 1.00
  0.823600D+04  0.531000D-03
  0.123500D+04  0.410800D-02
  0.280800D+03  0.210870D-01
  0.792700D+02  0.818530D-01
  0.255900D+02  0.234817D+00
  0.899700D+01  0.434401D+00
  0.331900D+01  0.346129D+00
  0.905900D+00  0.393780D-01
  0.364300D+00 -0.898300D-02
  0.128500D+00  0.238500D-02
   s    10 1.00
  0.823600D+04 -0.113000D-03
  0.123500D+04 -0.878000D-03
  0.280800D+03 -0.454000D-02
  0.792700D+02 -0.181330D-01
  0.255900D+02 -0.557600D-01
  0.899700D+01 -0.126895D+00
  0.331900D+01 -0.170352D+00
  0.905900D+00  0.140382D+00
  0.364300D+00  0.598684D+00
  0.128500D+00  0.395389D+00
   s     1 1.00
  0.905900D+00  0.100000D+01
   s     1 1.00
  0.364300D+00  0.100000D+01
   p     5 1.00
  0.187100D+02  0.140310D-01
  0.413300D+01  0.868660D-01
  0.120000D+01  0.290216D+00
  0.382700D+00  0.501008D+00
  0.120900D+00  0.343406D+00
   p     1 1.00
  0.382700D+00  0.100000D+01
   p     1 1.00
  0.120900D+00  0.100000D+01
   d     1 1.00
  0.109700D+01  0.100000D+01
   d     1 1.00
  0.318000D+00  0.100000D+01
   f     1 1.00
  0.761000D+00  0.100000D+01
  
  6  0
   s    10 1.00
  0.823600D+04  0.531000D-03
  0.123500D+04  0.410800D-02
  0.280800D+03  0.210870D-01
  0.792700D+02  0.818530D-01
  0.255900D+02  0.234817D+00
  0.899700D+01  0.434401D+00
  0.331900D+01  0.346129D+00
  0.905900D+00  0.393780D-01
  0.364300D+00 -0.898300D-02
  0.128500D+00  0.238500D-02
   s    10 1.00
  0.823600D+04 -0.113000D-03
  0.123500D+04 -0.878000D-03
  0.280800D+03 -0.454000D-02
  0.792700D+02 -0.181330D-01
  0.255900D+02 -0.557600D-01
  0.899700D+01 -0.126895D+00
  0.331900D+01 -0.170352D+00
  0.905900D+00  0.140382D+00
  0.364300D+00  0.598684D+00
  0.128500D+00  0.395389D+00
   s     1 1.00
  0.905900D+00  0.100000D+01
   s     1 1.00
  0.364300D+00  0.100000D+01
   p     5 1.00
  0.187100D+02  0.140310D-01
  0.413300D+01  0.868660D-01
  0.120000D+01  0.290216D+00
  0.382700D+00  0.501008D+00
  0.120900D+00  0.343406D+00
   p     1 1.00
  0.382700D+00  0.100000D+01
   p     1 1.00
  0.120900D+00  0.100000D+01
   d     1 1.00
  0.109700D+01  0.100000D+01
   d     1 1.00
  0.318000D+00  0.100000D+01
   f     1 1.00
  0.761000D+00  0.100000D+01
  
  7  0
   s    10 1.00
  0.823600D+04  0.531000D-03
  0.123500D+04  0.410800D-02
  0.280800D+03  0.210870D-01
  0.792700D+02  0.818530D-01
  0.255900D+02  0.234817D+00
  0.899700D+01  0.434401D+00
  0.331900D+01  0.346129D+00
  0.905900D+00  0.393780D-01
  0.364300D+00 -0.898300D-02
  0.128500D+00  0.238500D-02
   s    10 1.00
  0.823600D+04 -0.113000D-03
  0.123500D+04 -0.878000D-03
  0.280800D+03 -0.454000D-02
  0.792700D+02 -0.181330D-01
  0.255900D+02 -0.557600D-01
  0.899700D+01 -0.126895D+00
  0.331900D+01 -0.170352D+00
  0.905900D+00  0.140382D+00
  0.364300D+00  0.598684D+00
  0.128500D+00  0.395389D+00
   s     1 1.00
  0.905900D+00  0.100000D+01
   s     1 1.00
  0.364300D+00  0.100000D+01
   p     5 1.00
  0.187100D+02  0.140310D-01
  0.413300D+01  0.868660D-01
  0.120000D+01  0.290216D+00
  0.382700D+00  0.501008D+00
  0.120900D+00  0.343406D+00
   p     1 1.00
  0.382700D+00  0.100000D+01
   p     1 1.00
  0.120900D+00  0.100000D+01
   d     1 1.00
  0.109700D+01  0.100000D+01
   d     1 1.00
  0.318000D+00  0.100000D+01
   f     1 1.00
  0.761000D+00  0.100000D+01
  
  8  0
   s     4 1.00
  0.130100D+02  0.196850D-01
  0.196200D+01  0.137977D+00
  0.444600D+00  0.478148D+00
  0.122000D+00  0.501240D+00
   s     1 1.00
  0.122000D+00  0.100000D+01
   p     1 1.00
  0.727000D+00  0.100000D+01
  
  9  0
   s     4 1.00
  0.130100D+02  0.196850D-01
  0.196200D+01  0.137977D+00
  0.444600D+00  0.478148D+00
  0.122000D+00  0.501240D+00
   s     1 1.00
  0.122000D+00  0.100000D+01
   p     1 1.00
  0.727000D+00  0.100000D+01
  
 10  0
   s     4 1.00
  0.130100D+02  0.196850D-01
  0.196200D+01  0.137977D+00
  0.444600D+00  0.478148D+00
  0.122000D+00  0.501240D+00
   s     1 1.00
  0.122000D+00  0.100000D+01
   p     1 1.00
  0.727000D+00  0.100000D+01
  
 11  0
   s     4 1.00
  0.130100D+02  0.196850D-01
  0.196200D+01  0.137977D+00
  0.444600D+00  0.478148D+00
  0.122000D+00  0.501240D+00
   s     1 1.00
  0.122000D+00  0.100000D+01
   p     1 1.00
  0.727000D+00  0.100000D+01
  
 12  0
   s     4 1.00
  0.130100D+02  0.196850D-01
  0.196200D+01  0.137977D+00
  0.444600D+00  0.478148D+00
  0.122000D+00  0.501240D+00
   s     1 1.00
  0.122000D+00  0.100000D+01
   p     1 1.00
  0.727000D+00  0.100000D+01
  
 13  0
   s     4 1.00
  0.130100D+02  0.196850D-01
  0.196200D+01  0.137977D+00
  0.444600D+00  0.478148D+00
  0.122000D+00  0.501240D+00
   s     1 1.00
  0.122000D+00  0.100000D+01
   p     1 1.00
  0.727000D+00  0.100000D+01
  
 14  0
   s     4 1.00
  0.130100D+02  0.196850D-01
  0.196200D+01  0.137977D+00
  0.444600D+00  0.478148D+00
  0.122000D+00  0.501240D+00
   s     1 1.00
  0.122000D+00  0.100000D+01
   p     1 1.00
  0.727000D+00  0.100000D+01
  
[MO]
 Sym= __1_A__
 Ene=   1.00000000000000     
 Spin= Alpha
 Occup=    1.00000000000000     
                     1  1.435274061057183E-004
                     2  0.998697492494860     
                     3 -1.199538998431503E-003
                     4  1.224577474466973E-003
                     5  6.382706136466439E-003
                     6  6.493744642654684E-003
                     7 -4.207693026067744E-003
                     8  4.205260210564023E-010
                     9 -9.757774963304195E-004
                    10  4.025388848519203E-004
                    11  2.787972134554027E-010
                    12 -2.431759484061238E-003
                    13  2.900001032220783E-003
                    14 -3.458563390544283E-009
                    15 -1.039119949083033E-004
                    16 -1.283731169809104E-009
                    17 -1.166331329097800E-011
                    18  6.739505318633708E-005
                    19 -1.453423509828247E-006
                    20 -2.746083508877307E-004
                    21  5.244890239430476E-009
                    22  5.531541419602340E-010
                    23  4.566551977045258E-005
                    24 -4.137578085308351E-004
                    25  4.733582645426531E-009
                    26 -7.674677579269797E-005
                    27  4.655683729600423E-006
                    28  7.014314892687642E-009
                    29 -1.104983390574068E-009
                    30 -5.127856733596168E-005
                    31 -5.537932144489442E-005
                    32 -3.349021546329544E-004
                    33  2.780073164980269E-004
                    34  2.761421873807296E-004
                    35 -1.938357344601382E-004
                    36 -2.609146420455405E-003
                    37 -1.269350902331537E-004
                    38  3.464279943466834E-009
                    39 -7.822891036648652E-005
                    40 -3.416213223629257E-006
                    41 -3.730887115139797E-011
                    42  5.299895302241214E-003
                    43  7.239427579942527E-004
                    44  7.128174747991117E-008
                    45 -1.591142314250782E-004
                    46  1.875678506892905E-009
                    47 -6.983778538813450E-011
                    48  1.403089432938463E-004
                    49  3.730343988042919E-005
                    50  2.386485369085244E-004
                    51 -6.276219540964178E-009
                    52  6.560033087486018E-011
                    53  7.590397920684238E-006
                    54 -3.241984236123800E-004
                    55 -5.513609277355605E-009
                    56 -5.670684148606234E-005
                    57  3.930613426775880E-006
                    58 -4.077228824357176E-009
                    59  5.974490993140568E-010
                    60 -3.787157381705375E-005
                    61  4.260739606597753E-005
                    62 -4.101273562865291E-004
                    63 -1.618783726853017E-003
                    64  6.837264920593943E-005
                    65  1.086923620707133E-003
                    66  1.925300403163456E-004
                    67 -1.598181996812149E-004
                    68 -3.493687410960200E-004
                    69  5.120847231961326E-004
                    70  7.636243643469719E-005
                    71  1.398470418662377E-004
                    72 -5.577919009597578E-004
                    73 -3.194537503545811E-004
                    74 -1.127924613515807E-003
                    75 -4.242702145280434E-005
                    76 -1.219940849889700E-005
                    77  1.694746163557130E-005
                    78  5.630105589461200E-005
                    79 -1.061956644814730E-005
                    80  1.201034763586203E-004
                    81  2.357454494088507E-005
                    82 -3.670647221916309E-005
                    83 -6.221157182474136E-005
                    84  5.603489988407059E-005
                    85 -1.168519245286689E-005
                    86 -6.854759403989433E-005
                    87  1.624095948953191E-005
                    88 -7.433168146096860E-006
                    89  1.148071664245286E-005
                    90 -4.944830500594132E-005
                    91 -9.550565436715087E-006
                    92 -4.101186359892760E-004
                    93 -1.618750209141274E-003
                    94  6.840411390431913E-005
                    95  1.086815559994732E-003
                    96  1.925473511472440E-004
                    97 -1.598181240911231E-004
                    98  3.493699073840621E-004
                    99  5.119936241132555E-004
                   100  7.636214796884781E-005
                   101 -1.398567849627905E-004
                   102 -5.576545296835397E-004
                   103 -3.194532388240184E-004
                   104  1.127837166321982E-003
                   105 -4.242343338950293E-005
                   106  1.220227181101814E-005
                   107 -1.694733849997183E-005
                   108  5.629499312858394E-005
                   109 -1.061954642247285E-005
                   110  1.201475785104346E-004
                   111 -2.361018271197931E-005
                   112  3.670676565957283E-005
                   113 -6.226761246754118E-005
                   114  5.603464349786148E-005
                   115  1.168853260109478E-005
                   116 -6.853758763509180E-005
                   117  1.624070634489117E-005
                   118  7.435004869625304E-006
                   119 -1.148081101300629E-005
                   120 -4.943893314407842E-005
                   121 -9.550622275081890E-006
                   122 -2.304066999678998E-004
                   123 -5.955719301030775E-004
                   124  6.187229086602988E-005
                   125  6.365334733172134E-004
                   126 -2.829143818878765E-004
                   127 -9.208569939091768E-005
                   128 -7.194435379274599E-006
                   129  2.325920227067976E-004
                   130 -2.799813203197691E-005
                   131  8.914622685466739E-005
                   132  8.878252551674578E-004
                   133  1.524998141063324E-004
                   134 -2.672180913839331E-004
                   135  1.188907585743879E-005
                   136 -3.349621589292064E-006
                   137 -5.280742863629919E-006
                   138 -2.879611857859944E-006
                   139  9.689619687617137E-006
                   140  8.254799455824385E-005
                   141  1.399981056512980E-004
                   142  9.573937841007964E-006
                   143 -2.084845415127472E-004
                   144 -9.163068321050330E-006
                   145 -7.599514224936022E-006
                   146 -1.821009465860066E-005
                   147  2.578055302898337E-006
                   148  2.232425350290948E-006
                   149 -2.523978821826833E-006
                   150 -4.699740837415948E-005
                   151 -3.583892729087248E-006
                   152 -2.305339502708838E-004
                   153 -5.960169913487381E-004
                   154  6.176886998507257E-005
                   155  6.372521112253336E-004
                   156 -2.829163316824582E-004
                   157 -9.208562454353939E-005
                   158  7.211113455909725E-006
                   159  2.325717592625542E-004
                   160 -2.799834236465338E-005
                   161 -8.925481134466835E-005
                   162  8.879538766558691E-004
                   163  1.525001895215124E-004
                   164  2.673060504745217E-004
                   165  1.189523602621709E-005
                   166  3.347302619976551E-006
                   167  5.280221911697001E-006
                   168 -2.863896531369520E-006
                   169  9.689557322228442E-006
                   170  8.255999711718092E-005
                   171 -1.400688706435426E-004
                   172 -9.573690360682115E-006
                   173 -2.084662852465224E-004
                   174 -9.163187994760667E-006
                   175  7.600246262051435E-006
                   176 -1.818745076167470E-005
                   177  2.578074911386266E-006
                   178 -2.235140117241748E-006
                   179  2.524015013208663E-006
                   180 -4.699126329533827E-005
                   181 -3.583951852476235E-006
                   182 -1.464660892411582E-004
                   183 -4.509520588808919E-004
                   184  3.971003788237056E-005
                   185  2.104162002132019E-004
                   186 -3.278288230470476E-005
                   187 -9.799746147080764E-005
                   188  2.299941704589558E-008
                   189  1.186916690677646E-004
                   190  1.713811380466534E-005
                   191 -1.249829115153268E-007
                   192 -4.064641587678622E-004
                   193 -9.982490729873827E-005
                   194 -5.533576059676189E-008
                   195 -5.400306956851374E-006
                   196  6.920059841062657E-009
                   197 -2.129215472041050E-011
                   198  2.112796974757856E-006
                   199 -9.001337257654371E-007
                   200 -1.107279803911168E-004
                   201  6.174271562754773E-008
                   202  2.594413204081133E-010
                   203  4.408883723034192E-005
                   204  1.930494815747622E-005
                   205  4.966739038800024E-009
                   206  6.924410227454717E-006
                   207  2.398821186520387E-006
                   208 -5.498606324888316E-009
                   209 -1.047537893454277E-011
                   210 -6.155250030751081E-006
                   211 -3.450957533375391E-006
                   212  2.905654359902272E-005
                   213 -5.114082185263991E-004
                   214  9.009259131367340E-005
                   215  1.915092787056528E-004
                   216  1.681894626758097E-004
                   217  2.905700243364972E-005
                   218 -5.114102301001935E-004
                   219  9.009340023354552E-005
                   220  1.915105389584259E-004
                   221 -1.681915108409633E-004
                   222 -2.296229489900501E-004
                   223 -5.874779637628005E-004
                   224 -5.415752159039872E-005
                   225  8.721278269964368E-006
                   226  4.466230820386330E-005
                   227 -2.296370237751801E-004
                   228 -5.873890232405869E-004
                   229 -5.416034616359020E-005
                   230  8.721247056012392E-006
                   231 -4.466401900569179E-005
                   232 -2.010980844576995E-005
                   233 -4.878831612006669E-004
                   234 -1.263734760644233E-006
                   235 -2.320910671211136E-006
                   236 -2.266653942906652E-006
                   237 -2.012168358546802E-005
                   238 -4.879247832463494E-004
                   239 -1.251182406369005E-006
                   240 -2.320920989501729E-006
                   241  2.277328103922274E-006
                   242 -2.541528030744163E-005
                   243  1.217542930006793E-004
                   244  3.131484794077663E-005
                   245  8.493031888077710E-007
                   246 -5.822130403034755E-009
 Sym= __2_A__
 Ene=   2.00000000000000     
 Spin= Alpha
 Occup=    1.00000000000000     
                     1 -3.711050610728991E-005
                     2 -1.448787024245525E-004
                     3  2.416907623588507E-003
                     4  1.063734756439654E-005
                     5  1.167557387228926E-003
                     6  2.146434310478501E-003
                     7 -4.617969081847796E-005
                     8  2.776344892214749E-009
                     9 -1.359183523329846E-004
                    10  9.128526234555129E-005
                    11 -1.710800248518850E-009
                    12 -1.041715424328333E-005
                    13  4.301489474923415E-005
                    14  5.912403231958552E-010
                    15 -7.402532540547399E-005
                    16  6.615224162035275E-010
                    17 -1.031561678102424E-010
                    18  4.274531566286736E-005
                    19 -1.114730786948064E-005
                    20  1.236096625047627E-004
                    21 -3.006700516792231E-009
                    22  6.458414736342856E-012
                    23  1.065615938499406E-004
                    24 -1.191988133020959E-005
                    25 -1.886339677418532E-009
                    26  1.363713666599037E-004
                    27 -4.502141927846809E-005
                    28 -3.408962883282508E-009
                    29  4.681991759538325E-010
                    30  1.191962059963995E-004
                    31  2.833907302590756E-005
                    32   1.00092660953387     
                    33  8.908331355390669E-003
                    34  2.792580548433322E-003
                    35 -8.247883195073457E-003
                    36 -2.697468655617708E-003
                    37  5.411122068770586E-004
                    38 -4.752260274763366E-009
                    39  8.882994886263356E-004
                    40 -2.444092363808520E-004
                    41  1.851030780717813E-010
                    42  3.507128444539553E-003
                    43 -1.201948088481558E-004
                    44 -5.018409776541335E-008
                    45  2.805939931611930E-004
                    46 -1.475439329644455E-009
                    47  3.439064522651236E-010
                    48  4.284333887924442E-004
                    49 -2.918641556089627E-005
                    50 -1.046020703740057E-003
                    51  7.570526198887856E-010
                    52 -1.432680480444996E-009
                    53 -1.011669919614031E-004
                    54  5.380845891911960E-005
                    55  2.352230140218726E-009
                    56  3.131527103101240E-004
                    57 -8.097084282049007E-006
                    58  9.919892650266610E-010
                    59 -2.685865316360069E-010
                    60  9.608156966557567E-005
                    61  1.293074678668585E-005
                    62  1.373693183905981E-002
                    63 -1.915161051263911E-003
                    64 -3.066051235833336E-004
                    65  3.146665236682440E-003
                    66 -7.598867651904290E-005
                    67  5.433228878459249E-005
                    68  1.944247517582704E-004
                    69  2.550685588966819E-005
                    70 -2.341370928314656E-006
                    71  5.526409694469906E-004
                    72  1.487749652172112E-004
                    73 -2.487489126551074E-005
                    74 -1.829946425639481E-003
                    75 -1.438892518260383E-005
                    76  2.212483663351714E-005
                    77  6.164506768590282E-006
                    78 -3.301196747323738E-005
                    79 -3.186115685017199E-006
                    80 -4.029968718311067E-004
                    81 -4.443857067899094E-004
                    82 -7.226224321868489E-006
                    83  7.513230058523174E-004
                    84 -3.658904885208958E-006
                    85  4.991338968774941E-005
                    86  1.124658379237000E-004
                    87 -7.081495075415668E-007
                    88 -1.648114016888486E-005
                    89 -6.406483187050916E-006
                    90 -3.042384215897554E-005
                    91  4.121569162121020E-006
                    92  1.373692523158130E-002
                    93 -1.915210049092169E-003
                    94 -3.066313028831599E-004
                    95  3.146783581196087E-003
                    96 -7.600226042880932E-005
                    97  5.433212535676449E-005
                    98 -1.944252012306276E-004
                    99  2.557714944605430E-005
                   100 -2.341411281426268E-006
                   101 -5.526418248872120E-004
                   102  1.486729650771194E-004
                   103 -2.487402216312326E-005
                   104  1.830019316217844E-003
                   105 -1.439227715193005E-005
                   106 -2.212817064160705E-005
                   107 -6.164508343992255E-006
                   108 -3.300453590721154E-005
                   109 -3.186073165681617E-006
                   110 -4.030245607146998E-004
                   111  4.444166112842369E-004
                   112  7.225167253177892E-006
                   113  7.513504234282284E-004
                   114 -3.659914118253148E-006
                   115 -4.991344488842336E-005
                   116  1.124588525594498E-004
                   117 -7.077954772185651E-007
                   118  1.648095358009795E-005
                   119  6.406830596732431E-006
                   120 -3.042974497597262E-005
                   121  4.121491347687855E-006
                   122 -9.891333930393581E-005
                   123 -6.844836945469716E-004
                   124  2.505581853556155E-004
                   125 -3.009162338879986E-004
                   126 -2.452646938545890E-004
                   127 -4.455883410856079E-007
                   128 -3.558484862249382E-005
                   129  6.034108208371516E-004
                   130  4.647307271527111E-007
                   131  2.693581849022074E-005
                   132  5.985341913331979E-004
                   133  9.810801929569715E-006
                   134  3.244135987748218E-004
                   135 -6.687217395012820E-007
                   136  4.252332940181982E-005
                   137  2.817263453612300E-008
                   138 -3.263098050694694E-005
                   139 -5.302814724474896E-007
                   140  1.886523907615814E-004
                   141 -2.400666195042068E-004
                   142  1.423914668373477E-006
                   143 -2.624057077123144E-004
                   144 -4.208124639560976E-006
                   145 -1.944261678766337E-005
                   146  1.588302833864407E-005
                   147 -1.958036310579335E-007
                   148 -1.509753945703228E-005
                   149 -1.995760427553906E-006
                   150 -2.632789660869010E-005
                   151 -6.835208859519787E-007
                   152 -9.872575888340581E-005
                   153 -6.838591231971314E-004
                   154  2.506018791631730E-004
                   155 -3.015873935881910E-004
                   156 -2.452647680452922E-004
                   157 -4.450843406580392E-007
                   158  3.557715470284407E-005
                   159  6.034322675394011E-004
                   160  4.634311606765220E-007