[Molden Format]
[Atoms] AU
  N     1    7    -4.4600047100    0.1858963200    0.0027413300        
  C     2    6    -1.7684072500   -0.0183656700   -0.0028883300        
  C     3    6    -0.4264365900   -0.0071490900   -2.2708993700        
  C     4    6    -0.4286225300   -0.0107422100    2.2670508900        
  C     5    6     2.1897134900   -0.0005296400   -2.2574103600        
  C     6    6     2.1879618100   -0.0011198300    2.2566411500        
  C     7    6     3.5140782700    0.0035359700    0.0004422700        
  H     8    1    -5.2119501600   -0.8329656500   -1.6457388400        
  H     9    1    -5.1800625800   -0.7415191200    1.5439697600        
  H    10    1    -1.4298895800    0.0003729400   -4.0332824900        
  H    11    1    -1.4330364000   -0.0108616500    4.0290946300        
  H    12    1     3.1934343300   -0.0001333600   -4.0210096900        
  H    13    1     3.1897915100   -0.0021254300    4.0213157200        
  H    14    1     5.5420069000    0.0076531000    0.0012757300        
[5D]
[7F]
[GTO]
  1  0
   s    12 1.00
  0.114200D+05  0.172695D-04
  0.171200D+04  0.134411D-03
  0.389300D+03  0.694561D-03
  0.110000D+03  0.278531D-02
  0.355700D+02  0.863457D-02
  0.125400D+02  0.199805D-01
  0.464400D+01  0.262908D-01
  0.129300D+01 -0.243845D-01
  0.511800D+00 -0.924934D-01
  0.178700D+00 -0.339683D+00
  0.246240D-01  0.345111D+00
  0.112530D-01  0.752750D+00
   s    10 1.00
  0.114200D+05  0.523000D-03
  0.171200D+04  0.404500D-02
  0.389300D+03  0.207750D-01
  0.110000D+03  0.807269D-01
  0.355700D+02  0.233074D+00
  0.125400D+02  0.433501D+00
  0.464400D+01  0.347472D+00
  0.129300D+01  0.412620D-01
  0.511800D+00 -0.850799D-02
  0.178700D+00  0.238400D-02
   s    10 1.00
  0.114200D+05 -0.115000D-03
  0.171200D+04 -0.895000D-03
  0.389300D+03 -0.462400D-02
  0.110000D+03 -0.185280D-01
  0.355700D+02 -0.573390D-01
  0.125400D+02 -0.132076D+00
  0.464400D+01 -0.172510D+00
  0.129300D+01  0.151814D+00
  0.511800D+00  0.599944D+00
  0.178700D+00  0.387462D+00
   s     1 1.00
  0.129300D+01  0.100000D+01
   s     1 1.00
  0.178700D+00  0.100000D+01
   p     5 1.00
  0.266300D+02  0.146700D-01
  0.594800D+01  0.917640D-01
  0.174200D+01  0.298683D+00
  0.555000D+00  0.498487D+00
  0.172500D+00  0.337023D+00
   p     1 1.00
  0.174200D+01  0.100000D+01
   p     1 1.00
  0.555000D+00  0.100000D+01
   d     1 1.00
  0.165400D+01  0.100000D+01
   d     1 1.00
  0.469000D+00  0.100000D+01
   f     1 1.00
  0.109300D+01  0.100000D+01
  
  2  0
   s    10 1.00
  0.823600D+04  0.531000D-03
  0.123500D+04  0.410800D-02
  0.280800D+03  0.210870D-01
  0.792700D+02  0.818530D-01
  0.255900D+02  0.234817D+00
  0.899700D+01  0.434401D+00
  0.331900D+01  0.346129D+00
  0.905900D+00  0.393780D-01
  0.364300D+00 -0.898300D-02
  0.128500D+00  0.238500D-02
   s    10 1.00
  0.823600D+04 -0.113000D-03
  0.123500D+04 -0.878000D-03
  0.280800D+03 -0.454000D-02
  0.792700D+02 -0.181330D-01
  0.255900D+02 -0.557600D-01
  0.899700D+01 -0.126895D+00
  0.331900D+01 -0.170352D+00
  0.905900D+00  0.140382D+00
  0.364300D+00  0.598684D+00
  0.128500D+00  0.395389D+00
   s     1 1.00
  0.905900D+00  0.100000D+01
   s     1 1.00
  0.364300D+00  0.100000D+01
   p     5 1.00
  0.187100D+02  0.140310D-01
  0.413300D+01  0.868660D-01
  0.120000D+01  0.290216D+00
  0.382700D+00  0.501008D+00
  0.120900D+00  0.343406D+00
   p     1 1.00
  0.382700D+00  0.100000D+01
   p     1 1.00
  0.120900D+00  0.100000D+01
   d     1 1.00
  0.109700D+01  0.100000D+01
   d     1 1.00
  0.318000D+00  0.100000D+01
   f     1 1.00
  0.761000D+00  0.100000D+01
  
  3  0
   s    10 1.00
  0.823600D+04  0.531000D-03
  0.123500D+04  0.410800D-02
  0.280800D+03  0.210870D-01
  0.792700D+02  0.818530D-01
  0.255900D+02  0.234817D+00
  0.899700D+01  0.434401D+00
  0.331900D+01  0.346129D+00
  0.905900D+00  0.393780D-01
  0.364300D+00 -0.898300D-02
  0.128500D+00  0.238500D-02
   s    10 1.00
  0.823600D+04 -0.113000D-03
  0.123500D+04 -0.878000D-03
  0.280800D+03 -0.454000D-02
  0.792700D+02 -0.181330D-01
  0.255900D+02 -0.557600D-01
  0.899700D+01 -0.126895D+00
  0.331900D+01 -0.170352D+00
  0.905900D+00  0.140382D+00
  0.364300D+00  0.598684D+00
  0.128500D+00  0.395389D+00
   s     1 1.00
  0.905900D+00  0.100000D+01
   s     1 1.00
  0.364300D+00  0.100000D+01
   p     5 1.00
  0.187100D+02  0.140310D-01
  0.413300D+01  0.868660D-01
  0.120000D+01  0.290216D+00
  0.382700D+00  0.501008D+00
  0.120900D+00  0.343406D+00
   p     1 1.00
  0.382700D+00  0.100000D+01
   p     1 1.00
  0.120900D+00  0.100000D+01
   d     1 1.00
  0.109700D+01  0.100000D+01
   d     1 1.00
  0.318000D+00  0.100000D+01
   f     1 1.00
  0.761000D+00  0.100000D+01
  
  4  0
   s    10 1.00
  0.823600D+04  0.531000D-03
  0.123500D+04  0.410800D-02
  0.280800D+03  0.210870D-01
  0.792700D+02  0.818530D-01
  0.255900D+02  0.234817D+00
  0.899700D+01  0.434401D+00
  0.331900D+01  0.346129D+00
  0.905900D+00  0.393780D-01
  0.364300D+00 -0.898300D-02
  0.128500D+00  0.238500D-02
   s    10 1.00
  0.823600D+04 -0.113000D-03
  0.123500D+04 -0.878000D-03
  0.280800D+03 -0.454000D-02
  0.792700D+02 -0.181330D-01
  0.255900D+02 -0.557600D-01
  0.899700D+01 -0.126895D+00
  0.331900D+01 -0.170352D+00
  0.905900D+00  0.140382D+00
  0.364300D+00  0.598684D+00
  0.128500D+00  0.395389D+00
   s     1 1.00
  0.905900D+00  0.100000D+01
   s     1 1.00
  0.364300D+00  0.100000D+01
   p     5 1.00
  0.187100D+02  0.140310D-01
  0.413300D+01  0.868660D-01
  0.120000D+01  0.290216D+00
  0.382700D+00  0.501008D+00
  0.120900D+00  0.343406D+00
   p     1 1.00
  0.382700D+00  0.100000D+01
   p     1 1.00
  0.120900D+00  0.100000D+01
   d     1 1.00
  0.109700D+01  0.100000D+01
   d     1 1.00
  0.318000D+00  0.100000D+01
   f     1 1.00
  0.761000D+00  0.100000D+01
  
  5  0
   s    10 1.00
  0.823600D+04  0.531000D-03
  0.123500D+04  0.410800D-02
  0.280800D+03  0.210870D-01
  0.792700D+02  0.818530D-01
  0.255900D+02  0.234817D+00
  0.899700D+01  0.434401D+00
  0.331900D+01  0.346129D+00
  0.905900D+00  0.393780D-01
  0.364300D+00 -0.898300D-02
  0.128500D+00  0.238500D-02
   s    10 1.00
  0.823600D+04 -0.113000D-03
  0.123500D+04 -0.878000D-03
  0.280800D+03 -0.454000D-02
  0.792700D+02 -0.181330D-01
  0.255900D+02 -0.557600D-01
  0.899700D+01 -0.126895D+00
  0.331900D+01 -0.170352D+00
  0.905900D+00  0.140382D+00
  0.364300D+00  0.598684D+00
  0.128500D+00  0.395389D+00
   s     1 1.00
  0.905900D+00  0.100000D+01
   s     1 1.00
  0.364300D+00  0.100000D+01
   p     5 1.00
  0.187100D+02  0.140310D-01
  0.413300D+01  0.868660D-01
  0.120000D+01  0.290216D+00
  0.382700D+00  0.501008D+00
  0.120900D+00  0.343406D+00
   p     1 1.00
  0.382700D+00  0.100000D+01
   p     1 1.00
  0.120900D+00  0.100000D+01
   d     1 1.00
  0.109700D+01  0.100000D+01
   d     1 1.00
  0.318000D+00  0.100000D+01
   f     1 1.00
  0.761000D+00  0.100000D+01
  
  6  0
   s    10 1.00
  0.823600D+04  0.531000D-03
  0.123500D+04  0.410800D-02
  0.280800D+03  0.210870D-01
  0.792700D+02  0.818530D-01
  0.255900D+02  0.234817D+00
  0.899700D+01  0.434401D+00
  0.331900D+01  0.346129D+00
  0.905900D+00  0.393780D-01
  0.364300D+00 -0.898300D-02
  0.128500D+00  0.238500D-02
   s    10 1.00
  0.823600D+04 -0.113000D-03
  0.123500D+04 -0.878000D-03
  0.280800D+03 -0.454000D-02
  0.792700D+02 -0.181330D-01
  0.255900D+02 -0.557600D-01
  0.899700D+01 -0.126895D+00
  0.331900D+01 -0.170352D+00
  0.905900D+00  0.140382D+00
  0.364300D+00  0.598684D+00
  0.128500D+00  0.395389D+00
   s     1 1.00
  0.905900D+00  0.100000D+01
   s     1 1.00
  0.364300D+00  0.100000D+01
   p     5 1.00
  0.187100D+02  0.140310D-01
  0.413300D+01  0.868660D-01
  0.120000D+01  0.290216D+00
  0.382700D+00  0.501008D+00
  0.120900D+00  0.343406D+00
   p     1 1.00
  0.382700D+00  0.100000D+01
   p     1 1.00
  0.120900D+00  0.100000D+01
   d     1 1.00
  0.109700D+01  0.100000D+01
   d     1 1.00
  0.318000D+00  0.100000D+01
   f     1 1.00
  0.761000D+00  0.100000D+01
  
  7  0
   s    10 1.00
  0.823600D+04  0.531000D-03
  0.123500D+04  0.410800D-02
  0.280800D+03  0.210870D-01
  0.792700D+02  0.818530D-01
  0.255900D+02  0.234817D+00
  0.899700D+01  0.434401D+00
  0.331900D+01  0.346129D+00
  0.905900D+00  0.393780D-01
  0.364300D+00 -0.898300D-02
  0.128500D+00  0.238500D-02
   s    10 1.00
  0.823600D+04 -0.113000D-03
  0.123500D+04 -0.878000D-03
  0.280800D+03 -0.454000D-02
  0.792700D+02 -0.181330D-01
  0.255900D+02 -0.557600D-01
  0.899700D+01 -0.126895D+00
  0.331900D+01 -0.170352D+00
  0.905900D+00  0.140382D+00
  0.364300D+00  0.598684D+00
  0.128500D+00  0.395389D+00
   s     1 1.00
  0.905900D+00  0.100000D+01
   s     1 1.00
  0.364300D+00  0.100000D+01
   p     5 1.00
  0.187100D+02  0.140310D-01
  0.413300D+01  0.868660D-01
  0.120000D+01  0.290216D+00
  0.382700D+00  0.501008D+00
  0.120900D+00  0.343406D+00
   p     1 1.00
  0.382700D+00  0.100000D+01
   p     1 1.00
  0.120900D+00  0.100000D+01
   d     1 1.00
  0.109700D+01  0.100000D+01
   d     1 1.00
  0.318000D+00  0.100000D+01
   f     1 1.00
  0.761000D+00  0.100000D+01
  
  8  0
   s     4 1.00
  0.130100D+02  0.196850D-01
  0.196200D+01  0.137977D+00
  0.444600D+00  0.478148D+00
  0.122000D+00  0.501240D+00
   s     1 1.00
  0.122000D+00  0.100000D+01
   p     1 1.00
  0.727000D+00  0.100000D+01
  
  9  0
   s     4 1.00
  0.130100D+02  0.196850D-01
  0.196200D+01  0.137977D+00
  0.444600D+00  0.478148D+00
  0.122000D+00  0.501240D+00
   s     1 1.00
  0.122000D+00  0.100000D+01
   p     1 1.00
  0.727000D+00  0.100000D+01
  
 10  0
   s     4 1.00
  0.130100D+02  0.196850D-01
  0.196200D+01  0.137977D+00
  0.444600D+00  0.478148D+00
  0.122000D+00  0.501240D+00
   s     1 1.00
  0.122000D+00  0.100000D+01
   p     1 1.00
  0.727000D+00  0.100000D+01
  
 11  0
   s     4 1.00
  0.130100D+02  0.196850D-01
  0.196200D+01  0.137977D+00
  0.444600D+00  0.478148D+00
  0.122000D+00  0.501240D+00
   s     1 1.00
  0.122000D+00  0.100000D+01
   p     1 1.00
  0.727000D+00  0.100000D+01
  
 12  0
   s     4 1.00
  0.130100D+02  0.196850D-01
  0.196200D+01  0.137977D+00
  0.444600D+00  0.478148D+00
  0.122000D+00  0.501240D+00
   s     1 1.00
  0.122000D+00  0.100000D+01
   p     1 1.00
  0.727000D+00  0.100000D+01
  
 13  0
   s     4 1.00
  0.130100D+02  0.196850D-01
  0.196200D+01  0.137977D+00
  0.444600D+00  0.478148D+00
  0.122000D+00  0.501240D+00
   s     1 1.00
  0.122000D+00  0.100000D+01
   p     1 1.00
  0.727000D+00  0.100000D+01
  
 14  0
   s     4 1.00
  0.130100D+02  0.196850D-01
  0.196200D+01  0.137977D+00
  0.444600D+00  0.478148D+00
  0.122000D+00  0.501240D+00
   s     1 1.00
  0.122000D+00  0.100000D+01
   p     1 1.00
  0.727000D+00  0.100000D+01
  
[MO]
 Sym= __1_A__
 Ene=   1.00000000000000     
 Spin= Alpha
 Occup=    1.00000000000000     
                     1  2.261911100780827E-004
                     2  0.998194664635109     
                     3  2.877598073779621E-003
                     4  1.784660683496728E-003
                     5  5.896216953100679E-003
                     6  5.732731656514580E-003
                     7 -5.212856782344152E-003
                     8  1.295957386717840E-004
                     9 -8.233407538342013E-004
                    10  3.502863849647428E-004
                    11  1.549624720671536E-005
                    12 -1.541156607130173E-003
                    13  3.365939907765563E-003
                    14 -6.149914646844477E-005
                    15 -3.036705203362954E-005
                    16 -2.207629719781917E-005
                    17 -3.335800637675170E-005
                    18  7.091590357314916E-005
                    19  4.684423238336350E-005
                    20 -3.829471280217045E-004
                    21  5.789215523660422E-007
                    22 -2.118939579481977E-005
                    23  6.102324872792586E-005
                    24 -5.081846476825776E-004
                    25 -2.180765639997536E-006
                    26 -1.213902610137215E-004
                    27 -4.529968700181994E-005
                    28 -1.046630571704917E-005
                    29  1.866717954921996E-005
                    30 -8.805828599603912E-005
                    31 -5.919450865822599E-005
                    32 -3.934953149730421E-004
                    33  7.642026097789578E-004
                    34  2.593257576214881E-004
                    35 -1.148948129496305E-004
                    36 -4.098065506932445E-003
                    37 -6.474616020146823E-005
                    38 -1.904616720809898E-005
                    39  2.023688029600378E-004
                    40 -9.213434387839531E-006
                    41  2.336775666189898E-005
                    42  4.933807743527073E-003
                    43  7.832666508690219E-004
                    44 -8.541693785970665E-005
                    45 -2.158754209508971E-004
                    46 -4.287023737916974E-006
                    47 -3.202150826044582E-007
                    48  2.001785693491718E-004
                    49  4.792782969682643E-005
                    50  5.065289461184611E-004
                    51  2.226156558106796E-005
                    52  6.042873203538008E-006
                    53 -9.909883870138240E-005
                    54 -3.677982238277789E-004
                    55  2.464696827434966E-006
                    56 -5.442156275192302E-005
                    57  9.815034008008174E-006
                    58  4.406347241965960E-006
                    59 -1.622406337645488E-007
                    60 -3.464604934243198E-005
                    61  3.728734387801828E-005
                    62 -3.761101243254772E-004
                    63 -1.780786481146281E-003
                    64  1.019508220640166E-004
                    65  8.782347117635780E-004
                    66  5.014241584652680E-004
                    67 -1.214740584366499E-004
                    68 -5.513924307845561E-004
                    69  6.087167840833050E-004
                    70  9.322740431394064E-005
                    71  1.379116397129733E-004
                    72 -4.213797141995520E-004
                    73 -3.554163741367717E-004
                    74 -8.866224931099488E-004
                    75 -7.201894664993924E-005
                    76 -1.407847845175317E-005
                    77  1.773409896529400E-005
                    78  6.277544231645108E-005
                    79 -1.017345370251519E-005
                    80  2.081636234438658E-004
                    81  1.913491697271059E-004
                    82 -2.545302281351283E-005
                    83 -1.379161014471269E-004
                    84  5.782333217481341E-005
                    85 -1.151650596852621E-005
                    86 -5.479983282931570E-005
                    87  2.172060892678342E-005
                    88 -1.031434905545632E-005
                    89  1.314488398678508E-005
                    90 -4.511415379785209E-005
                    91 -1.178104683282494E-005
                    92 -3.714084660288092E-004
                    93 -1.787319121627274E-003
                    94  1.112366357125672E-004
                    95  8.178295166310545E-004
                    96  5.225932343067868E-004
                    97 -1.180730881794375E-004
                    98  5.624961876247384E-004
                    99  6.123742041994396E-004
                   100  8.786324399289545E-005
                   101 -1.032665007451160E-004
                   102 -5.651175966621962E-004
                   103 -3.604683652625952E-004
                   104  8.100469597159178E-004
                   105 -7.437974197198231E-005
                   106  1.168035030854495E-005
                   107 -1.756826035986995E-005
                   108  6.164954596571748E-005
                   109 -1.044785212300686E-005
                   110  1.931322383905964E-004
                   111 -1.861261407757754E-004
                   112  2.826912472951718E-005
                   113 -1.335317928915692E-004
                   114  6.394654358507080E-005
                   115  9.825826826426077E-006
                   116 -5.280907793348167E-005
                   117  2.121489735274909E-005
                   118  9.844280760978977E-006
                   119 -1.431108783685488E-005
                   120 -4.404342994826582E-005
                   121 -1.168006110694468E-005
                   122 -1.982312810534452E-004
                   123 -3.677357430422287E-004
                   124  4.785660004228875E-005
                   125  6.101694704029566E-004
                   126 -4.998270503941656E-004
                   127 -4.222540376962761E-005
                   128  2.102950479506551E-005
                   129  2.124052647166070E-004
                   130 -2.933909895330934E-005
                   131  1.338192255661893E-005
                   132  9.320536298427943E-004
                   133  1.641817158055120E-004
                   134 -2.509974601421063E-004
                   135  4.750520180518479E-006
                   136 -5.845062211902284E-007
                   137 -4.406654396120753E-006
                   138  1.331612855613332E-006
                   139  1.013108918921457E-005
                   140  8.007973702306682E-005
                   141  1.989069490390349E-004
                   142  9.613710900642486E-006
                   143 -1.887482767500118E-004
                   144 -1.431214327739365E-005
                   145 -1.239569294048116E-005
                   146 -1.446895550136478E-005
                   147  2.867897384309109E-006
                   148 -4.738895375309498E-006
                   149 -1.535909632974157E-006
                   150 -4.618238402697005E-005
                   151 -2.116313728195591E-006
                   152 -1.942351399346433E-004
                   153 -3.486163972953134E-004
                   154  4.875166833096584E-005
                   155  5.855957096564440E-004
                   156 -5.053622555743557E-004
                   157 -4.212754164846613E-005
                   158 -2.337708798410680E-005
                   159  2.037550568905722E-004
                   160 -3.041240922560086E-005
                   161 -4.587428590000210E-006
                   162  7.995600825201448E-004
                   163  1.632621259863354E-004
                   164  3.188543892154698E-004
                   165  4.214246110778162E-006
                   166  2.165010132244259E-007
                   167  4.493816257398374E-006
                   168  1.353932972926542E-006
                   169  9.958828589620201E-006
                   170  7.140166997191501E-005
                   171 -1.871834273945764E-004
                   172 -1.048459604974458E-005
                   173 -1.833936526407427E-004
                   174 -1.214715661250011E-005
                   175  1.100072195675923E-005
                   176 -1.527928060153160E-005
                   177  2.986378121995728E-006
                   178  4.136046414906440E-006
                   179  1.346948551551154E-006
                   180 -4.510923835605097E-005
                   181 -2.269862391917753E-006
                   182 -1.274152554330530E-004
                   183 -3.943267512490602E-004
                   184  2.705882611877422E-005
                   185  1.593337315236926E-004
                   186 -1.982225191983264E-005
                   187 -4.625388541971552E-005
                   188 -1.750817845297253E-006
                   189  1.013334894582358E-004
                   190  2.155430182430472E-005
                   191  1.123651136150377E-005
                   192 -4.012231676812783E-004
                   193 -1.127233003079995E-004
                   194  7.463730718079619E-005
                   195 -8.687021657983443E-006
                   196 -2.187248112467337E-007
                   197 -1.225273250720881E-009
                   198  3.227875667454116E-006
                   199 -2.142675930340192E-006
                   200 -1.164963654583205E-004
                   201 -8.028045465297078E-006
                   202 -6.702903328792867E-007
                   203  6.462229905449302E-005
                   204  1.787024082609708E-005
                   205  2.102893618503419E-007
                   206  1.783165368753296E-006
                   207  3.104107008120375E-006
                   208  7.083380460134824E-007
                   209  8.142217873323061E-008
                   210 -5.708616790899555E-006
                   211 -2.840529705276100E-006
                   212  2.058491037380788E-003
                   213 -1.730383052525896E-003
                   214  1.684057598635950E-004
                   215  3.134066558406907E-004
                   216  3.447298046404821E-004
                   217  2.424949095015845E-003
                   218 -2.070410714449564E-003
                   219  1.698569354694787E-004
                   220  3.088174695952713E-004
                   221 -3.401147953087950E-004
                   222 -4.599339260802713E-004
                   223 -3.646364284948804E-004
                   224 -6.335878073910395E-005
                   225  1.071494631722266E-005
                   226  4.567427251353797E-005
                   227 -4.617230468456594E-004
                   228 -3.447293067945091E-004
                   229 -6.084932473177884E-005
                   230  1.051083517201027E-005
                   231 -4.582803496969988E-005
                   232 -9.916987395306125E-005
                   233 -4.846930166233901E-004
                   234  5.361366971854321E-006
                   235 -1.711155946337333E-006
                   236 -9.593315159438622E-006
                   237 -1.041381213587295E-004
                   238 -4.794271650225069E-004
                   239  5.169229173823380E-006
                   240 -1.584319229009615E-006
                   241  9.211443398315638E-006
                   242  5.857014267525016E-006
                   243  1.325381573498190E-004
                   244  3.153840813091011E-005
                   245  2.106593406989297E-006
                   246 -2.688671076193622E-007
 Sym= __2_A__
 Ene=   2.00000000000000     
 Spin= Alpha
 Occup=    1.00000000000000     
                     1 -2.014731005395545E-005
                     2 -8.557774017705021E-005
                     3  2.080574398369663E-003
                     4 -1.685581022490896E-005
                     5  1.219270450907640E-003
                     6  1.893210771790693E-003
                     7  2.598968658442295E-004
                     8 -3.162361843192760E-005
                     9 -1.486921463100556E-004
                    10  1.097345352096770E-004
                    11 -3.587189479616553E-006
                    12  5.719543830852603E-005
                    13  5.289140150598315E-005
                    14 -5.308271929014213E-008
                    15 -7.119728409493249E-005
                    16 -7.732253652241618E-007
                    17 -1.941317949205329E-007
                    18  4.256823074515256E-005
                    19 -4.256387989645857E-006
                    20  1.579897074148768E-004
                    21  1.454305589378005E-005
                    22  7.096883633272065E-006
                    23  1.084272548792881E-004
                    24 -3.571598694255421E-005
                    25 -1.542557237632838E-006
                    26  1.386240387637566E-004
                    27 -5.664429707313218E-005
                    28  1.141974505257200E-006
                    29 -3.282931958946566E-006
                    30  1.227459232051615E-004
                    31  3.797419517156746E-005
                    32   1.00096168063575     
                    33  8.751475399046631E-003
                    34  2.784092524861165E-003
                    35 -8.240519535893937E-003
                    36 -2.536912776730579E-003
                    37  7.239390005614328E-004
                    38 -1.381426473713198E-007
                    39  1.071518527095978E-003
                    40 -2.347678140766481E-004
                    41  1.164276365482878E-005
                    42  3.408368929418102E-003
                    43 -1.304562656862341E-004
                    44  1.045548035275024E-005
                    45  2.990902909475483E-004
                    46 -2.934165208200423E-006
                    47  7.937111055207886E-008
                    48  4.094076973966282E-004
                    49 -2.852207593878318E-005
                    50 -1.041266409927625E-003
                    51  2.805771168318098E-005
                    52 -1.358271458129527E-006
                    53 -1.119682955696600E-004
                    54  4.368465061524170E-005
                    55  7.542302994969028E-007
                    56  3.054001908576437E-004
                    57 -8.555003595722614E-006
                    58  9.608337271089924E-007
                    59 -2.137140457961496E-007
                    60  7.948505299691255E-005
                    61  1.981231395494842E-005
                    62  1.275332050430413E-002
                    63 -1.852052276479334E-003
                    64 -3.162190839904076E-004
                    65  3.166156633757613E-003
                    66 -1.442866859698883E-004
                    67  1.318233993531841E-004
                    68  2.570458669640017E-004
                    69  2.459034055502599E-005
                    70 -1.838132127541804E-006
                    71  5.346994074000710E-004
                    72  1.491833212894642E-004
                    73 -3.576544026619962E-005
                    74 -1.813358662845812E-003
                    75 -9.332375289967405E-006
                    76  2.351151974267940E-005
                    77  9.371127207393711E-006
                    78 -3.496463621835354E-005
                    79 -4.928927072351291E-006
                    80 -4.081985539238154E-004
                    81 -4.697759922783294E-004
                    82 -3.335050033247334E-006
                    83  7.557487534392722E-004
                    84 -1.271808422968638E-006
                    85  4.980687707357462E-005
                    86  1.051516444429672E-004
                    87  2.072774979780944E-007
                    88 -1.801911135881224E-005
                    89 -7.171645379309428E-006
                    90 -3.061490269449460E-005
                    91  5.286902823868277E-006
                    92  1.282011318680104E-002
                    93 -1.847558185537487E-003
                    94 -3.110442237282198E-004
                    95  3.129075348086310E-003
                    96 -1.434418639628778E-004
                    97  1.312629261443468E-004
                    98 -2.589874446535223E-004
                    99  2.914344145992098E-005
                   100  2.515679692004875E-006
                   101 -5.086887483638965E-004
                   102  1.658618561594473E-004
                   103 -3.801764632706942E-005
                   104  1.834628279308817E-003
                   105 -9.537257738289026E-006
                   106 -2.476247948814606E-005
                   107 -9.143461099546227E-006
                   108 -3.595873656573044E-005
                   109 -4.878100204975343E-006
                   110 -4.234288936379924E-004
                   111  4.713793634348264E-004
                   112  1.454199531232321E-006
                   113  7.633199525681350E-004
                   114 -2.953889945256099E-006
                   115 -5.123217212202936E-005
                   116  1.064724223602323E-004
                   117  1.486214622755157E-007
                   118  1.683881353239658E-005
                   119  7.391111932680979E-006
                   120 -2.974701894729576E-005
                   121  5.489742704475649E-006
                   122 -1.384353556206756E-004
                   123 -7.072241945451881E-004
                   124  2.528347600282842E-004
                   125 -3.250424030347636E-004
                   126 -1.928528897779491E-004
                   127  2.480839668660802E-005
                   128 -4.256700015727390E-005
                   129  5.986840134231586E-004
                   130 -7.731332501416634E-007
                   131  3.992664006437969E-005
                   132  5.620534434469926E-004
                   133  4.734404809305260E-006
                   134  3.351981804311571E-004
                   135  1.828387028567656E-007
                   136  4.166528382811866E-005
                   137  1.402380686196030E-007
                   138 -3.450469214589634E-005
                   139 -1.654128452647131E-006
                   140  1.927634948606617E-004
                   141 -2.630660384530165E-004
                   142  2.717520226277389E-006
                   143 -2.652597460220900E-004
                   144 -5.144226857420392E-006
                   145 -1.751078356533106E-005
                   146  1.233135941815335E-005
                   147  1.392971597440131E-007
                   148 -1.237398670061330E-005
                   149 -2.246333126806860E-006
                   150 -2.613549472147932E-005
                   151 -4.172462366998877E-007
                   152 -1.386548098202151E-004
                   153 -7.091281351276614E-004
                   154  2.522027217676601E-004
                   155 -3.277345650573954E-004
                   156 -1.921251695581916E-004
                   157  2.435572997198951E-005
                   158  4.327425109960551E-005
                   159  6.023124879693784E-004
                   160  4.199255639333102E-007